
122790  0.0000000e+00
  78.9896154  83.5998631  68.9132738  79.1264534  84.6002102  68.8873339
  78.0466652  83.3301735  69.1545534  79.2033100  83.1040668  68.0596781
  79.8407125  83.0422306  70.0489664  79.5007849  82.0477390  70.3379869
  81.3293457  82.8395939  69.6076965  81.7106342  83.8357735  69.3833351
  81.7961407  82.3760605  70.4767990  81.5924835  82.0289421  68.2900047
  82.7601242  81.9307423  67.7971840  80.6027222  81.5254211  67.7574921
  79.7903204  83.9488983  71.3593292  80.7370949  84.6258259  71.6961336
  78.5976458  84.0185833  71.9954014  77.8786659  83.3232117  71.8553114
  78.4495401  84.8324490  73.1857252  79.4390488  85.0972557  73.5583448
  77.6343822  86.1665535  72.8837919  77.6634026  86.7502689  73.8038635
  78.2925797  86.9765663  71.8510056  77.9080439  87.9943371  71.7848635
  79.3738365  86.9983292  71.9870329  78.1814146  86.6323376  70.8227825
  76.3892508  85.9296989  72.3661613  76.5869761  85.5649662  71.5004396
  77.6735353  84.2205048  74.3443298  77.6954269  84.6621132  75.4745102
  77.0726728  83.0425358  74.0958738  77.0908642  82.6834774  73.1520271
  76.7678642  82.1182823  75.1984024  77.4175119  82.3877335  76.0311365
  75.2155733  82.2531223  75.5536461  74.9132872  83.2915020  75.6896734
  74.5650339  81.8112659  74.7988844  75.0027084  81.5590668  76.7395544
  74.0568495  81.4672089  76.8756247  77.1721792  80.6744576  74.8660564
  77.4030399  80.3546238  73.6767530  77.4367619  79.8421383  75.9564638
  77.3183250  80.1987076  76.8939781  78.0207777  78.5277462  75.7918692
  78.9539766  78.6609840  75.2446127  78.2986975  77.7660370  77.1424675
  77.5617075  78.0827475  77.8804636  78.2753944  76.6807222  77.0442486
  79.6709108  78.0706120  77.7113485  79.7698784  79.1517210  77.8088903
  79.8505020  77.5825357  79.1574144  80.7488155  77.9513931  79.6524811
  78.9844608  77.8100395  79.7789621  79.9675798  76.4988470  79.1610575
  80.8570671  77.5132656  76.9264603  80.9861088  76.4575672  77.1651173
  80.7515144  77.6458740  75.8497143  81.7743301  78.0093813  77.2436237
  77.2721958  77.6375389  74.8729229  77.8375721  76.9106579  74.0358353
  75.9076071  77.6212502  74.9219084  75.1528358  78.1646681  76.0737133
  74.7744417  79.1319513  75.7431316  75.6268692  78.2646704  77.0501328
  73.9850378  77.2889614  76.1916018  73.1691027  77.8389359  76.6605186
  74.2331314  76.3423920  76.6717577  73.6149454  76.9356251  74.7368574
  73.0036783  77.7380419  74.3238449  73.1080103  75.9707403  74.7261477
  75.0169325  76.7775297  74.0820837  75.2837229  75.7207251  74.0730047
  74.9440002  77.2323990  72.5879335  74.5474863  76.3370180  71.8680143
  75.6561804  78.2404900  72.1171379  76.0484600  78.8865185  72.7871084
  75.5816412  78.6680269  70.6835318  75.3654480  77.7516460  70.1343489
  74.3990374  79.6343422  70.4095507  74.5529747  80.6319427  70.8208942
  73.8819408  79.6390247  68.9860535  74.6159458  80.1326180  68.3491087
  73.8050365  78.6516953  68.5306692  72.9362822  80.1793480  68.9426517
  73.2881308  79.1545725  71.2274933  72.8970051  78.3737373  70.8288431
  76.8965960  79.2028093  70.0823784  76.8982649  79.6341896  68.9291191
  77.9870272  79.1376925  70.7520151  78.0197048  78.7938595  71.7011261
  79.3324137  79.3880510  70.1513243  79.2459774  80.2485561  69.4878864
  80.4052448  79.6041870  71.2202263  80.7219219  78.6951733  71.7315960
  81.2820721  79.9824762  70.6947088  79.9278164  80.5290127  72.1264887
  80.3705692  80.4063034  72.9694080  79.7942877  78.1983423  69.2393351
  80.8065319  78.3309507  68.5951376  79.0481472  77.1121502  69.2309666
  78.1306648  77.1988916  69.6442461  79.4017649  75.7824516  68.7403584
  78.5572290  75.1733017  69.0625238  79.3592787  75.8181524  67.1887684
  80.1923180  76.3182974  66.6948032  79.4229269  74.8418379  66.7082977
  78.0588675  76.3925505  66.7551565  76.8332005  75.7189798  67.0344019
  75.9154034  76.6375971  66.8025875  74.8515749  76.4729929  66.7155600
  76.4705849  77.8263044  66.4355516  75.9224224  78.6643648  66.3041162
  77.8167582  77.6704216  66.3852453  78.5303831  78.4593916  66.1990690
  80.7231712  75.2105713  69.3783760  81.6573715  74.8868513  68.6701202
  80.7692623  75.1346636  70.7195950  80.0434208  75.5941534  71.2507439
  81.9068813  74.6195889  71.5162754  82.7337742  75.3274059  71.4584351
  81.3998508  74.3972063  72.9445696  82.1008301  73.7878036  73.5149717
  81.3154984  75.7015514  73.6397123  81.1116886  75.4771376  74.6867085
  82.2259521  76.3005304  73.6194229  80.5140877  76.2968397  73.2021332
  80.1318359  73.8297749  73.0061388  80.1476574  73.3379602  73.8304377
  82.4109554  73.2274199  70.9822083  83.6422253  73.0069685  70.8759689
  81.5818405  72.3053360  70.5510426  80.5952835  72.4839592  70.6731081
  81.9411373  70.9933090  69.9497080  82.5126076  70.4173756  70.6775951
  80.6302834  70.1208115  69.6876335  80.9543324  69.1278696  69.3759298
  80.2635098  70.0190592  70.7090187  79.5811462  70.7998991  68.8379860
  78.6519384  71.7619562  69.3615961  78.6626148  72.1172762  70.3814173
  77.7714443  72.4869204  68.5418367  77.0943594  73.1879187  69.0071869
  77.6603270  72.2295856  67.1565580  76.9538832  73.0345106  66.3445234
  76.8826771  73.9271116  66.6906404  78.5240841  71.2390041  66.5860367
  78.5398722  70.9605646  65.5426645  79.5248461  70.5925751  67.4251032
  80.1567364  69.9407196  66.8401194  82.7470970  71.2699080  68.6334753
  83.6138344  70.3900623  68.3057261  82.5295925  72.3487806  67.8551006
  81.9000626  73.0442953  68.2293177  83.3774090  72.6146078  66.7035723
  83.7728310  71.6943216  66.2736702  82.6534462  73.4203386  65.5594254
  82.5251770  74.4472694  65.9015656  83.3915520  73.4358311  64.7575188
  81.4155579  72.7791357  64.9778748  80.5995560  72.8069973  65.6999922
  80.8043480  73.6043262  63.8535357  81.5261078  73.7534285  63.0504656
  79.8810196  73.1860399  63.4527826  80.4620934  74.5543814  64.2638540
  81.5181828  71.4159870  64.4520807  81.8613911  70.7697821  65.2599955
  80.4986000  71.0876083  64.2502642  82.2177029  71.3462591  63.6190701
  84.5810318  73.4711981  67.0846939  85.5772114  73.5557985  66.3610744
  84.4218349  74.2523098  68.1402588  83.5855961  74.0999031  68.6857653
  85.4181671  75.0979567  68.7333393  85.9102345  74.5800304  69.5565796
  86.1500549  75.4053259  67.9863596  84.6530151  76.3098288  69.3179846
  83.8406467  76.9717312  68.6619568  84.9740219  76.6580057  70.5693007
  85.6534958  76.0315466  70.9766769  84.5489407  77.8533840  71.2741232
  83.4629822  77.8051519  71.3545084  85.0193882  77.7739334  72.7147532
  84.6252060  76.8276024  73.0851269  86.0958195  77.8320026  72.8761196
  84.4349003  78.5400248  73.2242250  84.9615765  79.2186689  70.6694841
  84.1108131  80.0954247  70.4987335  86.1956215  79.4385719  70.3019524
  86.8841839  78.7408829  70.5452967  86.6954231  80.6660748  69.6497393
  85.9907341  81.4602184  69.8964024  88.0895996  80.9851456  70.2765703
  88.7700081  80.2288342  69.8852444  88.5011578  81.9315434  69.9257851
  88.1330395  80.9544563  71.8167496  89.0642357  80.3724766  72.4058628
  87.2612858  81.6161060  72.4363756  86.8817043  80.4966831  68.1384087
  85.9905338  79.8535395  67.5118446  87.9994106  80.9340477  67.5137472
  88.8636780  81.0633659  68.0201244  88.1633854  81.1282253  66.1129951
  87.8598213  80.1512146  65.7369423  87.0797634  82.1336746  65.7295942
  87.1036434  82.2177029  64.6431017  86.1056423  81.7807579  66.0681581
  87.2596455  83.5140991  66.4376307  86.3968277  84.0512276  66.0437536
  87.1343040  83.5215473  67.5203753  88.6101532  84.6796417  66.1666870
  88.1794357  85.4919243  64.5805311  89.1316986  85.9284019  64.2792130
  88.0193710  84.7429752  63.8049364  87.4711323  86.3204193  64.5842075
  89.6021938  81.3804340  65.6354856  90.5376816  80.8495808  66.2445545
  89.8053932  82.0361996  64.5079470  89.0189171  82.4677086  64.0438890
  90.9607887  82.0032024  63.6551952  91.7868137  81.8809795  64.3558025
  90.9993839  80.8194256  62.7157688  90.8481407  79.8996687  63.2808161
  90.1356030  80.9702587  62.0682907  92.2690868  80.8550167  61.7783976
  92.2780895  79.9995899  61.1029243  92.4786186  81.7110252  61.1369658
  93.4671021  80.7088852  62.7516127  94.2881203  81.6873741  62.8633070
  93.5958099  79.7353745  63.5406399  91.1806583  83.3580494  62.9126120
  90.3939819  83.7166691  62.0901108  92.2988319  84.0581799  63.2580376
  92.9411793  83.5421658  63.8421726  92.7260494  85.3985023  62.7796555
  91.8473816  86.0427284  62.7477551  93.6111069  86.0457993  63.9037704
  94.5239067  85.4503250  63.8860559  93.9274216  87.0678329  63.6952114
  92.8720188  85.9831715  65.2749729  91.8304348  86.2789345  65.1495838
  92.7601337  84.9667740  65.6525040  93.5892391  86.7964840  66.3731337
  92.8511906  87.4367046  67.1201086  94.8499298  86.9217777  66.3516140
  93.3714294  85.3730869  61.3944960  94.5400238  85.5995846  61.1959076
  92.5940990  84.8612499  60.3987217  91.6769409  84.6244717  60.7492304
  92.7853680  85.1019287  58.9785528  93.7354946  84.6398830  58.7104654
  91.6667461  84.5033646  58.0624199  90.7295799  85.0473499  58.1802416
  92.0741558  84.5312500  57.0518064  91.3635445  82.9948139  58.1248236
  92.1792793  82.1524906  57.3587704  92.8587627  82.5829697  56.6380787
  92.0182419  80.7757950  57.4359417  92.6716232  80.2110481  56.7874336
  91.0296249  80.1591778  58.2836914  90.9634781  79.0837955  58.3584118
  90.2075863  81.0116959  59.0613842  89.4182491  80.5719852  59.6529913
  90.3574753  82.4013615  58.9764357  89.7200584  83.0357075  59.5745182
  92.8812122  86.6198254  58.6042929  92.2071838  87.4273205  59.2598104
  93.6999321  86.9661427  57.6509619  94.1065216  86.2817574  57.0293522
  93.9289761  88.3759880  57.1906042  94.1574955  88.9314842  58.1001616
  95.1697350  88.3412552  56.2839079  95.9944439  88.2425785  56.9897556
  95.0392532  87.4796009  55.6292248  95.4223728  89.6392345  55.4123592
  95.9224510  90.8555984  56.0566521  95.8695221  91.7887974  55.0656557
  96.0510254  92.8521824  55.1174021  95.4107952  91.2378216  53.9207458
  95.2133179  91.7475224  53.0714512  95.1141834  89.9475574  54.1435289
  94.5417500  89.2885971  53.5075283  92.6679707  88.7775230  56.4385128
  92.3065090  88.0768204  55.4825068  92.0952225  89.9615002  56.7682123
  92.3100185  90.3399944  57.6796436  91.0858822  90.6663227  56.0118484
  91.0316563  91.7171764  56.2962246  91.4288235  90.7089996  54.9780798
  89.7007275  90.0087070  56.0425138  89.2570496  89.4167614  57.0478296
  88.9208221  90.2052021  54.9442577  89.3544388  90.6209373  54.1323185
  87.4634552  90.0224781  54.8442316  87.2153854  89.0782166  55.3289270
  86.7869377  91.1962318  55.5455637  87.2695160  91.3699627  56.5073538
  86.7383385  92.0766258  54.9047470  85.3654575  90.9952545  55.9219933
  85.2053070  90.0625610  56.4628506  85.2062702  91.7108345  56.7286587
  84.3470478  91.0878563  54.7687864  84.6041298  91.7377949  53.9323759
  84.4310093  90.0614738  54.4115925  83.0247784  91.4618969  55.2337170
  82.9762459  91.8608093  56.1603308  82.0199203  91.5718842  54.4399548
  80.9873199  92.1439266  54.9167967  80.9806919  92.4544430  55.8778572
  80.2112389  92.3387051  54.3004608  81.9884300  91.2802887  53.1728888
  82.7871704  90.8278084  52.7517223  81.0995770  91.4272499  52.7163506
  87.0820808  89.8958492  53.3522892  87.5017643  90.7606602  52.6205921
  86.3986206  88.8323116  52.9841614  86.1047268  88.1694221  53.6872292
  85.9053898  88.6522293  51.6185427  86.6875172  88.7452888  50.8650732
  85.3373814  87.1473026  51.4220285  84.4982147  87.0036221  52.1026516
  84.9360275  86.8287468  49.9627590  85.4625797  87.5597382  49.3491840
  85.3649998  85.9015179  49.5828390  83.8539505  86.8912983  49.8474216
  86.2400055  86.1470604  51.7682600  85.6548786  85.4009628  51.9184589
  84.8124695  89.6103001  51.2652016  83.7842274  89.6802902  51.9363117
  84.9478340  90.2843189  50.1317883  85.7992077  90.0391865  49.6468401
  84.1396618  91.3622952  49.5699835  83.0854225  91.0967159  49.6484613
  84.4353771  92.7005100  50.2228165  84.1040325  92.6991272  51.2612343
  85.5019283  92.8983116  50.1158714  83.6586475  93.9262867  49.7866821
  83.7288761  94.1882992  48.7309742  82.1587944  93.8553333  50.1483440
  81.9821739  93.7659073  51.2202168  81.6401291  94.7269917  49.7492027
  81.7409420  93.0082989  49.6042538  84.0538788  95.1917171  50.5119610
  85.0763893  95.5122757  50.3124046  83.3482933  95.9889221  50.2780342
  84.0153980  94.9420452  51.5722847  84.3599129  91.4896679  48.0452347
  85.2744007  92.1332359  47.5422478  83.5366058  90.7859707  47.2970867
  82.7508450  90.3226948  47.7307558  83.4432507  90.9648418  45.8483887
  84.4161224  91.1417675  45.3897858  82.8673649  89.6813393  45.2187538
  81.8352604  89.5508003  45.5440617  82.7437019  89.8191261  44.1445923
  83.6768341  88.4270573  45.4475880  83.2943249  87.3450756  46.2171793
  84.2962551  86.4719391  46.3272285  84.2975521  85.5999470  46.9644308
  85.3761864  87.0590687  45.7507849  86.3108253  86.6764450  45.7384920
  84.9989605  88.2276058  45.1003122  85.6302929  88.8418579  44.4753933
  82.6354218  92.2415924  45.5325985  81.9698620  92.7649212  46.4225578
  82.7394962  92.7891636  44.3370771  83.3013153  92.2877789  43.6639643
  81.8233204  93.7742901  43.8880873  81.7835712  94.5198154  44.6822596
  82.4041748  94.4575882  42.6961327  82.3561287  93.8599014  41.7858744
  81.7517662  95.3086281  42.5007057  83.7951374  95.0616169  42.8420210
  83.9041138  95.9517670  43.6681414  84.7636509  94.6030617  42.2048187
  80.4003143  93.1904125  43.5335588  80.1938057  92.0380306  43.0557060
  79.4023180  94.0174580  43.8267231  79.5621014  94.9439144  44.1958523
  78.0822802  93.6683369  43.2855940  77.9338503  92.6285553  43.5770226
  77.0573378  94.5596790  43.9751244  76.1092377  94.3895531  43.4649611
  76.9448233  94.0916729  44.9530935  77.3735285  96.0978985  44.1838837
  78.3912849  96.4729309  44.8285341  76.5987349  96.9818211  43.7672663
  78.1506014  93.8234806  41.7483091  78.4496450  94.8876190  41.2174559
  77.7823782  92.6921749  41.1182547  77.6043510  91.9182587  41.7423201
  77.7981091  92.3255348  39.6997499  76.9695854  91.6535187  39.4760704
  77.8361559  93.5227966  38.7526965  77.0829916  94.2256451  39.1088676
  78.8261318  93.9274025  38.9632583  77.7252245  93.2886124  37.2702169
  78.5247564  93.8696766  36.5132570  76.7690182  92.5899601  36.9000340
  78.9968824  91.4344215  39.3894005  79.1073275  90.8123875  38.3149838
  79.9123573  91.2162495  40.2482176  79.8531580  91.5725040  41.1914444
  81.2588692  90.4805374  39.9942732  81.8310452  90.9458923  39.1916776
  82.1110535  90.5629635  41.2465715  82.2200298  91.6175365  41.4997530
  81.5292168  90.1144886  42.0518255  83.2920551  89.8651314  41.0871935
  83.7635899  90.2450180  40.3422451  80.9486771  89.0624809  39.7042012
  80.1563835  88.4084129  40.3577900  81.6352940  88.4101391  38.7048936
  82.4012470  88.9165306  38.2841921  81.5630722  86.9991779  38.3928132
  80.5757427  86.7134571  38.7556577  81.5212727  86.7575741  36.8380356
  82.5438118  86.9496918  36.5130401  81.1027527  85.3159332  36.3728690
  81.1835575  85.2261353  35.2895784  81.7060280  84.6667290  37.0074582
  80.0774479  85.1289272  36.6920519  80.6410027  87.7656078  36.0739350
  81.0437489  88.7782383  36.0519338  80.6390572  87.4810982  35.0217247
  79.1912079  87.8080082  36.3921523  78.8965321  87.4991703  37.3950911
  78.7848711  88.7847424  36.1295247  78.7282658  87.0847893  35.7207727
  82.6928711  86.2416363  39.1347170  83.8653183  86.6858292  39.0797210
  82.3200130  85.1972485  39.8184919  81.3393497  84.9557018  39.8256612
  83.3257961  84.3247604  40.5505180  84.3445683  84.3461418  40.1635599
  83.2631683  84.8092937  42.0214844  82.2904778  84.6218204  42.4762583
  83.8906002  84.1340065  42.6032209  83.5993862  86.2434673  42.2889948
  82.8158188  86.8578911  41.8455982  83.6053944  86.4311314  43.3626986
  84.9965858  86.6171551  41.9781113  85.9419250  85.8749580  41.8352127
  85.1486778  87.8266048  41.5643215  86.0752392  88.1613064  41.3417196
  84.3397236  88.4013939  41.3764143  82.8429127  82.8926754  40.4362488
  81.7372036  82.5551414  39.9486995  83.6728668  81.9126511  40.8529282
  84.5176792  82.2053242  41.3227606  83.4437180  80.5234909  40.8046722
  82.3595142  80.4113579  40.8122683  83.9982986  79.9004316  39.5084000
  85.0853443  79.9473572  39.5734072  83.7179852  78.4082317  39.3363690
  83.9140606  77.8928185  40.2765846  82.6550961  78.3150625  39.1134882
  84.2680073  78.0042934  38.4864163  83.4981537  80.5184937  38.1845570
  82.4102879  80.4596996  38.2191586  83.9189816  81.5082455  38.0073714
  83.7155724  79.9237871  37.2973394  83.8833523  79.8082876  42.0768499
  85.0061035  79.8706150  42.5253248  82.9898930  79.2108679  42.8152657
  82.0623875  79.0946007  42.4327469  83.1183434  78.9912415  44.2519951
  84.1794205  79.0617561  44.4912529  82.3365498  80.1031971  45.0118685
  81.2912750  79.8019552  44.9429893  82.7322578  80.1117325  46.4492083
  83.6505699  80.6750965  46.6148186  82.0097542  80.6453323  47.0667505
  82.8100777  79.1177464  46.8896961  82.3514366  81.5895557  44.5044518
  83.3825779  81.9197941  44.3787527  81.8962288  81.5895939  43.5140514
  81.6158676  82.7083015  45.3338289  82.2618103  82.9659653  46.1731529
  81.4223766  83.5568333  44.6775866  80.6174183  82.4144840  45.6576777
  82.5732136  77.5770473  44.6781921  81.5457058  77.1675730  44.1199017
  83.3134460  76.8382883  45.5337620  84.5595074  77.2138643  46.1782980
  84.4219303  77.8485823  47.0536852  85.2655888  77.6602364  45.4780912
  85.1757145  75.8753109  46.5462017  85.9069633  75.9275866  47.3528290
  85.7629299  75.5480433  45.6881952  84.0223408  74.9675941  46.9373703
  83.7336159  75.2654171  47.9453611  84.2650127  73.9326620  46.6962767
  82.9011822  75.5701542  46.0824823  82.7933311  74.9255514  45.2101564
  81.4698315  75.6026840  46.8426275  81.2365818  76.5930223  47.5188208
  80.7264805  74.5571709  46.8055964  81.1040878  73.7660360  46.3039684
  79.3543005  74.3303967  47.3721313  79.0116262  75.1859665  47.9541016
  78.3139324  73.9603662  46.3172722  78.6063862  72.9736948  45.9580326
  76.8832302  73.8145638  46.9784164  76.7780113  74.6972895  47.6091576
  76.0850573  73.9413881  46.2470245  76.7656851  72.9460907  47.6265192
  78.2618856  74.9730682  45.1612616  77.4981594  74.7219849  44.4252014
  78.0830002  76.0076809  45.4539633  79.2271519  75.0760317  44.6655178
  79.4375658  73.1247330  48.3482218  80.0860119  72.1300507  48.0113125
  78.8095427  73.1627226  49.5084381  78.3731794  74.0070772  49.8501348
  78.5579300  72.0085907  50.4141808  79.1099119  71.2186861  49.9047947
  79.3004036  72.1394873  51.8049860  78.8291502  73.0206490  52.2403908
  79.0760565  71.2558556  52.4024630  80.8281040  72.3613501  51.7533398
  81.1063194  73.2311296  51.1582088  81.3185692  72.5988197  53.1446648
  82.4081421  72.6222706  53.1252384  81.0230350  73.5505104  53.5863018
  81.0142899  71.7790318  53.7953997  81.4879704  71.0910749  51.2159586
  82.5649166  71.2454844  51.1492205  81.2158108  70.2610731  51.8679762
  81.2678719  70.9498835  50.1577902  77.0910025  71.6066170  50.5314684
  76.4167452  72.1296263  51.4166546  76.6826963  70.5898142  49.7444916
  77.3756218  69.8077106  48.7445641  77.8913498  68.9271355  49.1275978
  78.0698395  70.4565048  48.2105017  76.3601017  69.4228125  47.6798296
  76.6408682  68.6999846  46.9138050  76.1077547  70.3485441  47.1626806
  75.2082205  69.0523243  48.6192703  75.3930759  68.0681515  49.0497780
  74.2889643  69.1376686  48.0397940  75.2729464  70.1676893  49.7164822
  74.6445847  71.0014629  49.4032860  74.6701956  69.6866798  51.0402060
  73.4921646  69.5497656  51.1520052  75.4294920  69.5040226  52.1227312
  76.4122295  69.4145584  51.9075108  75.0215149  69.1288137  53.5091162
  74.3667746  68.2573795  53.5039473  76.3631392  68.8057756  54.2666483
  76.0289907  68.1632996  55.0813103  77.0255232  68.2110882  53.6376095
  77.0831442  70.0261354  54.7676134  76.9439888  70.8290195  54.0436602
  76.5945148  70.4604292  55.6398201  78.5246038  69.7061253  55.0879526
  79.3885946  69.5539141  54.2631674  78.7995243  69.4340706  56.3752460
  79.6465492  68.9411688  56.6195679  78.0407524  69.4179821  57.0416594
  74.0815687  70.0887728  54.2658234  73.5158443  69.7065115  55.2876091
  74.1236305  71.3785839  53.8113499  74.8221254  71.5862417  53.1120014
  73.3596563  72.5621653  54.2823839  73.3045912  72.6250315  55.3691816
  74.0815878  73.8192987  53.7929630  74.2869091  73.8093615  52.7225208
  73.3446884  75.0549889  54.1699553  73.8971424  75.9714127  53.9624405
  72.3173094  75.1090050  53.8098478  73.2023907  75.1195383  55.2486944
  75.5114412  73.8760662  54.4018030  75.9324265  74.8769665  54.3065739
  75.4809189  73.7628269  55.4854774  76.1296701  73.0851650  53.9770985
  71.9501400  72.3968220  53.8455153  71.5604210  72.9076529  52.7701807
  71.1070299  72.0056391  54.8098421  71.4435339  71.8510675  55.7495070
  69.6342230  71.9648695  54.7707367  69.4110775  71.8586493  53.7091208
  69.2409468  70.6725693  55.5396652  69.9854183  69.9006128  55.3448629
  69.2424250  70.8340502  56.6176367  67.8837204  70.1503754  55.0604057
  67.0619869  70.7982111  55.3656387  67.8912258  70.1487970  53.9704370
  67.3064899  68.5192823  55.6769991  68.5538483  67.3940754  54.8390961
  68.6381245  67.5773096  53.7679148  69.5418882  67.5981331  55.2516985
  68.4055758  66.3426161  55.0851631  68.8910866  73.1880093  55.3656244
  67.8846788  73.1303978  56.0764122  69.2645931  74.3862772  54.8611116
  69.9863005  74.3573284  54.1551304  68.7885857  75.6875706  55.3234816
  67.6993513  75.6895351  55.2827549  69.2993927  76.0146856  56.8095446
  68.9817047  76.9977570  57.1570349  68.7905645  75.3470755  57.5048828
  70.7736921  75.9241581  57.0501089  70.9693098  75.8822823  58.1215954
  71.1942959  75.1430702  56.4167881  71.7719460  77.3452663  56.4252234
  71.1138248  78.7377739  57.4976206  70.3361273  79.2850256  56.9648838
  70.8260584  78.3644867  58.4804440  71.9709873  79.3791485  57.7025938
  69.1485643  76.7459917  54.2672205  70.2220154  76.5832329  53.6377621
  68.3107567  77.7552986  54.0288830  67.4348879  77.8039455  54.5294714
  68.7459230  78.8891602  53.1156301  69.3309498  78.5205078  52.2730494
  67.4121380  79.6050930  52.5798321  66.8036842  79.8629713  53.4466600
  67.6679897  80.9442139  51.8884516  66.8253803  81.4836979  51.4559317
  67.9849291  81.7390537  52.5636387  68.4566450  80.7504272  51.1614275
  66.6371155  78.6314678  51.6010475  66.8396759  78.8836050  50.5601311
  66.8956232  77.6069689  51.8687677  65.1529455  78.8071918  51.8416500
  64.9399137  78.4575081  52.8518200  64.6943235  79.7801781  51.6653824
  64.6352291  78.0700970  51.2278461  69.4913006  79.9497604  53.9128065
  68.8932753  80.6289864  54.7342777  70.8075714  80.0258541  53.8481045
  71.2283659  79.4332600  53.1467819  71.5561533  81.1554623  54.4548988
  71.2969780  80.9551620  55.4945183  73.0835676  80.9588909  54.2607450
  73.3166790  79.9487066  54.5973396  73.2259178  81.0270309  53.1822300
  74.0463352  81.9213963  55.0805950  73.9438963  82.9676437  54.7925234
  73.7663221  81.8210125  56.5954733  72.6797915  81.7972374  56.6790581
  74.1926813  80.8568859  56.8725729  74.3297434  82.6498795  57.0239973
  75.5211163  81.5640545  54.8512077  76.1489010  82.2415829  55.4299498
  75.7275867  80.5204391  55.0885534  75.7302856  81.8475437  53.8197088
  71.0283756  82.5487995  54.1306734  70.5454397  82.8156376  53.0779457
  71.3002110  83.4692383  55.0720692  71.7479801  83.1387424  55.9149122
  71.1740112  84.9245167  54.9844980  70.8829260  85.2124023  53.9742994
  69.9779558  85.3689098  55.8870173  70.1729107  85.0043774  56.8955851
  69.8228312  86.8884087  56.0261202  69.7313261  87.3657799  55.0504923
  68.9657688  87.1108246  56.6617918  70.7705116  87.2495937  56.4255428
  68.7529135  84.7652149  55.3854370  67.9338789  84.7986317  56.1038828
  68.3254480  85.2215862  54.4926310  68.8771105  83.7121868  55.1328325
  72.4635077  85.5882549  55.3836775  73.1323433  85.1820755  56.3212061
  72.7880764  86.8247986  54.8097610  72.3996925  87.2390652  53.4355736
  71.3969421  87.6221561  53.6248684  72.3913431  86.3605022  52.7904749
  73.4430504  88.3330917  53.0295706  72.9442787  89.0789032  52.4106359
  74.2665291  87.7936363  52.5616264  73.8863945  88.9042187  54.3610811
  73.1739378  89.6532440  54.7067404  74.9190283  89.2378998  54.2589760
  73.9083242  87.6757717  55.2937031  74.7596312  87.0296764  55.0793600
  73.9240694  88.1482124  56.7867613  72.9113531  88.5785294  57.3696470
  75.0799370  87.9238415  57.4500465  75.8541107  87.5902081  56.8937731
  75.3541327  88.1665134  58.9675570  76.3168192  88.5797119  59.2685747
  74.6929073  89.0040970  59.1896963  75.0978565  86.9658184  59.9400902
  75.4007530  87.1055412  61.1269760  74.5321655  85.8939075  59.3525457
  74.2420340  85.9113884  58.3852720  74.1937923  84.6389198  60.0593281
  74.0220785  84.9204636  61.0982466  72.8503418  84.0257740  59.5569468
  72.1303034  84.7056484  60.0123787  72.6700830  84.0733814  58.4830093
  72.5650454  82.5502777  59.9595356  73.2230186  81.9319057  59.3489695
  72.9285860  82.5018406  60.9859800  71.1577225  82.0871162  59.6936131
  70.6196594  82.3551369  58.6356688  70.5438137  81.4333248  60.6731844
  69.5770359  81.2055111  60.4900455  70.8655357  81.5648556  61.6214943
  75.3705597  83.7092781  60.0672960  75.7369566  83.3085823  58.9995193
  75.8434629  83.3742905  61.2143803  75.2486515  83.5720253  62.0063448
  76.8980837  82.3825359  61.4596939  77.7095222  82.7283859  60.8193398
  77.3813009  82.3647785  62.9422998  76.5806103  82.7024841  63.6002874
  77.9625225  81.0715961  63.4528542  78.7651491  80.7014465  62.8149748
  78.4185219  81.3193130  64.4113970  77.1527052  80.3487968  63.5520792
  78.4107161  83.3674908  63.0609083  78.0434084  84.2027760  62.7626133
  76.4885855  81.0277081  60.8531427  75.3418350  80.6045818  61.0924149
  77.3938513  80.2867985  60.2059174  78.2644987  80.7290649  59.9480963
  77.1283245  78.8824511  59.7488737  76.1063719  78.6549854  60.0521469
  77.1106291  78.9596033  58.2232666  76.3889933  79.6970224  57.8717709
  78.1252337  79.2557812  57.9568815  76.8044233  77.5637007  57.4907017
  77.4239302  76.8376493  58.0171585  75.3433657  77.2022200  57.8084230
  75.1519537  76.2813854  57.2574902  75.0992346  76.9699717  58.8450336
  74.6395063  77.8971434  57.3504257  76.9934225  77.5481796  55.9622478
  76.9412518  76.5052652  55.6496525  76.2827539  78.2443762  55.5168629
  77.9847288  77.8842068  55.6581116  78.1538105  77.8703785  60.3254175
  79.3232775  77.8625917  59.9509716  77.6399708  76.9240904  61.1691570
  76.4205074  77.0090151  61.8851137  75.5900240  76.6509962  61.2766504
  76.3279724  77.9930162  62.3447657  76.5309811  75.9914064  63.0367374
  76.0499954  75.0633192  62.7278662  76.0471916  76.3829279  63.9315891
  78.0034208  75.6705570  63.1714773  78.1790161  74.6664810  63.5576057
  78.4885168  76.4498615  63.7592459  78.4763050  75.8853579  61.7455149
  79.4882536  76.2898445  61.7668390  78.4968805  74.4603443  60.9768248
  77.4538803  74.0341949  60.4881287  79.6913671  73.8582182  60.8155918
  80.4470253  74.2875004  61.3301754  80.0228119  72.8207588  59.8625088
  79.0791702  72.3420477  59.6008205  80.6183147  73.5374546  58.6125374
  81.3461113  74.2823553  58.9343071  81.0620785  72.7429342  58.0126095
  79.5040464  74.2073631  57.7028084  78.7017012  74.6045160  58.3245945
  80.1826191  75.3476095  56.8560839  79.4169998  75.6607008  56.1462307
  80.5232811  76.2391806  57.3825359  80.9872913  74.8485994  56.3160801
  79.0377045  73.1437063  56.6785812  79.7095060  72.8316784  55.8789349
  78.5723925  72.2756910  57.1456289  78.1902599  73.5628366  56.1361170
  81.0334110  71.7433167  60.3765821  81.8845940  72.0555401  61.2036419
  80.9895420  70.5475044  59.8291779  80.1885414  70.2502680  59.2905140
  82.0521545  69.5269012  59.8550463  83.0181789  70.0312185  59.8312950
  81.9988728  68.7454605  61.1227894  82.6372814  67.8718948  60.9908485
  82.5340080  69.2418385  61.9323158  80.6334686  68.4369707  61.7344093
  80.1259804  69.3567944  62.0250845  79.9310923  67.8924513  61.1033201
  80.7061386  67.6483154  63.0286407  81.7935181  67.4069881  63.4920359
  79.6759129  67.0077181  63.5966635  79.8154926  66.4931488  64.4544744
  78.7133598  67.1559191  63.3290339  81.9573021  68.6840343  58.6181021
  80.9134579  68.6180735  57.9514265  83.0638218  68.0286217  58.3008242
  83.8355064  68.1004906  58.9484644  83.2724285  67.1899557  57.0745373
  82.3077869  66.7908478  56.7610550  83.9864063  67.8985929  55.9652948
  84.9976921  68.2172203  56.2180424  84.1546822  67.2276640  55.1228952
  83.3525085  69.1506481  55.4251432  82.2897911  68.9295864  55.5244446
  83.8037872  70.4786730  56.1040020  84.8760700  70.6474209  56.2032366
  83.3579731  71.3840771  55.6922007  83.4602833  70.3960228  57.1351576
  83.6772442  69.3035078  53.9620209  83.4788895  68.4675503  53.2912540
  82.9753208  70.0692272  53.6317539  84.6751213  69.7416878  53.9434814
  84.1672325  66.0233259  57.4995136  84.9274635  66.1469603  58.4665871
  84.1114998  64.9390221  56.7052698  83.6106873  65.0607872  55.8366728
  84.4001579  63.4996891  57.1305609  84.9794769  63.4967566  58.0538607
  83.0716515  62.7726889  57.4521828  82.3517132  62.7019358  56.6368341
  83.2903957  61.7482805  57.7535820  82.3837090  63.4194946  58.5685825
  82.7738857  63.0427790  59.8507977  83.6240482  62.4007416  60.0280142
  82.0306778  63.4848404  60.9838629  82.3157692  63.0752039  61.9416332
  80.9241295  64.3891144  60.8231688  80.4017353  64.8031044  61.6729450
  80.7588482  64.9272156  59.5657539  79.9398613  65.6191206  59.4356298
  81.4068413  64.4620752  58.4463120  81.2095165  64.9999809  57.5308228
  85.1524639  62.7646828  56.0458755  86.1557865  62.1535492  56.3287354
  84.6668339  62.8801775  54.7886610  83.8599491  63.4560823  54.5953465
  85.2364254  62.1010637  53.6896467  85.3582573  61.0631418  53.9994431
  84.2233849  62.0221806  52.5488806  83.4004688  61.5037346  53.0409431
  83.8539982  63.0054903  52.2577381  84.5527267  61.2032223  51.3128328
  85.5103302  61.6077948  50.3535318  85.6414413  60.5321598  49.5844936
  86.2460995  60.5666161  48.6902857  84.7579670  59.5992947  49.8937416
  84.5878029  58.7293625  49.4096327  84.0676880  60.0064993  51.0239601
  83.3065414  59.4789743  51.5796185  86.6017246  62.7291775  53.3025217
  86.6287327  63.9697647  53.1231022  87.6069164  61.9292355  53.0385733
  87.5360107  60.4579926  53.0698919  87.0079041  60.0818634  52.1936846
  87.0463562  60.1783895  54.0027142  88.9777851  59.9595928  53.2122850
  89.2573547  59.0124512  52.7509117  89.2669582  59.9292421  54.2627907
  89.7323418  61.1268330  52.6416063  89.8687363  60.9426689  51.5759706
  90.7127857  61.0904694  53.1164742  88.9757824  62.3764515  52.8321552
  89.1725922  62.9806280  53.7177849  89.1605377  63.3546495  51.6586637
  89.9666309  64.2757034  51.7611074  88.5080814  63.1205845  50.5054474
  87.8490353  62.3559570  50.5387211  88.6142159  64.0407753  49.3038797
  89.6894455  64.1567564  49.1677999  87.9765797  63.3716536  48.0621529
  87.0609665  62.8083324  48.2422018  87.7048492  64.2221355  47.4368954
  88.9142323  62.4748945  47.2924137  88.4799099  62.3168850  46.3052511
  89.8820782  62.9496813  47.1313047  89.1585636  61.1333990  47.8676033
  88.5983849  60.7049847  48.8573217  89.8625660  60.3870773  47.0795679
  90.0248814  59.4029617  47.2385406  90.4259872  61.0061693  46.5144300
  87.9289532  65.3963232  49.6107531  88.5372353  66.4520121  49.3839836
  86.7021847  65.3777504  50.1895618  86.2502289  64.4784307  50.2735615
  85.8663750  66.5814924  50.5274868  85.7907104  67.2137260  49.6428108
  84.5083714  66.1373615  51.0021925  84.6122742  65.6002283  51.9449520
  83.9079475  67.0386457  51.1257601  83.8085556  65.2959299  49.9723244
  83.7883663  65.9096193  49.0717220  84.3222237  64.3614864  49.7463703
  82.4202919  64.9266577  50.3159618  81.8219566  64.2728281  49.4419765
  81.9536304  65.0361633  51.4365578  86.6048717  67.4350405  51.6053486
  86.8126965  68.6248350  51.4575815  87.1270275  66.9183779  52.6975298
  86.9587421  65.9262323  52.7837372  87.9629993  67.5140476  53.6784697
  87.3748970  68.2458162  54.2323256  88.4409332  66.4331579  54.6408033
  88.7969303  65.5086374  54.1862440  89.5852661  66.9747019  55.5332470
  90.5202103  66.9276142  54.9748945  89.2817593  67.9078484  56.0078192
  89.7313404  66.2030125  56.2890673  87.2853565  66.0182810  55.6218052
  87.6185608  65.1361084  56.1684656  87.0679188  66.8200254  56.3275146
  86.3534737  65.8853722  55.0722313  89.1497612  68.1881285  53.0685949
  89.4908142  69.3762398  53.1994820  89.8485088  67.4269867  52.1888590
  89.5057297  66.4905882  52.0283508  90.9984303  67.9731560  51.4322805
  91.7218494  68.2910681  52.1830845  91.6849995  66.8752193  50.6016016
  91.6852474  66.0400438  51.3020182  91.0939884  66.5315056  49.7526836
  92.9830360  67.2928858  50.1893091  93.0507469  67.2756910  49.2318535
  90.6479454  69.2807245  50.6443119  91.3642788  70.2270126  50.8910322
  89.5952129  69.2424631  49.8242331  89.2464638  68.3062267  49.6761560
  88.9673519  70.3181171  49.1065216  89.6282864  70.5861521  48.2822466
  87.7052116  69.8118639  48.4119749  87.9314327  69.0021229  47.7182579
  86.9907093  69.3170404  49.0698004  86.8588448  70.8690643  47.6310253
  87.4592018  71.4250040  46.9108820  86.2067604  70.3548336  46.9250202
  85.8575535  71.9516373  48.6124563  84.3152332  71.0373116  48.4807396
  83.7580490  71.0228348  47.5440264  84.4893360  70.0132608  48.8110638
  83.6390591  71.6291380  49.0976906  88.6860752  71.5328264  49.9910069
  88.9111996  72.6739454  49.5765924  88.2461548  71.3591909  51.2427330
  88.2009315  70.4072094  51.5770721  87.8358078  72.4447346  52.1285677
  87.5038147  73.2386494  51.4595461  86.7393494  71.9787121  53.1275511
  86.9602013  71.1046839  53.7402534  86.4671326  73.1043434  54.1443920
  86.4949131  74.0669727  53.6338139  85.4386902  72.9622507  54.4763851
  87.2138023  73.1725168  54.9355507  85.4494667  71.8228912  52.3649693
  85.5286694  71.1206007  51.5351439  84.6511650  71.6580915  53.0886173
  85.2916527  72.7770853  51.8622637  89.0982533  73.0242205  52.8169203
  89.2588329  74.2492008  52.9046726  90.0826263  72.1814728  53.1974506
  89.8799706  71.2312078  52.9217148  91.4584255  72.6788187  53.5197067
  91.5141678  73.3817577  54.3508959  92.3447323  71.4871025  53.9155626
  92.4352169  70.7245731  53.1419611  93.3196449  71.9292641  54.1208315
  91.9779873  70.5886030  55.1244402  91.6143417  71.2747765  55.8893061
  91.1373138  69.9726009  54.8052216  93.1345177  69.7549915  55.5872583
  93.3656216  69.0142298  54.8217773  94.0480614  70.3241539  55.7593107
  92.7006149  69.0758085  56.8143272  92.6733875  69.6250725  57.6614857
  92.6572609  67.7738237  57.1464443  92.8505611  66.8601179  56.2508965
  92.7387428  67.0916414  55.2741718  92.7019596  65.8881855  56.4819145
  92.4013519  67.3570585  58.3507395  92.3981667  67.9642725  59.1578245
  92.4121380  66.3539600  58.4681034  92.0643520  73.5355616  52.3639774
  92.5952911  74.6939898  52.6466990  92.0073795  73.0701208  51.1352396
  91.5962410  72.1792698  50.8955574  92.3128986  73.8290977  49.9756193
  93.3688164  74.0807343  50.0747299  92.0940495  72.9778004  48.6761284
  92.6455402  72.0455217  48.7978506  91.0363007  72.8228426  48.4634113
  92.6918507  73.7436819  47.4596405  93.8468552  73.5543108  47.1844864
  91.8384266  74.3449783  46.6565514  92.3144436  74.6848822  45.8331680
  90.8640671  74.4293404  46.9087648  91.6603947  75.2147341  49.9051285
  92.3419571  76.1585617  49.5520067  90.3770256  75.3478336  50.1518393
  89.8729229  74.4843102  50.2943611  89.6475506  76.6223145  50.2424192
  89.8010063  77.1377897  49.2943478  88.2205009  76.2079954  50.3906679
  87.9602814  75.5747461  49.5425034  88.0274296  75.6158066  51.2851763
  87.2578716  77.3275471  50.4117012  87.3889160  78.0162096  51.2463713
  87.4374008  78.3453178  49.1624546  86.8222141  79.2390156  49.2670965
  88.4074402  78.8099003  48.9855814  87.2816467  77.7966881  48.2335567
  85.8706379  76.8447876  50.5648756  85.1797295  77.6878357  50.5608130
  85.6139183  76.2173653  49.7113371  85.7175255  76.2644053  51.4747143
  90.2350044  77.5438023  51.3741779  90.4708958  78.6857557  51.0339880
  90.4561615  76.9965792  52.5104713  90.3987026  75.9898186  52.4535608
  90.9421158  77.6325178  53.7547731  90.2997398  78.4625244  54.0489531
  90.8453083  76.5845585  54.9351120  91.2399006  75.6387091  54.5639372
  91.7791367  76.9760036  56.1386490  91.5147209  77.9262161  56.6026306
  91.5649128  76.2346411  56.9084501  92.8540421  76.8676090  55.9939957
  89.4354916  76.4722872  55.4348993  89.1616440  77.3588419  56.0068464
  88.7681484  76.3910818  54.5769024  89.0559578  75.1306725  56.2753487
  89.3458462  74.2407131  55.7167482  89.5841408  75.1295137  57.2288227
  87.9768658  75.1303244  56.4291716  92.4112034  78.1434155  53.6537170
  92.6358223  79.3259668  54.0372133  93.2371902  77.4204254  52.9641294
  92.8422642  76.4964962  52.8617287  94.5963287  77.7743244  52.5096321
  94.9997902  78.2058764  53.4256506  95.3287315  76.5010357  52.1017742
  94.6922302  75.8348513  51.5193892  96.2282658  76.7220259  51.5272236
  95.7711124  75.6933308  53.3673048  96.3917160  76.3651848  53.9602470
  94.8333454  75.4333353  53.8583088  96.5399456  74.3993902  53.1568813
  97.4070072  74.2492199  52.3132086  96.3965130  73.4182978  53.9603281
  96.8141270  72.5356150  53.7023067  95.7873726  73.5386753  54.7569227
  94.5629215  78.8673258  51.3883734  95.6136417  79.3934107  51.0326576
  93.3477402  79.3508482  50.9074211  92.5738335  78.9376307  51.4078474
  93.1316376  80.2361488  49.7259331  93.9679050  80.9268379  49.8340940
  93.0900097  79.4575310  48.4526014  92.3285389  78.6780071  48.4278345
  92.8686142  80.1268673  47.6212931  94.4787312  78.9081573  48.1891251
  95.4795647  79.5669508  47.8825140  94.6061325  77.6526356  48.5486841
  95.5490875  77.3057556  48.6517572  93.8093948  77.1185350  48.8649845
  92.0204449  81.2398529  49.9686766  92.1949959  82.2139549  50.7300282
  90.9382629  81.3158226  49.2357492  90.8364010  80.5651474  48.5677624
  89.8499203  82.3290157  49.3511105  90.3692532  83.2748890  49.5050716
  89.0640450  82.3816204  47.9509497  88.7410736  81.3534832  47.7875137
  88.0527592  82.7866936  47.9872894  89.7977924  83.0462551  46.8150616
  90.0840378  84.2744827  46.9818163  90.0764847  82.4190426  45.7650471
  88.8257217  82.1669579  50.5254269  87.8433323  82.9063511  50.6691790
  88.8537025  81.0454845  51.2093306  89.5286846  80.4067898  50.8136415
  88.2011795  80.7192326  52.4995327  88.2866383  79.6395397  52.6222134
  88.9131641  81.3833141  53.6498213  88.6286831  80.8991051  54.5840120
  89.9672318  81.1081696  53.6132431  88.5664177  82.8430748  54.0850878
  88.7835598  83.5370255  53.2730627  87.5208855  82.9372978  54.3784571
  89.3764019  83.2881165  55.2920294  89.2036533  82.6521778  56.1602640
  90.3881454  83.1584930  54.9077415  88.9789009  84.6517277  55.6006765
  88.3428097  84.7898006  56.3729620  89.3598461  85.7196522  54.9668264
  90.2839375  85.6964970  54.0699816  90.7045269  84.7789383  54.0340376
  90.4419327  86.4769745  53.4486961  88.7802696  86.8721008  55.0973892
  88.0087471  86.8912315  55.7489157  89.2791367  87.6671600  54.7244167
  86.6408062  80.8560562  52.5418425  86.0570335  81.1857891  53.5735464
  85.9564495  80.6228542  51.4245892  86.4728451  80.5824089  50.5575228
  84.6008873  81.1478138  51.2734890  84.0505791  81.0538006  52.2096634
  84.6134663  82.5662518  50.6130219  84.9694157  82.5800323  49.5828724
  83.2359409  83.3436966  50.6734467  83.3043194  84.1850758  49.9838686
  82.4411392  82.6488686  50.4021454  83.0477715  83.7697315  51.6589308
  85.4402351  83.3661747  51.4601898  86.3299561  83.2742977  51.1115408
  83.6760616  80.2738762  50.4056931  83.9878178  79.8990297  49.2755508
  82.4469185  79.8928022  50.9240389  82.2613335  80.2173615  51.8622875
  81.4869785  79.0409565  50.2548027  82.0552158  78.3937883  49.5866823
  80.7322121  78.0366468  51.2180090  79.9607229  78.6762285  51.6467619
  80.1419353  77.3019505  50.6703854  81.6566181  77.3573160  52.1764898
  82.3127174  76.1528206  51.7976761  82.1549606  75.5880833  50.8907127
  83.1286907  75.5096722  52.7330160  83.5932541  74.5543766  52.5381184
  83.3118153  76.0028172  54.0308046  83.8362503  75.4620266  54.8046970
  82.6962566  77.2096491  54.3934774  82.6526260  77.6899719  55.3598022
  81.9004822  77.8909302  53.4297800  81.3648129  78.7786436  53.7321472
  80.4593849  79.7528458  49.3403244  80.0537968  80.8895969  49.6429825
  80.0461769  79.1879320  48.1969070  80.4526424  78.2884073  47.9830408
  78.7398577  79.3454123  47.6149559  78.2615662  80.3240395  47.6553249
  78.8418627  78.9213705  46.1601591  79.2725372  79.7328997  45.5736065
  79.3693018  77.9862213  45.9720087  77.8219652  78.8493061  45.7823706
  77.7106476  78.5052919  48.4503603  77.4026060  77.3925114  48.1194687
  77.1676350  79.1328192  49.5011473  77.3083925  80.1209450  49.6557379
  75.9292650  78.6706924  50.0367165  76.0166407  77.5884151  50.1323891
  75.6808329  79.1101933  51.4603376  75.2622890  80.1162720  51.4332151
  74.5024157  78.2835722  51.9886303  73.5151196  78.5559225  51.6155672
  74.6829367  77.2492695  51.6958475  74.4480419  78.2394934  53.0763817
  76.8353271  78.9849901  52.4689102  77.3481464  78.0246687  52.4149418
  77.5649738  79.7049189  52.0982027  76.4078856  79.2052126  53.4471226
  74.7672462  78.8182545  49.0352345  74.1309929  79.8196077  48.9468288
  74.4771719  77.7891541  48.2654572  75.1120377  77.0169878  48.1212044
  73.2819462  77.8108501  47.4402332  73.2388306  78.7074852  46.8219376
  73.3243036  76.5784693  46.5029001  73.3603477  75.6623888  47.0924759
  72.3812532  76.5863705  45.9563637  74.5677328  76.5291071  45.5319691
  75.4255486  76.3906908  46.1900663  74.4205284  75.3353024  44.5043087
  75.3939819  75.3386879  44.0139246  74.3543816  74.3440390  44.9527740
  73.5332441  75.4978848  43.8924313  74.7930336  77.8191853  44.7352982
  73.9071608  78.0858183  44.1588974  74.9362230  78.6123276  45.4691410
  75.6141949  77.6534843  44.0379190  71.9704390  77.8583479  48.3044529
  71.9978476  77.3824501  49.4374990  70.9146404  78.4807348  47.7411938
  71.0810423  78.8253450  46.8064976  69.5366859  78.4666586  48.2393837
  69.6011877  78.0783939  49.2558432  68.9712381  79.9305964  48.1732702
  68.8367176  80.2830219  47.1506262  67.9846573  79.9761105  48.6344528
  69.5770121  80.5873871  48.7975693  68.7373972  77.4467945  47.4156237
  67.8598261  77.8367662  46.6183710  69.0109444  76.1685753  47.5537682
  69.5972967  75.9240246  48.3389330  68.5604239  75.0344992  46.6676092
  69.0911150  75.2123308  45.7322788  69.0176535  73.6276102  47.2902966
  68.6502457  73.7086058  48.3133078  68.4628010  72.8100920  46.8299675
  70.4697275  73.2185650  47.1414137  71.0956621  73.0193996  45.9054375
  70.6037617  73.2403803  44.9697018  72.4486160  72.6843405  45.8312511
  72.9045820  72.5599766  44.8601532  73.1616306  72.5939369  47.0280790
  74.4134283  72.1154165  46.9439507  74.7012520  71.9959354  46.0359430
  72.6333761  72.8250551  48.2734680  73.1688738  72.7737951  49.2099619
  71.2613773  73.1965065  48.3188581  70.8144474  73.4499693  49.2688131
  67.0178986  74.9897814  46.3806915  66.1675739  74.8509359  47.2621155
  66.6035509  74.9898338  45.1048136  67.3172998  74.9680328  44.3905401
  65.2686167  74.5588112  44.6654987  64.5224237  74.9086046  45.3789043
  64.9737978  75.2554750  43.3102989  63.9687014  74.9469471  43.0227280
  65.1905966  76.3202763  43.3957481  65.8815241  74.8511648  42.2800779
  65.6026363  73.9677954  42.0281219  64.9587488  73.0763102  44.5307970
  63.8350487  72.6093483  44.7317553  66.0605145  72.3231173  44.5122051
  66.8842173  72.8233004  44.2098331  66.0902977  70.8347797  44.8488665
  65.4364252  70.6666851  45.7046080  65.6331635  70.0985575  43.6575794
  64.6710777  70.5087948  43.3506632  66.3120317  70.2003145  42.8108883
  65.3003550  68.7373209  43.9851141  66.1024380  67.9811954  44.5791769
  64.2633247  68.1183863  43.4791994  64.2188501  67.1309710  43.6868858
  63.5365772  68.6386967  43.0088615  67.4734163  70.4397869  45.2217960
  68.3492327  70.3584242  44.3566322  67.8377104  70.3714180  46.5344238
  67.0919085  70.5684996  47.1863747  69.0374994  69.8307896  47.0886230
  69.8025131  70.4386425  46.6055346  69.0869045  70.1658630  48.5577631
  68.9989567  71.2379408  48.7338686  68.1612968  69.3307304  49.3603802
  68.3727789  69.4386578  50.4242134  67.1213436  69.5117092  49.0886450
  68.4056568  68.3048487  49.0847921  70.5130863  69.7805929  49.0677166
  70.8190823  70.3290129  49.9586153  70.6644583  68.7388277  49.3504143
  71.3259649  69.9764919  48.3684635  69.3466425  68.3697414  46.7102575
  70.5172348  68.1630802  46.4370155  68.2815218  67.5310612  46.4990139
  67.3340178  67.8706932  46.5826035  68.5965967  66.1550856  46.0300064
  69.3369389  65.7055140  46.6917276  67.4088287  65.1782990  45.9111881
  66.8059874  65.4675341  45.0503588  67.9035759  64.2726851  45.5602074
  66.6280890  64.9032640  47.1929121  65.6289482  65.3389359  47.1933222
  66.2393761  63.8864088  47.2477007  67.2250319  65.1691055  48.5302591
  68.1304455  64.5334435  49.0195560  66.5404558  65.9767103  49.3313599
  66.8697453  66.0145760  50.2854252  65.7649326  66.5246820  48.9872837
  69.2667198  66.2487268  44.6539593  70.3311014  65.6308794  44.5780993
  68.8122177  67.0505428  43.6768198  67.8702545  67.3688650  43.8542175
  69.4354773  67.2643852  42.3987293  69.7544098  66.3360405  41.9248438
  68.3915758  67.7271986  41.3732719  68.2047367  68.7256289  41.7686510
  68.9492941  67.8362465  40.4431295  67.0909739  66.9616747  41.2836313
  66.5218735  66.9706059  42.2132254  66.4482498  67.4953747  40.5835104
  67.1467972  65.5266190  40.8841372  66.0995197  64.8419523  40.8476973
  68.2351446  65.0260401  40.5565739  70.6115103  68.2401514  42.3594522
  71.3848066  68.2048607  41.3751078  70.7415581  69.0269756  43.4655619
  70.0138140  68.7944937  44.1262007  71.6866636  70.0811911  43.7724113
  71.3998842  70.4657221  44.7511816  73.1282091  69.5239115  43.7610197
  73.3438683  69.3040371  42.7154350  73.8414621  70.3001451  44.0382051
  73.3070564  68.3230591  44.6407127  72.8717566  68.5323429  45.6178617
  72.7854395  67.4640894  44.2185926  74.7279501  67.8270769  44.8234844
  75.2492523  67.5288486  43.9138699  75.3859091  68.5506296  45.3048086
  74.7429276  66.6226053  45.6315851  74.0266848  66.5323591  46.3379526
  75.5928183  65.6422567  45.8551836  76.7652225  65.5699110  45.2667856
  76.9326830  66.0728455  44.4070721  77.4250937  64.8338938  45.4740572
  75.3404236  64.7093725  46.7079878  74.4618225  64.5572615  47.1823645
  76.1015320  64.0456200  46.7232704  71.4996433  71.2707710  42.8258896
  72.4455976  71.7631435  42.3111677  70.2209044  71.7759228  42.6999807
  69.4672728  71.3530827  43.2228041  69.8988199  72.8639793  41.7345381
  70.8076620  73.1461859  41.2030554  68.8636017  72.3777771  40.7064199
  68.0565166  71.9638109  41.3108683  68.4601450  73.1983757  40.1131773
  69.5385933  71.2771511  39.8602223  70.2792072  70.6720591  40.3831577
  68.7032270  70.6133509  39.6374440  70.0171280  71.6425562  38.4682846
  71.1487198  72.1489573  38.2822824  69.3092728  71.2165213  37.5442338
  69.3919039  74.1244602  42.4057722  68.7142658  74.0884638  43.4445333
  69.9122763  75.3433514  42.0069742  70.4749870  75.3145266  41.1687469
  69.6922922  76.5991879  42.6619530  68.6771488  76.5683699  43.0577230
  70.5544662  76.7062664  43.9609051  70.6207752  75.7518148  44.4831514
  71.5627003  77.0038509  43.6727953  70.2054930  77.4466515  44.6807289
  69.8980808  77.6846457  41.5906477  70.9337425  77.8402424  40.9956741
  68.9008570  78.5923386  41.5635920  68.1872940  78.5318565  42.2758245
  69.0760040  79.7830343  40.7969093  69.6326971  79.5470285  39.8899913
  67.6264858  80.2495193  40.4328966  67.0893097  79.4599152  39.9074745
  67.0317554  80.4168797  41.3308907  67.6164579  81.4945984  39.5280242
  66.6394806  81.9373608  39.3341827  68.1436491  82.2419453  40.1210165
  68.2927465  81.4197922  38.1692505  68.2977772  80.3205585  37.5239301
  68.8240957  82.4722958  37.7637482  69.7640848  80.8719730  41.6637373
  70.2964258  81.8058014  41.1165237  69.7775221  80.7317829  43.0240679
  69.3534088  79.8687410  43.3329201  70.1845455  81.7578888  43.9816380
  70.7804155  82.4697685  43.4104395  68.8521004  82.3485851  44.6151876
  68.2687187  81.4804840  44.9220705  69.0000486  82.8927326  45.5479860
  67.9431629  83.1527042  43.6785698  66.6545343  82.7439022  43.3410501
  66.2889576  81.8587208  43.8402510  65.7985401  83.4492874  42.4910975
  64.8467207  83.0798531  42.1390247  66.2575102  84.7066593  41.9876814
  65.6392717  85.2346420  41.2767601  67.4905014  85.1849079  42.3780251
  67.8943157  86.0881424  41.9450188  68.4274387  84.3754292  43.1673813
  69.4200754  84.7848034  43.2835340  71.0391188  81.2239552  45.1646042
  71.1359262  80.0266171  45.4259968  71.8150997  82.0855331  45.8050346
  71.8249035  83.0406857  45.4768896  72.5014210  81.7062473  47.1111298
  71.7817497  81.1642361  47.7246284  73.2187033  80.9066486  46.9260406
  73.2007122  82.9145241  47.8344631  72.7803183  84.0670300  47.6506805
  74.1194487  82.6695442  48.7429380  74.3649197  81.7037392  48.9074087
  74.9114084  83.7030506  49.3555069  74.9653244  84.4977570  48.6114359
  74.1343737  84.3002033  50.5336380  73.3491421  84.8524666  50.0173807
  73.5356188  83.3202267  51.5380335  74.2855835  82.7571964  52.0936012
  72.9789066  83.7446690  52.3735142  72.8931665  82.6585007  50.9571028
  74.9046087  85.2760029  51.2326479  75.3068638  85.8209801  50.5523586
  76.3934708  83.2294178  49.6520472  76.6855574  82.0236301  49.9317598
  77.3428249  84.1784954  49.6639776  77.0964718  85.1275539  49.4217062
  78.6884260  83.8262463  50.1021099  79.0679884  82.8802586  49.7159147
  79.7717810  84.7922421  49.5306587  80.7561588  84.5937252  49.9545717
  79.9821377  84.6090031  48.0146694  79.6477365  83.6346626  47.6583815
  79.3081999  85.2550888  47.4520969  81.0054302  84.9382401  47.8341913
  79.4343281  86.1565590  49.6762800  80.0400734  86.6461468  49.1150570
  78.7897968  83.7131596  51.6401005  78.1315136  84.5026493  52.3421860
  79.5477581  82.7685547  52.1672106  79.9314356  82.0667648  51.5504551
  79.8830366  82.6792908  53.5616016  79.6054125  83.5997581  54.0751982
  79.1080666  81.4820099  54.2257977  79.4673729  80.5589676  53.7708378
  79.2657614  81.5220833  55.3035831  78.0571651  81.6799450  54.0147829
  81.3949966  82.4504375  53.7721062  81.9473934  81.4730358  53.2739544
  81.9565678  83.3457279  54.4888544  81.3035488  83.8976574  55.0264883
  83.4318161  83.5338497  54.8390818  84.0493488  83.1260967  54.0387678
  83.7319279  85.0482845  54.9193525  83.6949348  85.4797554  53.9190722
  82.9822350  85.5319309  55.5455732  85.1643372  85.2671146  55.5014324
  85.2225590  84.6464252  56.3955545  85.9805393  84.8196220  54.9342871
  85.5497932  86.7031288  55.9727049  86.5252495  86.7921162  56.7360783
  84.8767757  87.6990509  55.5859995  83.7237740  82.6972198  56.1230469
  83.0549717  82.8575230  57.1560097  84.7440147  81.8159962  56.0882616
  85.2525902  81.6625881  55.2292395  85.2629280  81.0735321  57.2755909
  84.3936253  80.5594063  57.6855564  86.2882996  79.9763107  56.8861437
  87.0423889  80.5337238  56.3304996  86.9717598  79.2561626  58.0677080
  87.4259567  80.0421810  58.6710215  86.1572933  78.7017727  58.5339594
  87.7406693  78.5891485  57.6778746  85.5512047  78.9870262  55.9609413
  84.8863602  78.2908010  56.4721680  85.0061512  79.5227957  55.1837873
  86.4028454  78.0011845  55.3019810  87.2624111  78.5233116  54.8817110
  86.8104553  77.2782373  56.0085964  85.7459927  77.5462961  54.5605421
  85.8740902  82.0318222  58.2794666  86.5534401  82.9628372  57.8964710
  85.6059265  81.8589687  59.5776224  84.8541355  81.2351894  59.8341417
  86.1303711  82.6791763  60.6472254  87.0228481  83.1891346  60.2845669
  85.1339149  83.8003826  60.9421158  85.7600021  84.6487236  61.2185812
  84.5976925  83.9536762  60.0055981  84.1260719  83.3914375  61.9300032
  84.4077396  83.4039688  63.2773113  85.3879166  83.7310314  63.5914755
  83.5130215  82.9251099  64.2621660  83.7356281  82.8928185  65.3184843
  82.2572899  82.4651623  63.9021397  81.3452816  82.0564079  64.8246050
  81.6917992  81.8655491  65.6993008  81.9611168  82.5871086  62.5286722
  80.9035587  82.4921036  62.3313475  82.8851986  83.0250645  61.5331411
  82.5485325  83.0237484  60.5069590  86.7204762  81.8554306  61.7737246
  87.7476978  82.2920227  62.3239326  86.2854099  80.5695248  61.8698978
  85.5575085  80.2597713  61.2419558  86.9033432  79.5072365  62.7575445
  87.8863144  79.7770119  63.1436634  85.8955002  79.2432690  63.8783312
  86.2498188  78.5165024  64.6093464  85.5795860  80.1709652  64.3554878
  85.0587368  78.7770700  63.3581638  87.0669937  78.1287432  61.9541931
  86.2051105  77.7803135  61.0957766  88.1811428  77.4715042  62.2286892
  88.6258221  77.7842045  63.0799103  88.4508896  76.1127043  61.6636992
  87.4550533  75.6695461  61.6579533  89.0392971  76.1954880  60.2644396
  88.2862282  75.9455776  59.5170879  89.2751217  77.2529507  60.1450300
  90.2734756  75.3807259  59.7989750  90.2285099  74.0357304  59.5032406
  89.3860149  73.4182596  59.7777081  91.3532734  73.2775736  59.2681599
  91.2476063  72.2090054  59.1524124  92.6220226  73.9040756  59.1115570
  93.7114429  73.2388306  58.7414408  93.6708164  72.3196793  59.0155029
  92.7012539  75.2800417  59.3774271  93.6552334  75.7819510  59.3109512
  91.5843010  76.0009623  59.7433138  91.7373753  77.0458889  59.9693727
  89.4495392  75.2786875  62.5633907  90.4825687  75.7704639  63.0157900
  89.2042923  73.9660358  62.7265692  88.3423996  73.6663342  62.2936392
  90.0573254  73.0395126  63.4947586  91.0661983  73.4518766  63.4797096
  89.5180702  72.9133081  64.9068451  88.4305191  72.8412724  64.8942614
  89.8100376  71.9525290  65.3308153  89.9098301  74.0533018  65.8817768
  90.8804893  73.8625717  66.3395357  89.6936321  75.0335646  65.4570007
  88.9861202  73.7716389  67.1089792  89.1632652  74.5595884  67.8409958
  87.9375172  73.7796497  66.8115377  89.1857433  72.4350595  67.8378725
  88.6045837  71.6830349  67.4960804  89.6713638  72.2392988  69.0249825
  89.4568348  71.0776377  69.5723820  88.9821720  70.3565407  69.0481520
  89.8838806  70.8462191  70.4579163  90.3070927  73.0347157  69.7573566
  90.3150082  74.0274811  69.5717335  90.6916904  72.7273607  70.6392384
  90.1240540  71.7537260  62.6632643  89.2494583  71.3261366  61.9217110
  91.2348747  70.9580708  62.6122904  91.1913776  70.2149582  61.9296551
  92.4374676  70.9454250  63.4569979  92.7231598  71.9730425  63.6817074
  93.7028122  70.3337574  62.8845835  94.5177650  70.7555246  63.4728527
  93.6467171  69.2506266  62.9930925  93.9443398  70.9207106  61.4971828
  93.6325264  71.9637251  61.5518808  95.0305748  70.9110641  61.4072084
  93.3106041  70.1304817  60.2913332  93.6523533  70.4057884  59.1359186
  92.4045181  69.2670107  60.5342770  92.2346973  70.1957750  64.7973585
  92.7091980  70.6810760  65.8251095  91.3351154  69.1886902  64.7968483
  90.8358097  68.9428520  63.9540148  90.7821655  68.4936762  65.9653139
  90.6459236  69.2888737  66.6982508  89.4688416  67.8349686  65.4261780
  89.6811295  67.4420643  64.4318628  89.3305683  66.9713068  66.0766172
  88.2717323  68.7103510  65.5559397  88.4259129  69.7164965  65.1660776
  87.4374008  68.3211374  64.9723959  87.8594208  68.7598991  67.0158911
  87.9929066  69.7610617  67.7300549  87.2658062  67.7855635  67.5066471
  91.6819859  67.3932791  66.5778542  91.3365555  66.8474245  67.6118374
  92.6866436  66.9206047  65.8137608  92.9694557  67.3554087  64.9471235
  93.4057331  65.6044865  65.9633923  93.4163094  65.3502941  67.0232916
  92.6517105  64.4843435  65.2308702  93.4304523  63.7772131  64.9451685
  91.9567299  63.9354229  65.8663034  92.0112896  64.7873878  63.9130354
  91.9770145  63.8481903  63.3609200  90.9516239  65.0295067  63.9943075
  92.5590515  65.9191656  63.0278349  93.7155342  66.2831497  63.0102110
  91.7218876  66.5469456  62.2333574  92.1343803  67.2684574  61.6594458
  90.7794952  66.2035370  62.1147871  94.9124718  65.6465244  65.6999063
  95.5163765  66.5928984  65.1619196  95.4945755  64.5298767  66.1363554
  94.9894142  63.9101696  66.7535162  96.9976807  64.5150757  66.1944008
  97.3567104  65.2755547  65.5009556  97.3360729  64.9822998  67.5564146
  96.9374275  65.9737015  67.7715826  96.8891716  64.3723726  68.3415031
  98.8842964  64.9475813  67.7529860  99.3509483  64.4524002  68.7702227
  99.6915054  65.2882385  66.8958569  97.5774574  63.1893349  65.7494736
  98.0727196  62.4110651  66.5701628  97.5439644  62.8191471  64.4419241
  97.1531296  63.5020018  63.8086319  97.6762867  61.5230656  63.8651609
  97.5527287  61.7526197  62.8067923  99.1237926  60.9804773  63.9429426
  99.3246078  61.0733557  65.0102520  99.0674400  59.9442768  63.6094570
 100.1090240  61.8759012  63.2153702 100.4472256  63.1777477  63.5906935
 100.1083374  63.5507536  64.5459080 101.1733437  64.0521908  62.7547884
 101.4454651  65.0665474  63.0066299 101.8523026  63.4942389  61.6246223
 102.6689243  64.0695715  61.2141037 101.5667343  62.1408129  61.2604237
 102.1184349  61.5760803  60.5234671 100.6243515  61.3411951  62.0121908
 100.3335381  60.3399992  61.7303467  96.5091610  60.5747223  64.3431377
  96.6394329  59.4071007  64.6990633  95.2814484  61.1512852  64.2960978
  95.1582718  61.9432974  63.6815691  94.0543747  60.5820894  64.7880983
  94.2347431  59.7127151  65.4203606  93.7186623  61.3972759  65.4290915
  92.8966713  60.2845907  63.7917233  93.1800747  60.0068569  62.6226091
  91.6052532  60.3577805  64.1994667  91.3918877  60.6980133  65.1261902
  90.4414082  60.1326704  63.3056736  90.6689453  59.2868090  62.6569510
  89.1570187  59.6379280  63.9932299  88.5122395  60.4769707  64.2546940
  88.3626938  58.7096262  63.1198645  88.7429714  57.7008963  62.9587746
  87.3235130  58.6833429  63.4477472  88.3959961  59.1487741  62.1227980
  89.1943836  58.9323330  65.3929996  89.7022343  59.6367168  66.0518169
  88.1713200  58.8108110  65.7489109  89.9158955  57.6043034  65.4271126
  89.4753647  56.9192696  64.7027111  90.9328175  57.7991104  65.0864792
  89.9345207  57.2029066  66.4403439  90.2618217  61.3763189  62.5312424
  89.9209499  62.4757481  63.0184793  90.3867722  61.2360954  61.2315416
  90.5045319  60.3370380  60.7866573  90.2237320  62.4106836  60.2526569
  90.9171963  63.1843615  60.5822325  90.5930424  61.9147396  58.8696766
  91.6165257  61.5436268  58.9232397  90.0299835  60.9943867  58.7146854
  90.3570747  62.9189491  57.6985645  90.1648140  62.3412752  56.7944479
  89.4527626  63.4887695  57.9121447  91.5425682  63.9287710  57.6053095
  91.9791031  64.4512701  58.6984921  91.9638252  64.2366076  56.4673853
  88.8663578  63.0271053  60.3333521  87.8364182  62.3239088  60.3254604
  88.7920475  64.3662167  60.2689600  89.6457195  64.8543501  60.0386143
  87.6395226  65.2297783  60.5436802  87.0044804  65.1047468  59.6666431
  86.8088722  64.9336910  61.8273783  86.6096973  63.8626003  61.7927647
  87.6051235  65.2137136  63.1457090  87.4214172  66.2377501  63.4708309
  87.3530960  64.4496250  63.8810682  88.6749268  65.0985909  62.9714203
  85.4459763  65.7248020  61.8102217  85.3995323  66.7946339  62.0136929
  85.0456619  65.5384445  60.8136702  84.5580864  64.9356651  62.8196239
  84.3389416  63.9595366  62.3869085  85.0596714  64.8331976  63.7819195
  83.5915852  65.4232216  62.9472208  88.0731869  66.6981030  60.4724407
  89.1420555  66.9984245  61.0161018  87.2778893  67.5980806  59.8642206
  86.4394093  67.2783756  59.4007063  87.4711037  69.0628719  59.9893522
  88.2247448  69.2524433  60.7536840  88.0324459  69.6366835  58.6325169
  87.4318790  69.2843199  57.7939129  87.8751945  71.1642170  58.4268618
  88.0385685  71.6140509  59.4061804  88.5550690  71.6404438  57.7204037
  86.8853664  71.3721943  58.0205536  89.5054722  69.4418955  58.3219099
  89.7278214  68.3817863  58.2001305  89.8964596  69.9110460  57.4190617
  90.0095177  69.8231888  59.2099762  86.2490082  69.7673512  60.4630947
  85.1924229  69.3170691  60.1237297  86.3409996  70.8678055  61.2562418
  87.2495556  71.2290430  61.5094805  85.2161407  71.4969778  61.9452286
  84.3017769  71.1708212  61.4495993  85.1617336  71.0958338  63.4174538
  85.9830570  71.5034628  64.0068436  84.3455219  71.5701151  63.9623928
  85.0927925  69.5911074  63.7060452  84.2835140  69.1843224  63.0996704
  86.0384464  69.1510773  63.3894730  84.7507477  69.2204332  65.1530027
  85.5027485  69.7454596  65.7420158  83.8351440  69.7546196  65.4068184
  84.5680809  67.6906538  65.4332972  83.6538696  67.4418259  64.8943901
  85.4161930  67.1152544  65.0621843  84.3917370  67.4447250  66.8869495
  84.1413784  66.4817476  67.0604563  85.2733612  67.5566196  67.3668575
  83.6340332  68.0459070  67.1777582  85.3595638  73.0104971  61.7520237
  86.4243317  73.5116291  61.8948030  84.2999172  73.6943150  61.3784742
  83.4287357  73.1865549  61.3208818  84.3239117  75.0795317  60.7979155
  85.2656555  75.4941225  61.1575603  84.4199848  74.9889565  59.2263079
  83.7507343  74.2118502  58.8571024  84.0965366  76.2678242  58.4743547
  83.0167866  76.4134884  58.4420586  84.4800472  77.1877670  58.9156294
  84.3364143  76.0630083  57.4309921  85.8075809  74.5660162  58.7332201
  86.2082958  73.7075996  59.2723513  85.6327438  74.2548037  57.7033281
  86.4072418  75.4740572  58.7962294  83.1431198  75.9047318  61.2247324
  82.0149612  75.4218864  61.2006235  83.3983421  77.1735907  61.5408945
  84.3790722  77.4094391  61.4893818  82.3311520  78.2008171  61.6974926
  81.3743305  77.7525139  61.4298677  82.1361065  78.6965084  63.1247807
  82.8543186  79.4476223  63.4535503  81.1157227  79.0796757  63.1346703
  82.1050739  77.5762129  64.2199326  81.2187099  76.9508123  64.1134596
  82.9913521  76.9467258  64.1402388  81.9924545  78.2164288  65.6115007
  81.2114048  78.9725685  65.6909752  81.8838692  77.4905396  66.4173508
  83.3360958  78.8494158  66.0512066  84.2433739  78.2454062  66.0618114
  83.5898876  79.7240400  65.4522753  83.2594872  79.3094397  67.4747038
  82.6313210  80.0786781  67.6585388  83.0520725  78.5088778  68.0545187
  84.1781616  79.6783924  67.6747417  82.6398945  79.2946482  60.6913090
  83.7177563  79.8431587  60.6235552  81.5964699  79.6246147  59.9191141
  80.8423615  78.9602757  59.8187447  81.5843391  80.6645012  58.8721037
  82.5418282  81.1786079  58.9557314  81.3884258  79.9669313  57.5927639
  81.3474751  80.6074810  56.7117882  82.1494198  79.2062569  57.4184799
  80.4200459  79.4667006  57.5827503  80.5093670  81.6681004  59.3030024
  79.8084450  81.4350986  60.2762270  80.3789616  82.7317142  58.5062313
  80.9273720  82.7763462  57.6592636  79.3417788  83.8123035  58.5992670
  78.4211111  83.4236813  59.0345240  79.7528934  84.9681568  59.4967604
  79.8606014  84.5200539  60.4845428  81.0225868  85.7075214  59.0040207
  81.6617203  84.9443436  58.5599947  80.7939816  86.2984180  58.1170750
  81.6036320  86.2136841  59.7749281  78.5672808  85.9957027  59.6097422
  78.7041235  86.6930294  58.7832355  77.6664352  85.3820515  59.6114922
  78.5875225  86.7744064  60.9067345  78.0196190  87.6990128  60.8033371
  78.3290720  86.0629749  61.6910648  79.6489620  86.9846439  61.0380554
  79.0371799  84.4072151  57.2141171  79.9516439  84.5850468  56.3552237
  77.7038860  84.5253658  56.9902658  77.1580553  84.1169262  57.7354860
  77.1700907  84.9324894  55.6937504  77.5134420  84.1768646  54.9871731
  76.0809040  84.9587727  55.7268000  77.6317549  86.3434601  55.2572727
  77.5085783  87.2066116  56.1355877  78.0274868  86.6094685  53.9867878
  78.0037880  85.8217239  53.3551216  78.4434891  87.9615784  53.4819126
  78.2914686  88.6728668  54.2937326  79.8904276  87.8027248  53.0360985
  79.9469709  87.0754051  52.2262144  80.2161789  88.7543201  52.6160383
  80.9249210  87.3922729  54.0609169  80.6058502  86.3676548  54.2518139
  81.9008064  87.5896931  53.6173296  80.7925320  88.2869339  55.2897882
  80.5605125  89.3078041  54.9863291  79.9389410  87.8824425  55.8337355
  82.0685387  88.3694077  56.0552359  82.8842926  87.9135895  55.6719923
  82.2675800  88.7506390  57.3305035  81.2539387  89.2743587  57.9929543
  80.4326439  89.5325756  57.4648523  81.3743687  89.6906662  58.9052582
  83.3683872  88.5564232  57.9921961  84.1671753  88.2665157  57.4462986
  83.3968735  88.4603691  58.9972115  77.6344109  88.5761356  52.2828770
  77.0656109  89.6031189  52.5095081  77.5376606  88.0170441  51.0671377
  77.9552460  87.1314049  50.8194208  76.8275023  88.6746407  49.9616575
  76.3470793  89.5750427  50.3445005  77.8884220  89.1972256  48.9502096
  78.2784891  88.4044743  48.3118534  77.2662592  89.8567867  48.3452368
  78.9307261  90.0683308  49.5706797  78.4798861  90.8827782  50.1377058
  79.5571327  89.4209194  50.1843309  79.9188948  90.6688309  48.6085701
  81.0475349  90.2365494  48.5308695  79.6644163  91.8311977  48.0698776
  80.3892326  92.3438835  47.5883150  78.7349463  92.2247887  48.1054592
  75.7295799  87.7488518  49.3446398  75.9576845  86.5886497  49.1244078
  74.5239973  88.2665920  49.0683317  74.3854904  89.2156124  49.3849993
  73.5903215  87.7285194  48.0876446  73.0748224  86.8876743  48.5516977
  72.5692177  88.8458824  47.8251600  73.2031727  89.6273422  47.4062014
  71.9511557  88.5197735  46.9886494  71.7268181  89.2276001  49.0749121
  71.0067272  88.4516716  49.3347073  72.2811222  89.4036770  49.9967861
  70.8376884  90.5024719  48.7895727  70.2574444  90.6798840  49.6950865
  71.5564919  91.3201427  48.7363720  69.8776197  90.4270267  47.6865292
  69.0988874  89.8017883  47.8374052  69.9321747  91.2557411  46.6918325
  70.7211542  92.3267460  46.5853024  71.3204002  92.6828480  47.3161793
  70.5471182  92.8865337  45.7628393  69.3175745  91.0320473  45.5708361
  68.8096666  90.1632881  45.4848671  69.4080257  91.6761494  44.7981453
  74.3048382  87.3227024  46.7662621  75.3341579  87.9580593  46.4581585
  73.8339949  86.2844849  46.0053921  73.0385494  85.7824230  46.3732147
  74.2245007  86.0659504  44.6090174  74.2746210  87.0994091  44.2661381
  75.5844307  85.3346539  44.4470024  75.7525158  85.3198624  43.3701420
  76.3767624  85.9636307  44.8528337  75.7564878  83.9319515  45.0007915
  75.0410271  82.8197002  44.5063400  74.2538166  82.9714584  43.7826920
  75.2832651  81.5276623  45.0439119  74.6756649  80.6985664  44.7125292
  76.2562323  81.4570045  46.0974598  76.5431595  80.5403614  46.5912676
  77.0852137  82.5212765  46.4489269  77.9162025  82.3798466  47.1240997
  76.7834711  83.7825298  45.9656811  77.4501705  84.5602798  46.3077736
  73.0907297  85.4069424  43.7723970  72.2769403  84.6246147  44.1856623
  73.0646801  85.7249546  42.4848461  73.7468815  86.4216232  42.2214985
  72.5929213  84.8366070  41.3838768  71.5687132  84.5116806  41.5669489
  72.5823832  85.6502914  40.0756168  73.4952641  86.2442493  40.0312281
  72.5315380  84.8938847  39.2924356  71.5077782  86.7618084  39.8814034
  71.8280506  87.6119041  40.4837847  71.5905571  87.0554733  38.8349771
  70.0078583  86.5388203  40.1325417  69.9289942  86.4465904  41.2157631
  69.4169712  87.3231030  39.6594000  69.3975353  85.2393150  39.5989466
  69.8903275  84.3241024  39.9270177  68.3766508  85.0412941  39.9255896
  69.2429399  85.2435017  38.1296635  68.9290237  84.3422604  37.7990103
  68.5744476  85.9152222  37.7803755  70.1268625  85.3253555  37.6479149
  73.5335970  83.6649990  41.2317705  74.7176743  83.8651943  41.1545801
  72.9742575  82.4792862  40.9122801  71.9679070  82.3941040  40.9226370
  73.7064266  81.3160706  40.4242373  74.7315454  81.4022446  40.7845306
  73.1585312  80.0122070  40.8785152  72.1705723  79.9058867  40.4304790
  73.9571571  78.7895584  40.3458738  75.0098658  78.9057159  40.6035852
  73.4618616  77.9306841  40.7987785  73.8970709  78.6817884  39.2628789
  73.0364132  79.9393988  42.3803949  72.5666666  80.8300591  42.7977180
  72.4986076  79.0226841  42.6222754  74.0543270  79.9921942  42.7666092
  73.7305307  81.4350891  38.9072013  72.6315403  81.6378403  38.3586884
  74.8511076  81.1839581  38.2211304  75.6711388  80.9486389  38.7617588
  74.9900293  81.1670876  36.7882895  74.0257072  81.4533997  36.3685012
  76.0566664  82.1334362  36.3218880  77.0255375  81.7520523  36.6442776
  75.9805346  82.0398521  35.2385831  75.9088612  83.5614872  36.8350625
  76.1002636  83.6584282  37.9037380  76.8470049  84.4958019  36.0255408
  77.8838348  84.2327595  36.2350678  76.5973759  84.4091415  34.9680567
  76.6652298  85.5226612  36.3427639  74.5286989  84.1003609  36.5386534
  74.5775700  85.1438522  36.8498635  74.3633986  84.0777397  35.4614997
  73.7653828  83.6804485  37.1937275  75.1238585  79.7944975  36.1649346
  74.3887186  79.3903828  35.3165770  76.0420847  78.9662504  36.6983724
  76.6403294  79.2848206  37.4471831  76.2550116  77.6102161  36.2621975
  75.3104591  77.1587086  35.9587812  77.1447563  77.6141310  34.9786186
  76.7083788  78.3031464  34.2554784  78.1726980  77.8974247  35.2048564
  77.2086954  76.3022995  34.2762923  77.6397848  75.6118774  35.0012589
  76.2219095  75.9874105  33.9368558  78.1241655  76.2553024  33.0598187
  77.6533031  76.0219765  31.9119382  79.3117476  76.4880228  33.1534910
  76.8572950  76.7666960  37.3596597  77.9970837  77.1022797  37.8334951
  76.2672997  75.6309414  37.7299356  75.3823185  75.3907871  37.3065758
  76.7163849  74.5310163  38.5577798  77.4591970  74.7991848  39.3090653
  75.4750681  73.9061546  39.1666698  74.8835516  73.4568501  38.3689618
  75.7544470  73.1695604  39.9199796  74.5935869  74.9447775  39.8817563
  74.0891933  75.6617403  39.2339516  73.4255791  74.2922401  40.5599070
  72.8122520  73.7863302  39.8142648  73.7599230  73.5257101  41.2590122
  72.7380657  74.9943304  41.0316086  75.3510618  75.8047915  40.8370781
  76.0158539  75.1340246  41.3813400  75.9002399  76.5632439  40.2791786
  74.7689199  76.3541842  41.5769339  77.5123167  73.5136127  37.7201343
  77.2940493  73.2738209  36.5236831  78.5670280  72.8855181  38.3213282
  78.7513208  73.1786728  39.2701149  79.6217442  72.0887518  37.7790785
  79.3497610  71.6425133  36.8225217  80.7387543  73.1618357  37.6320791
  80.8058167  73.8577461  38.4683275  81.6925621  72.6444101  37.5290132
  80.5995178  73.9409685  36.3520932  80.4136753  73.2879353  35.4993892
  79.7118235  74.5727110  36.3836384  81.8484116  74.7744751  36.1018777
  82.0429230  75.2558994  37.0602584  82.6717949  74.1754293  35.7129145
  81.5257072  75.7416010  35.0413990  80.7978916  75.4984522  34.3846989
  82.0732880  76.9195843  34.8870158  81.6870022  77.7206039  33.9753819
  80.8553314  77.4360800  33.4779215  82.2579288  78.4300327  33.5385036
  83.1479168  77.3658228  35.5672240  83.6617851  76.7880058  36.2169623
  83.3933735  78.2973814  35.2638221  80.0563717  71.0230875  38.7205887
  79.9637938  71.2399817  39.8982477  80.5669308  69.9377251  38.2258487
  80.5510426  69.8205566  37.2227907  81.2139606  68.8415956  39.0299058
  80.5510521  68.7380457  39.8889351  81.3758564  67.5539446  38.1567812
  82.0339203  66.8325138  38.6411238  80.0681019  66.9929552  37.6467800
  79.5800018  66.6724491  38.5671830  79.4172287  67.7292633  37.1752715
  80.2869129  66.1477089  36.9942594  82.0130730  67.9303360  36.9694257
  82.9441929  67.9476070  37.2024965  82.5199318  69.3546391  39.6057296
  83.0508327  70.3810596  39.1708374  83.0982685  68.5846806  40.5014944
  82.5425434  67.7957869  40.7996988  84.2957115  68.9415216  41.1609268
  85.0032425  69.4204283  40.4840612  83.9465523  70.0883770  42.1353817
  83.4266472  70.8829355  41.6001415  83.2501125  69.7164488  42.8868818
  85.1176643  70.7571888  42.9230309  85.9704113  70.0782967  42.9286957
  85.2684212  71.6974449  42.3926640  84.8755169  71.0539627  44.4191313
  83.9704227  70.5827856  45.0608110  85.6130791  71.9107485  45.1247501
  85.2977848  72.0813799  46.0689878  86.2804699  72.5119162  44.6629286
  84.9043369  67.6978540  41.8366289  84.2284584  67.2820234  42.7647305
  86.1396694  67.2918558  41.5280914  86.6070080  67.7145290  40.7387638
  86.7951488  66.1382914  42.2535133  86.4906311  66.1296797  43.3000803
  86.3317871  64.8282242  41.7557669  85.2453232  64.7689962  41.6910887
  86.6454792  64.7121763  40.7183504  86.9124413  63.7750149  42.5742435
  86.3364601  63.5672808  43.3136272  88.3292007  66.3412380  42.1990013
  88.8709259  66.5883398  41.0912895  89.1228676  66.1915541  43.2506514
  90.1081944  66.2638950  43.0408859  88.6638641  65.9555197  44.6562815
  88.1223011  65.0096560  44.6682072  89.9312496  65.8881092  45.5360746
  90.2299309  66.9359684  45.5655813  89.5980644  65.4230165  46.4638615
  91.0186386  65.0967932  44.8327446  91.2621307  63.9207888  45.1433086
  91.7203522  65.6941223  44.0380573  87.7974796  67.1571732  45.1280785
  88.0944252  68.3120871  44.7903681  86.6901398  66.9300079  45.8413267
  86.5231514  66.0058022  46.2128973  85.4974174  67.8253078  46.0415888
  85.5774975  68.1843853  47.0676279  85.5800915  68.5012245  45.1904726
  84.1043663  67.2141266  45.7323456  84.0176582  65.9870720  45.4890537
  83.0829144  68.0146027  45.6781101  83.1168747  68.9965105  45.9122276
  81.6874218  67.6235294  45.5482864  81.7128372  66.5734482  45.2571011
  81.0669327  67.6815319  46.9486332  81.6990185  67.1360493  47.6493597
  81.0739899  69.1082239  47.6103544  80.2401924  69.7523069  47.3309660
  81.0209846  69.0005922  48.6937332  81.9785690  69.6388197  47.3131847
  79.5633793  67.2634745  46.8640947  78.9823771  68.0215597  46.3388824
  79.3512630  66.3848209  46.2549353  79.0752506  66.9981813  48.2112265
  77.9895544  67.0724249  48.2734251  79.3373871  65.9981108  48.5565376
  79.5612526  67.5738001  48.9989853  80.9004021  68.3354998  44.4387388
  80.1831150  67.5885868  43.7598753  80.9709835  69.6856403  44.3572998
  81.5303421  70.0961637  45.0912571  80.2862072  70.6254768  43.5083628
  80.4416466  70.2403402  42.5005817  78.8040495  70.7503510  43.8047361
  78.3210659  69.8071432  44.0600634  78.7048197  71.2846899  44.7495842
  77.9811144  71.3742685  42.6680565  78.3021975  72.3680162  42.3558664
  78.0420732  70.7467079  41.7789268  76.5276957  71.5640116  43.0309343
  76.1609125  72.0660925  44.1169214  75.6316853  71.2660742  42.0941830
  74.6795559  71.5529156  42.2710228  75.8050442  70.8103609  41.2096643
  80.8555984  72.1072054  43.5672855  81.3437462  72.5633001  44.6056509
  80.7588482  72.8945827  42.4716568  80.3534603  72.4380875  41.6670656
  81.1316681  74.3223190  42.5068903  81.1039734  74.7224188  43.5204315
  82.5938034  74.5006275  42.1080780  82.9722404  75.4986954  42.3288774
  83.1633949  73.9005756  42.8177261  82.9052925  74.0545034  40.7092524
  82.4038124  73.0908394  40.6199503  82.5826836  74.7829723  39.9653769
  84.3944550  73.9500952  40.3308392  85.1231289  74.9362278  40.2960730
  84.9125481  72.7780056  40.0836086  85.8510590  72.8448009  39.7163939
  84.3148518  71.9639444  40.0710392  80.1563168  75.1348686  41.6007376
  79.7155333  74.7448444  40.5610132  79.8478937  76.3358641  42.0826483
  80.3244781  76.7527485  42.8695250  78.9401960  77.2567797  41.4118528
  78.5414791  76.7745161  40.5193520  77.9037237  77.5533533  42.5516796
  78.3534145  78.0264711  43.4246302  77.1805334  78.2330847  42.1010542
  77.3784113  76.6272974  42.7852726  79.6482992  78.5018206  41.0172129
  80.3286362  79.1958714  41.7209482  79.3935490  78.7857485  39.7090912
  79.0796423  78.0347872  39.1110754  79.5936966  80.1101112  39.0666103
  80.5318546  80.5680275  39.3801022  79.6700764  79.9428320  37.5712657
  80.3765583  79.1670656  37.2760081  78.6716795  79.6872282  37.2163439
  80.0171280  81.2651157  36.8488169  79.4404221  82.1339226  37.1661186
  81.0942841  81.4306545  36.8282437  79.8232126  81.0724735  35.3011441
  80.2927971  80.1388931  34.9912548  78.7491226  81.0516930  35.1167631
  80.3909874  82.2957802  34.6416140  80.2265644  83.2369137  35.1663256
  81.4526939  82.1840477  34.8616219  79.9354124  82.3171139  33.1842756
  80.1078129  81.4289665  32.7353072  78.9287424  82.3772717  33.1286263
  80.2465534  83.0614853  32.5766516  78.4606600  81.0673618  39.3905616
  77.2485304  80.7606030  39.3281126  78.8652039  82.3120975  39.6166372
  79.8072577  82.5052738  39.3079138  78.0141640  83.1979942  40.4041910
  76.9889832  82.9045105  40.1784134  78.3224869  83.1049728  41.8964243
  77.6340866  83.8311958  42.3286295  78.0355978  81.6899204  42.4473953
  78.8969994  81.0325909  42.3290586  77.8310013  81.7875862  43.5135555
  77.1012926  81.2356091  42.1175909  79.7017193  83.5384941  42.3197889
  80.4049492  82.7960587  41.9424868  79.8512983  84.5473576  41.9351864
  79.6342182  83.6399555  43.4029531  78.1242704  84.6354198  39.9039102
  79.1362381  85.0110435  39.3921018  77.1222210  85.3973961  40.1954746
  76.2588930  85.0920582  40.6215382  77.1281910  86.8792915  40.1633549
  78.1102276  87.2748184  39.9039865  76.3161898  87.3009872  38.9021420
  76.8831635  86.8017960  38.1163692  75.3470993  86.8175697  39.0257478
  76.1258841  88.8276577  38.6249876  75.8023643  89.3055916  39.5496559
  77.0542240  89.2055702  38.1966496  75.0344372  89.0342331  37.5580478
  74.1372776  88.2529640  37.2661066  75.1285553  90.1152515  36.8655968
  74.4764853  90.2830601  36.1127758  75.8432007  90.7859421  37.1096468
  76.5933514  87.4468613  41.4850807  75.3586483  87.3204231  41.7985821
  77.4755955  87.9674339  42.2714090  78.4114265  88.2042313  41.9743395
  77.2557974  88.6647224  43.5026121  76.8036079  88.1191921  44.3308735
  78.7143946  88.9955902  44.1066313  79.2947340  89.4708633  43.3157969
  78.5934734  90.0815201  45.2070999  78.0338240  89.6896076  46.0563898
  79.5649004  90.4716492  45.5108118  78.0653906  90.9234428  44.7594452
  79.3909073  87.6979256  44.6021366  80.1324654  87.9306793  45.3663492
  78.5715532  87.1193027  45.0287008  80.1736832  86.8522358  43.6054325
  80.8891296  87.5747395  43.2127142  80.7032585  86.1030960  44.1940355
  79.4350481  86.4760208  42.8976345  76.3215446  89.9024105  43.3481693
  76.4986610  90.7268238  42.4472952  75.2990961  90.0000477  44.2059040
  75.2750015  89.2989254  44.9325085  74.2920637  91.1146164  44.2707300
  74.5490837  91.6700840  43.3687878  72.8309870  90.5296898  44.2048216
  72.6502132  89.8779202  45.0595808  71.9742727  91.2034798  44.2167425
  72.5358057  89.6064758  43.0017328  73.3117056  88.8584805  42.8386974
  71.2064552  88.8691998  43.2527447  70.7945156  88.2638741  42.4452782
  71.3601208  88.1208134  44.0301800  70.3869104  89.5003414  43.5964060
  72.3010445  90.4866982  41.7739725  73.1427670  91.1525249  41.5835094
  72.0952606  89.8216724  40.9352303  71.4844465  91.1995983  41.8881845
  74.4724703  92.0375443  45.4706764  75.2835321  91.7077351  46.3455772
  73.9145327  93.3612537  45.5416679  73.1746721  93.9775372  44.4087219
  72.1292830  93.6805534  44.3246412  73.6963081  93.7809563  43.4720516
  73.1671000  95.5133343  44.5562220  72.1852684  95.9677410  44.4234943
  73.8742971  95.9572029  43.8555384  73.6332798  95.7478333  45.9615517
  72.7272558  95.9038639  46.5471029  74.4145536  96.4986610  46.0797501
  74.2072153  94.4253445  46.4917421  75.2883291  94.5235920  46.3935709
  73.7415934  94.0989208  47.9122496  74.6184587  94.2709732  48.8237906
  72.5701380  93.8206196  48.1805038  56.8379164 105.9018135  65.2289820
  57.5800800 106.5534687  65.0177050  56.2808132 106.2814331  65.9810638
  56.2671471 105.9859753  64.3999767  57.3360586 104.5338917  65.3643703
  57.8939581 104.4370461  66.2957525  56.0959911 103.5853863  65.5196524
  55.6624746 103.9006042  66.4687634  55.4280424 103.8063908  64.6871233
  56.2826252 102.0986366  65.5877066  56.5565538 101.7963696  64.5769167
  57.1053743 102.0110321  66.2972879  55.0624466 101.3516903  66.0915089
  53.9545965 101.7203617  65.6430435  55.2035046 100.6778622  67.1267986
  58.2153988 104.1100121  64.2704487  57.8520250 104.0946960  63.0884457
  59.4735765 103.7958336  64.6498823  59.6530771 103.7376022  65.6420994
  60.6694078 103.3810520  63.8221598  60.6450844 103.9982891  62.9240942
  62.0715475 103.5471249  64.4763374  62.7322054 103.0628777  63.7572098
  62.4901915 105.0190544  64.4866848  63.5558701 105.1762772  64.6531677
  62.2450066 105.4149628  63.5011673  61.9276953 105.5830860  65.2307081
  62.2827768 102.9444790  65.7589769  61.9527149 103.5207939  66.4521790
  60.6037092 101.9511700  63.3144331  59.9011755 101.1303711  63.8612700
  61.3997173 101.7211151  62.2632265  61.8870640 102.5134659  61.8698072
  61.4703560 100.3456783  61.7788839  60.5053902  99.9277496  61.4920330
  62.3695850 100.4507351  60.5632591  62.0410347 101.2674618  59.9205256
  63.3742476 100.7132816  60.8946514  62.5777340  99.1978550  59.7282791
  62.7495575  98.3028889  60.3262901  61.4754534  98.9768696  58.7190676
  60.5368471  98.9526367  59.2727232  61.4132643  99.7822952  57.9872704
  61.6044283  98.0359364  58.1841803  63.8803577  99.3501568  58.8266134
  64.7559261  99.6514606  59.4016695  64.1712427  98.4254074  58.3282757
  63.7793827 100.0908566  58.0333471  62.0255899  99.3935871  62.8947544
  61.5983677  98.2972050  63.0541372  63.0024052  99.8760700  63.6449623
  63.4027767 100.8015442  63.5875273  63.5323524  99.1936970  64.8414660
  63.7809992  98.1889343  64.4997931  64.8622513  99.8268795  65.2034712
  65.4926538  99.8897362  64.3164873  64.7088957 100.8488846  65.5500078
  65.6196690  99.0378857  66.1769819  66.5221596  99.5901680  66.4388990
  64.9231339  98.9836502  67.0136356  66.0065889  97.3460484  65.6065845
  65.9424973  96.4812565  67.2029781  66.5829134  97.0226955  67.8992748
  64.8943233  96.4489460  67.5002766  66.2402678  95.4371834  67.1063328
  62.4811935  99.0957832  66.0024214  62.4494505  98.0338383  66.6250420
  61.6800213 100.1434135  66.1963749  61.9234085 101.0174370  65.7525730
  60.4691505  99.9840164  67.0722961  60.7541180  99.7714424  68.1026888
  59.7986269 101.3358974  67.1838236  59.7506142 101.7067242  66.1599636
  58.8230515 101.0902786  67.6033735  60.3933191 102.3349667  68.1151485
  61.0069895 101.8955517  69.1326618  60.4577303 103.5486794  67.7520847
  59.4957304  98.8619995  66.6547966  58.9797354  98.1091404  67.5440884
  59.1335630  98.8158131  65.3427076  59.3321228  99.6280003  64.7761202
  58.3721733  97.6970577  64.6819019  57.3643732  97.6888371  65.0970793
  58.2402325  97.9041290  63.0920506  58.0463886  98.9644337  62.9299021
  59.1198778  97.5332928  62.5659227  57.0172310  97.1808338  62.6590967
  57.1076679  96.0948277  62.6363993  56.2746620  97.4689007  63.4032106
  56.6178656  97.7326202  61.1942148  56.5149879  98.8174725  61.2191248
  57.4059629  97.4138927  60.5119991  55.3051901  97.1658897  60.6909657
  54.5863199  96.8436337  61.3230085  54.9872541  96.8420124  59.4567299
  55.6686211  97.0128918  58.3438253  56.3693619  97.7347851  58.2547998
  55.3736877  96.6120529  57.4649334  53.9003944  96.1678886  59.2704725
  53.3792734  95.9200478  60.0993919  53.5683203  95.9625816  58.3389854
  58.9799213  96.3336372  65.1032495  58.2509184  95.4613876  65.5471802
  60.2693176  96.1613464  64.8837805  60.8225298  96.9377708  64.5502806
  60.9391594  94.9286366  65.1730585  60.4303074  94.1039371  64.6740341
  62.3131037  94.9922466  64.4347572  62.7443600  95.9840584  64.5704794
  63.3072042  94.0409374  64.9524355  63.7428379  94.5250034  65.8265066
  62.8487015  93.0593300  65.0720692  64.2096710  93.9749908  64.3447256
  62.1641016  94.8006439  62.8884602  61.9728518  93.7405300  62.7220869
  61.2703514  95.2929688  62.5051451  63.3915567  95.2512360  62.0853186
  63.2572079  95.2133083  61.0042906  63.5569239  96.3095570  62.2870874
  64.2780495  94.7155857  62.4248886  61.0362244  94.6566582  66.6595507
  60.5359983  93.6253357  67.0711756  61.4698839  95.6270313  67.5160408
  61.8837452  96.4327812  67.0692873  61.5415144  95.5067158  68.9666843
  62.3767996  94.8510075  69.2125463  61.7131901  96.9058704  69.6483564
  61.0159922  97.5749683  69.1440630  61.3914394  96.7692852  70.6807947
  63.1817389  97.3371887  69.7987890  63.7414789  96.6834450  70.4676819
  63.5783863  97.2588253  68.7865496  63.2179976  98.7729549  70.3575802
  62.5911331  99.4091225  69.7327375  62.9770279  98.7332916  71.4198732
  64.6604204  99.3278694  70.2065611  65.2641678  98.6969280  70.8588648
  65.0789404  99.3228054  69.2001247  64.7234535 100.6708622  70.7676172
  64.2574978 100.8552647  71.6445351  65.7095575 100.8187866  70.9282827
  64.3512011 101.3739395  70.1453590  60.2589273  95.0025558  69.6483135
  60.4210377  94.1383648  70.4901171  59.0392685  95.4204273  69.3111849
  59.1483402  96.1956406  68.6730194  57.6687288  94.9432755  69.7101974
  57.6039505  95.2518559  70.7535982  56.6293144  95.6745434  68.8920784
  56.7178535  96.7609310  68.8981009  56.8445492  95.3916836  67.8616571
  55.1745844  95.4308605  69.3318653  54.8449230  94.3948555  69.4101238
  55.0746393  95.8842087  70.3180647  54.2040443  96.2287140  68.4870720
  54.4013071  97.2986317  68.5539103  54.3520975  95.8993626  67.4586248
  52.8254938  95.9759140  68.9973259  52.6568460  94.9003315  69.0501642
  52.7780676  96.3324451  70.0262737  51.8485308  96.6779709  68.1243801
  51.7737913  96.2286568  67.2229195  51.0044384  96.6234112  68.6763287
  52.1742821  97.6181030  67.9508066  57.5091934  93.4175205  69.6811962
  57.4300861  92.7622890  70.7079697  57.5711441  92.7871513  68.4572411
  57.6407146  93.3340836  67.6109934  57.4941301  91.3207912  68.3193779
  56.7349482  91.0439014  69.0508652  57.1103048  91.0631180  66.8890619
  56.2675810  91.7034245  66.6284180  57.9203606  91.4456367  66.2681007
  56.9438076  89.6191025  66.4691591  56.7642069  89.6756935  65.3955460
  57.8480339  89.0343666  66.6381645  55.7253313  88.9792824  67.1905565
  54.5819521  88.8849163  66.6212463  55.8013248  88.6172485  68.4876490
  55.0151157  88.1329441  68.8968182  56.6826534  88.6942577  68.9749146
  58.6900139  90.5963230  68.9058876  58.5762835  89.4265747  69.3210983
  59.8366261  91.2584019  68.9577532  59.9490023  92.1694469  68.5364628
  60.9920216  90.7707787  69.7499371  61.1405945  89.7424316  69.4204950
  62.3250246  91.4496326  69.4157362  62.2394133  92.5310993  69.5216417
  63.1087685  91.1433125  70.1085615  62.7572393  91.2979794  67.9352617
  61.9656610  91.6129112  67.2553205  64.0143633  92.1624470  67.7828264
  63.9372540  93.2234192  68.0205059  64.6552563  91.6754246  68.5177803
  64.4561148  92.1497536  66.7864370  63.0267286  89.7887993  67.5396824
  63.7815380  89.7257996  66.7558479  63.4953356  89.3152714  68.4023952
  62.0754004  89.4592381  67.1219873  60.7269573  90.6832790  71.3038206
  60.8741856  89.6153164  71.9061804  60.2441549  91.8212700  71.8448114
  60.1266098  92.6531887  71.2842798  60.0095654  91.9912815  73.2664442
  60.9710360  91.7617798  73.7258005  59.5500422  93.3554745  73.6439800
  60.2165079  94.0323925  73.1094742  58.5766935  93.5298729  73.1854200
  59.5648050  93.6275005  75.1273727  58.8326645  93.0562687  75.6981277
  60.5200148  93.2398319  75.4814768  59.3164968  95.1098919  75.5175543
  60.0289154  95.7280540  74.9712706  58.3093548  95.3948212  75.2132893
  59.7818375  95.3213978  76.8693829  60.0910378  94.5837116  77.4860764
  59.9359608  96.5458012  77.4349260  60.4066849  96.6858578  78.6648321
  60.7664394  95.8416367  79.0867043  60.5182743  97.6310444  79.0028763
  59.7559261  97.6188850  76.7237186  59.3586349  97.4804497  75.8055162
  59.5470953  98.5094643  77.1519327  59.0508556  90.8645344  73.7610960
  59.1046047  90.5099392  74.9205923  58.1370211  90.3094864  72.9449224
  57.8833675  90.7777691  72.0867395  57.2547770  89.2967415  73.3489227
  56.7451525  89.5964909  74.2646360  56.1455679  89.0557575  72.2526979
  56.6593456  88.4896564  71.4757442  55.3688622  88.4119987  72.6655197
  55.5238247  90.3409195  71.6850519  55.5559969  91.0628223  72.5010967
  56.2337255  90.6575394  70.9209156  54.0711546  90.4015732  71.2128448
  53.7657213  91.1742210  70.2547407  53.2420731  89.7559452  71.8665743
  57.9895115  87.9277706  73.5119152  57.6122284  87.2405243  74.4815493
  58.9878893  87.5290585  72.6536322  59.4216585  88.1631851  71.9980145
  59.6973467  86.2637043  72.8030920  58.9832306  85.4733753  73.0344391
  60.2620363  85.8232784  71.4419270  61.0659742  86.4449310  71.0478020
  60.7058859  84.8289204  71.4903116  59.1827345  85.8067894  70.3628111
  57.8230953  85.5385303  70.4808998  57.3482037  85.2854061  71.4172792
  57.2177649  85.8252621  69.3093014  56.2188101  85.6974316  69.2328310
  58.1567860  86.0179138  68.3672619  58.0093098  86.1306286  67.0013428
  57.0490694  85.8887005  66.5702820  59.1301537  86.4469528  66.1949539
  59.0088415  86.5011311  65.1231575  60.3993654  86.6696930  66.7770147
  61.2245798  86.8363190  66.1005163  60.5504179  86.5254402  68.2213640
  61.5283918  86.6231441  68.6690474  59.3897629  86.1281872  68.9849615
  60.7426453  86.2694645  73.9421701  60.8348656  85.2506733  74.6371889
  61.6045237  87.3322678  74.1063023  61.5344477  88.0932617  73.4459400
  62.2554302  87.5826836  75.4397297  61.6875935  87.0801258  76.2227392
  63.6023140  86.9168568  75.2163315  63.4498596  85.8862972  74.8957014
  64.1097212  87.5023079  74.4495964  64.3148899  87.0471382  76.4903212
  65.3027010  87.7790642  76.6039371  63.8706160  86.5373611  77.5818300
  62.4171638  89.0264893  75.7676744  62.5431776  89.8297501  74.8551512
  62.5178576  89.3066311  77.0615292  62.3109245  88.6055565  77.7585030
  62.7639484  90.6881905  77.4538517  62.0114565  91.3306236  76.9965219
  62.7140284  90.9014702  78.9978790  61.8186474  90.3928661  79.3552494
  63.6106777  90.4232883  79.3921661  62.6572418  92.3366451  79.6107006
  62.5615263  92.1113777  80.6728649  63.5848475  92.9020500  79.5214415
  61.4735365  93.1871128  79.1533566  60.4799414  92.6477909  78.6812401
  61.6485977  94.4240093  79.2336082  64.0324163  91.4392948  76.9516182
  63.8833666  92.6200199  76.6057110  65.1629305  90.8020020  76.7254448
  65.2044487  89.8058414  76.8868160  66.4226198  91.4447498  76.2516642
  66.5870667  92.2806835  76.9315624  67.6075649  90.5220604  76.4651728
  67.4833012  89.6315289  75.8490467  68.4632301  91.0658836  76.0649204
  67.9000378  90.2189350  77.9056120  68.7975597  90.7763863  78.4967089
  67.1664047  89.3039989  78.5038710  67.5278330  88.7441444  79.2628384
  66.3753796  88.9073753  78.0169725  66.3437939  91.9023991  74.7991180
  66.8496752  92.9257679  74.5133591  65.6819773  91.1460686  73.9143324
  65.1653671  90.3981400  74.3545818  65.6577158  91.2986565  72.4613857
  66.6681337  91.4286041  72.0737505  64.9742365  90.0496674  71.8524027
  63.9179182  90.0572014  72.1211815  65.0134230  90.1303482  70.7661009
  65.5373240  88.7245846  72.1339989  65.5108356  88.6840153  73.2229233
  64.7347069  87.5616646  71.7129230  63.7061310  87.7215958  72.0362759
  64.7215414  87.4964523  70.6249571  65.1592255  86.6230583  72.0691681
  66.9585896  88.5140133  71.7532110  67.0525455  87.4743080  72.0667315
  67.0638323  88.6159325  70.6730986  67.6565933  89.1315556  72.3184824
  64.9954700  92.6085567  71.9149685  65.0410318  92.8938198  70.7232285
  64.6681070  93.4886456  72.8288746  64.8780394  93.1617832  73.7611771
  64.1782904  94.8638821  72.6655865  63.5928488  94.9973583  71.7558908
  63.3201981  95.3092480  73.8964653  62.7770329  96.2272644  73.6721420
  62.5239944  94.5759964  74.0249729  64.1044140  95.4458809  75.2276373
  64.6907902  94.5382881  75.3709459  64.9129677  96.1704636  75.1310682
  63.1528568  95.8513451  76.3819218  62.4923134  96.6861248  76.1475468
  62.5084496  94.9825287  76.5160704  64.0749216  96.1297798  77.6356268
  65.0448847  96.5306377  77.3413897  63.6290741  96.7999554  78.3706093
  64.2944002  94.8643875  78.3339739  63.3806038  94.6158314  78.6851263
  64.6666574  94.1461277  77.7292967  64.9183750  95.0789356  79.0986443
  65.2988911  95.8836842  72.4350262  65.0736904  97.0465279  72.6809549
  66.4922667  95.4624557  72.0769501  66.5644646  94.5071983  71.7569780
  67.7654457  96.2734890  72.2045326  67.6860762  97.1825600  72.8006697
  68.8078499  95.3197575  72.8305817  68.6511755  95.0681305  73.8795042
  68.8336277  94.4143009  72.2242832  70.2078819  96.0066128  72.7416468
  70.5287647  96.9344616  73.5593081  70.9927464  95.8003426  71.7737770
  68.1691456  96.7197323  70.7294178  67.9384661  95.9646797  69.8019075
  68.5967731  97.9832649  70.5857611  68.6772442  98.5983276  71.3828325
  69.0036774  98.6517429  69.3317938  68.8170528  98.0094719  68.4711170
  68.2215023 100.0072098  69.0578318  68.5292292 100.4639053  68.1171751
  67.1807766  99.7122002  68.9238405  68.2858229 101.0549641  70.1841640
  67.2913456 101.7814159  70.2844429  69.2365885 101.1597347  70.9582090
  70.5120087  99.0240383  69.3407583  71.0725164  99.7232056  68.4911299
  71.3032913  98.3997917  70.1335001  70.8724499  97.6829052  70.6996775
  72.8156757  98.4642029  70.0705481  73.0509806  99.5237732  69.9703693
  73.3263063  98.0241585  71.4102840  73.2774448  96.9446182  71.5527534
  74.3377066  98.4069157  71.5469265  72.6392317  98.6226654  72.5243807
  71.8845367  98.0914974  72.7887535  73.3840847  97.5954247  68.9998770
  74.2655325  96.7699814  69.2582703  72.7954960  97.7105904  67.8066254
  72.3018074  98.5793781  67.6597452  73.0322838  96.8779087  66.6454172
  72.4831152  95.9516811  66.8145704  72.4556923  97.5402737  65.3972244
  73.0386209  98.4482384  65.2426624  72.6481819  96.9523144  64.4998121
  70.9679413  97.8113365  65.3184032  70.6860685  98.6211491  65.9913445
  70.6047678  98.0550575  63.8316154  69.5189476  98.0079365  63.7487173
  71.0230303  98.9726257  63.4178209  70.9641790  97.3046875  63.1274319
  70.0878191  96.6221619  65.8289289  69.0893459  96.7241096  65.4037762
  70.5181313  95.7086754  65.4184723  70.0854826  96.6999531  66.9161463
  74.4587374  96.3929081  66.3626480  75.4306936  97.1549702  66.4588404
  74.6921110  95.1046371  65.9984255  73.7071657  94.0954876  65.7250595
  73.0451536  94.4542789  64.9369526  73.1787777  93.8727474  66.6520405
  74.5199680  92.8862095  65.3294277  74.6853352  92.8134060  64.2545080
  73.9936876  91.9791985  65.6268454  75.8141947  93.1058311  65.9863138
  76.6108036  92.4965096  65.5594254  75.8301115  92.9420280  67.0638180
  76.0923576  94.5648289  65.8155823  76.7611599  94.8627090  66.6230917
  76.6835690  94.8778725  64.4395208  77.6646280  94.2122746  64.0534306
  76.1810303  95.8396053  63.6294508  75.4880285  96.4382267  64.0554857
  76.4132214  95.9269524  62.1877289  77.4713135  95.9457397  61.9265795
  75.7833910  94.6289349  61.5261984  76.0600662  94.6308041  60.4718971
  76.3005447  93.7828445  61.9787312  74.3285227  94.5074844  61.6972685
  73.9629459  93.7381268  61.2544966  75.6412649  97.1496391  61.6407537
  74.6995926  97.5961876  62.2519970  76.0424995  97.4874592  60.4278755
  76.9124651  97.0580387  60.1470518  75.4912996  98.5809040  59.5957947
  75.7277012  99.5475864  60.0404882  76.2324381  98.4873867  58.2839537
  77.2175360  98.9289761  58.4345627  76.2985945  97.4337101  58.0129004
  75.5844784  99.2431927  57.2152948  74.8154783  98.8240051  56.3496923
  75.7937956 100.5326462  57.1993876  75.1470804 101.0883141  56.6580105
  76.4450312 100.9142780  57.8704739  73.9613771  98.3853149  59.3873596
  73.5649443  97.2347641  59.1064358  73.0459642  99.3984509  59.3785477
  73.3650160 100.6843662  59.8765230  73.6173582 101.2849331  59.0026045
  74.2706871 100.6744003  60.4829645  72.0687246 101.2515926  60.6040382
  71.9587803 102.3313236  60.5030251  72.1468878 100.9895802  61.6591835
  71.0084248 100.4946327  59.8449516  70.7750797 101.0410023  58.9310932
  70.1871920 100.2723312  60.5263138  71.6309977  99.1373444  59.4237852
  71.4814520  98.4707260  60.2731133  71.0208416  98.5579586  58.1916094
  70.0651932  97.8251362  58.2747936  71.6579103  98.6959839  57.0366526
  72.3304462  99.4473362  56.9795752  71.2397575  97.9972839  55.8293962
  70.1698303  98.1718731  55.7159281  71.7961407  98.6091805  54.5468950
  72.8495836  98.8744354  54.6363306  71.6885281  97.5936127  53.3853292
  72.4373102  96.8374348  53.6211872  70.7996607  96.9723797  53.4953403
  71.8626595  98.0244923  52.3993683  70.9692383  99.9548721  54.1493940
  69.9611902  99.5644379  54.0097666  70.9956121 100.6360531  54.9999237
  71.3172531 100.8253860  52.8864098  70.4740334 101.4855957  52.6834297
  72.1742249 101.4735985  53.0695295  71.4359760 100.1959991  52.0044422
  71.5007114  96.4786911  55.9085703  70.5670071  95.7344151  55.7891655
  72.7289391  96.1108780  56.2443399  73.3978367  96.8481827  56.4147997
  73.1542921  94.7309494  56.5194082  72.9784346  94.2095566  55.5784893
  74.6993589  94.5574284  56.8814325  74.8649693  94.7482872  57.9417372
  74.9620628  93.5002041  56.9184256  75.7555676  95.1394367  55.9534931
  76.9390011  95.0562191  56.3280582  75.5588102  95.6273460  54.8215246
  72.3000669  93.9972115  57.6028776  71.9477463  92.8259754  57.3869658
  71.9757843  94.7310257  58.6032724  72.2864771  95.6892586  58.5300493
  70.9651756  94.3616390  59.5930862  71.3234138  93.4074497  59.9794674
  70.8103752  95.3376198  60.7617426  71.8111610  95.5067825  61.1591291
  70.4751730  96.2861824  60.3422546  69.8327875  94.8901367  61.9061613
  68.5548306  95.4506683  62.0989609  68.1901693  96.0936642  61.3115692
  67.7779102  95.1971149  63.2206964  66.8720055  95.7765579  63.3206320
  68.2559633  94.2827415  64.1993141  67.7412605  94.2029953  65.1454210
  69.5394993  93.7088966  64.0104151  69.9930620  93.0482483  64.7344542
  70.3280497  94.0785694  62.8759480  71.3273764  93.6934471  62.7365398
  69.6055460  94.0619946  58.9912367  68.8946486  93.1113625  59.3281889
  69.1531706  95.0057983  58.1265593  69.6991396  95.8108616  57.8547525
  67.7419996  94.9265385  57.6916504  67.1544838  94.8720074  58.6081409
  67.2764826  96.1089039  56.8109608  66.2015772  95.9952641  56.6703701
  67.5299358  97.0641518  57.2707081  67.8869677  96.0046482  55.4936075
  68.8234186  95.9684849  55.7018042  67.4544334  93.6623287  56.8764973
  66.3366890  93.1935406  56.8763542  68.4958506  93.0812168  56.2320423
  69.4100285  93.4940052  56.3503027  68.5371590  91.6628170  55.7959890
  67.6143360  91.5541267  55.2261829  69.6580935  91.4616108  54.7740793
  70.6153011  91.8823719  55.0820065  69.8249722  90.3931046  54.6379519
  69.3494034  92.0951939  53.5001373  70.1407290  93.2133198  53.0523396
  70.7973814  93.7731266  53.7018251  70.0210333  93.6851597  51.7287111
  70.6023026  94.5121765  51.3484859  69.1140890  93.0182934  50.8496523
  69.0676785  93.4195137  49.5735216  68.5535908  92.8519249  48.9945936
  68.2871103  91.9577122  51.2816572  67.6587105  91.3878918  50.6132126
  68.4927368  91.4528561  52.5694227  67.8368235  90.6395054  52.8426170
  68.4748840  90.5655575  56.9080734  67.6723385  89.6645737  56.9321299
  69.4361115  90.6874084  57.8331709  70.0240993  91.5013695  57.7243900
  69.7094631  89.7279644  58.8939762  70.0256634  88.8448429  58.3388042
  70.8867168  90.2513409  59.7641134  71.7285633  90.5803013  59.1548634
  70.5241203  91.0326862  60.4320288  71.4680195  89.2597961  60.7143402
  71.6538143  87.9272556  60.4984570  71.4238453  87.4281406  59.5687246
  72.1188545  87.2675037  61.6458035  72.0919704  86.2694836  61.7985344
  72.1667576  88.1058884  62.7338696  72.3639774  87.8696346  64.0813303
  72.6344967  86.8731785  64.3980408  72.2125196  88.9577675  64.9739885
  72.4104023  88.8410378  66.0292721  71.9355631  90.2541351  64.4165564
  71.7842865  91.0467625  65.1343727  71.6027308  90.4611874  63.0740213
  71.2229729  91.4452648  62.8421354  71.7613840  89.4154739  62.1671438
  68.4534502  89.3724346  59.7883892  68.3992100  88.2626629  60.3649664
  67.5469255  90.3459930  59.8814392  67.8007603  91.2239552  59.4514847
  66.1992264  90.2565479  60.5899954  66.3707304  90.1810932  61.6637754
  65.3689528  91.4765453  60.2489662  65.5756330  91.5843105  59.1841793
  63.8339806  91.2190819  60.3337097  63.6291695  90.6304264  61.2279367
  63.3553028  92.1961498  60.3994370  63.4445524  90.7703304  59.4198847
  65.8595467  92.6326942  61.0985804  65.2936220  93.5338974  60.8626699
  65.4720259  92.3977566  62.0899105  66.9335938  92.5771332  61.2758732
  65.4488039  88.9894009  60.1799202  64.8338938  88.3870411  61.0593987
  65.5657339  88.5155296  58.9081430  66.1127281  89.0362453  58.2375050
  64.9536753  87.3260689  58.4414291  63.9379358  87.3426533  58.8365269
  65.1830244  87.2370243  56.9580698  64.6502113  88.0153370  56.4117718
  66.2432671  87.2135448  56.7061996  64.7735643  86.3140774  56.5474558
  65.5413580  86.0502052  59.0690279  64.9024439  85.0101089  58.9809465
  66.7459059  86.1392403  59.6425390  67.1903419  87.0288658  59.8190355
  67.4493694  84.9819756  60.2388525  66.8611145  84.0788460  60.0763130
  68.9218712  84.8984241  59.8073626  69.0461493  84.8105240  58.7280416
  69.4211817  85.8033085  60.1537371  69.4325447  84.0988255  60.3439856
  67.4341822  85.0455284  61.8361664  67.9882431  84.1300774  62.4057531
  66.7903709  86.0901070  62.4223566  66.3713169  86.8375397  61.8877268
  66.4577484  86.0352325  63.8489819  66.9277573  85.1986694  64.3660498
  67.1118498  87.1974182  64.5898342  66.6692257  88.1042671  64.1777658
  66.8750000  87.1133137  65.6504631  68.6265612  87.1522427  64.3768120
  69.3269348  86.2926197  64.8115730  69.2207479  88.2042122  63.7524700
  70.2168131  88.2126808  63.5854912  68.6385489  89.0069485  63.5607624
  64.9291563  85.9138966  64.0653133  64.5131826  85.6664658  65.2402878
  64.0510845  86.2131023  63.1047153  64.4681931  86.4569569  62.2177792
  62.6682854  85.8576679  63.0575418  62.2893667  85.6515980  64.0585709
  61.8495464  86.9963360  62.3854351  62.4214792  87.5521946  61.6424561
  60.9805775  86.6023445  61.8584061  61.2988043  88.0533981  63.3641672
  60.7290697  87.5491047  64.1446686  62.4304390  88.9390659  63.9821243
  62.1482944  89.9515247  64.2709446  62.8077602  88.4662533  64.8888636
  63.2166243  89.1451645  63.2558060  60.2567482  88.9146233  62.6834583
  60.7211876  89.3804741  61.8143320  59.5458651  88.2942104  62.1377182
  59.7705412  89.6393967  63.3364630  62.4294281  84.6405029  62.1652079
  63.1728935  84.3734646  61.2422419  61.3468599  83.8994980  62.4137831
  60.2733898  84.0799809  63.4546757  59.7009802  84.9585056  63.1569386
  60.6414843  84.2120075  64.4721127  59.4494915  82.7775192  63.3549118
  58.4687328  82.9038525  62.8963852  59.3222237  82.3451710  64.3473768
  60.2221394  81.7995358  62.5181246  59.5591784  81.1458302  61.9513369
  60.9966564  81.2476730  63.0507231  60.9678459  82.7503204  61.5991211
  61.9337225  82.3010540  61.3681507  60.2825689  83.1333447  60.2543497
  59.1563749  82.6953316  59.9717855  61.0184383  83.9059544  59.4270563
  61.9231319  84.2327881  59.7349691  60.6184721  84.1956615  58.0531931
  59.5843077  84.5180702  58.1742477  61.4753342  85.3469181  57.5494909
  62.5150299  85.0356960  57.6508617  61.1773109  85.7945824  56.1448002
  60.1889515  86.2281418  55.9922552  61.9021320  86.5268993  55.7892084
  61.2771320  84.9745846  55.4336452  61.3127518  86.6200447  58.4678507
  61.7033291  86.4365578  59.4687891  61.8783998  87.4451828  58.0350924
  59.8842716  87.2199726  58.5625553  59.2419577  86.4608192  59.0089083
  59.9014521  88.1807518  59.0770483  59.5267534  87.3792648  57.5452518
  60.6976461  82.9230022  57.1795368  61.6101074  82.1044827  57.4246740
  59.7369528  82.6781464  56.2981987  59.0778780  83.4429646  56.2704182
  59.7608376  81.4662457  55.4593372  59.6874142  80.6114388  56.1316586
  58.4097862  81.3455868  54.8225117  57.6146317  81.5702248  55.5333996
  58.3271694  82.1061707  54.0461254  58.1073666  80.0110245  54.1033077
  57.5782537  79.8532200  52.9597998  58.6337090  79.1071081  54.7250080
  60.8238983  81.3253307  54.3987513  61.2816620  82.3126316  53.8168192
  61.1271477  80.0964928  54.0485477  60.6948042  79.3104649  54.5125961
  61.9670963  79.7543049  52.9465103  62.9985762  79.9928951  53.2057810
  61.8696165  78.2294893  52.6602602  60.8365870  77.8868771  52.6005697
  62.2177172  77.9941082  51.6545153  62.6120663  77.4112797  53.6937857
  62.5571346  77.5298166  54.9240208  63.2009983  76.4575052  53.2327986
  61.7028522  80.5060482  51.6848850  62.6627970  80.9658432  51.0349655
  60.4167414  80.4585457  51.3447952  59.7225285  80.0553226  51.9576406
  59.9254274  81.1528397  50.1919413  60.4019117  80.8163071  49.2711782
  58.4656239  80.8172417  50.0169754  58.3454132  80.8871651  48.9358807
  58.3580494  79.7742891  50.3149414  57.5946283  81.5193939  50.8566523
  57.4743557  80.9298611  51.6047096  60.1274395  82.7023506  50.1742744
  60.3949547  83.2966423  49.1320324  60.0743151  83.3257294  51.3341331
  59.7755766  82.7024269  52.0705748  60.5512953  84.6306229  51.7213821
  60.3229141  85.2867126  50.8814478  59.8304892  85.2297306  52.9597330
  59.8908997  84.5339775  53.7966251  60.2622843  86.2193203  53.1092787
  58.3190346  85.4350758  52.7864027  57.9366589  84.4632530  52.4742126
  57.6135159  85.6632423  54.1569757  57.7785254  84.8411369  54.8534060
  57.9079008  86.5647125  54.6943617  56.5579605  85.8531094  53.9624357
  57.9784155  86.5437126  51.8043137  58.3895731  87.5068283  52.1067333
  58.4099054  86.3327789  50.8258343  56.9059229  86.5836048  51.6138840
  62.1012068  84.7749233  51.7724705  62.5693035  85.8740139  51.4781761
  62.8763151  83.7788868  52.1159649  62.4262285  82.9209614  52.4014330
  64.3089914  83.8875294  52.0801163  64.6073675  84.8844528  52.4044657
  64.9053240  82.8683186  53.1220293  64.3672180  81.9288254  52.9959583
  65.9871864  82.7355671  53.1291914  64.7428465  83.4695530  54.5599174
  65.3865767  84.3205738  54.7823572  63.7422037  83.8672829  54.7290802
  65.0849485  82.3802376  55.5837488  64.4947481  82.5202465  56.4893723
  64.7358370  81.4001465  55.2587032  66.5411568  82.2406673  55.8009815
  67.1775389  82.2751713  55.0174475  67.1425915  82.1586895  57.0140505
  66.5854454  82.4835300  58.1886292  65.7143164  82.9933834  58.2246065
  66.9946098  82.0637989  59.0111303  68.3519316  81.7954159  57.0742655
  68.7164307  81.3092804  56.2674713  68.9221478  81.8717575  57.9044008
  64.9351358  83.6875248  50.6737661  65.8961582  84.3485355  50.3669882
  64.3044806  82.9411983  49.7178888  63.6133862  82.2780704  50.0384283
  64.5718718  83.0650520  48.2656813  65.6382656  82.9423428  48.0763435
  63.8027954  82.0257854  47.4200726  62.7399969  82.2651386  47.4556780
  64.2480326  82.1943092  45.9002829  63.7518597  81.4013195  45.3407431
  63.9535856  83.2093048  45.6334829  65.3331327  82.1070480  45.8451509
  63.9741564  80.5254650  47.9043436  63.3729315  80.4562569  48.8109016
  63.5438442  79.8196220  47.1939135  65.4192638  80.1288891  48.2184505
  65.7822895  80.5254459  49.1666412  65.4873323  79.0440798  48.2999706
  66.1343145  80.3822708  47.4357605  64.2699623  84.5526981  47.8170204
  65.2102041  85.1683235  47.2226524  63.1562805  85.1016331  48.2069492
  62.5417757  84.5002365  48.7368631  62.7901936  86.5652466  47.9115105
  62.7425051  86.8261909  46.8542767  61.3482714  86.8298531  48.4016943
  60.7535982  86.1641693  47.7761316  61.3398743  86.4749432  49.4322634
  60.8245420  88.3191395  48.2062626  59.9631596  88.3242512  48.8741684
  61.5574932  89.0932941  48.4333420  60.3367233  88.6225510  46.7988634
  60.8747482  88.1721592  45.8166075  59.3679094  89.4643211  46.6640186
  59.1829252  89.7251606  45.7059765  58.8502789  89.9084949  47.4089098
  63.7464046  87.5894451  48.4161854  64.2126608  88.4474754  47.6830673
  64.1924238  87.3441124  49.6174908  63.7620783  86.5976238  50.1444244
  65.3152466  88.0581379  50.2562094  64.9488354  89.0839672  50.2952480
  65.3744221  87.7006245  51.7395926  64.4836712  88.0304718  52.2742558
  65.2967930  86.6138077  51.7694759  66.7017603  88.1446075  52.5014639
  66.9501543  89.1133118  52.0678663  66.3642025  88.3106136  53.9714432
  65.7126427  89.1821766  54.0343142  65.7732487  87.4609756  54.3134689
  67.2062731  88.5918522  54.6038389  67.7540445  87.0743847  52.3720360
  67.2851992  86.0999680  52.5091553  68.1639385  87.0940208  51.3622284
  68.4868288  87.2543049  53.1586456  66.6001081  88.1010151  49.3849468
  67.1706820  89.2250538  49.2167234  67.1192551  86.9675159  48.8314486
  66.5721464  86.1374378  49.0096378  68.2626247  86.9796085  47.9174995
  69.0623283  87.5461197  48.3946180  68.8034248  85.5286694  47.7721453
  68.0599833  84.8841476  47.3031282  69.5765591  85.4050350  47.0138073
  69.2113686  84.8556614  49.0638924  68.4293222  84.9832630  49.8123693
  69.3281412  83.3524990  48.8439655  70.2003479  83.0833530  48.2482243
  69.5303345  82.9216766  49.8245811  68.5158730  82.7980804  48.3739233
  70.5547333  85.4088402  49.6197367  70.8633947  84.8863888  50.5252028
  71.2637281  85.4411697  48.7924623  70.4256678  86.4653492  49.8547697
  67.9250622  87.6191044  46.6110373  68.6455536  88.5067558  46.0863209
  66.7325592  87.3546028  46.0987091  66.2642574  86.6546345  46.6562319
  66.2968063  88.0119896  44.8325777  66.9995642  87.8530312  44.0146732
  65.0132799  87.2388744  44.4223785  65.4521751  86.2819958  44.1397619
  64.3150854  87.2342777  45.2593946  64.2954731  87.8611469  43.1721115
  64.0459728  88.8901424  43.4309912  65.0643110  87.8319073  42.4000120
  62.9674387  87.1555328  42.8912640  63.1565380  86.0851383  42.9724216
  62.2490120  87.3350525  43.6911011  62.4154902  87.5222301  41.5333414
  62.4183750  88.5932350  41.3307571  63.1018305  87.0488071  40.8312559
  61.0621023  86.8970299  41.3870573  60.6713724  87.1061134  40.4794741
  61.0883713  85.8873940  41.3808584  60.4761696  87.1927357  42.1547461
  66.1130524  89.5221996  44.8179960  66.5484285  90.2116299  43.8475180
  65.4884100  90.1490879  45.8146477  65.1808500  89.5916080  46.5986967
  65.1846981  91.5675163  45.9323788  64.8924541  91.9145393  44.9412823
  63.9314651  91.8924999  46.8672514  64.1769457  91.4013767  47.8088665
  63.5180044  93.3976269  47.0007515  63.4456301  93.9562893  46.0676098
  62.6057291  93.5240650  47.5837326  64.3221235  93.7143803  47.6649427
  62.7033424  91.1262512  46.2774658  62.9207230  90.0592899  46.2280130
  61.8131685  91.2246323  46.8987656  62.2729683  91.4654827  44.8615932
  61.3591146  90.9413052  44.5819378  62.0450497  92.5312424  44.8794794
  62.9783201  91.0999489  44.1152906  66.4233685  92.3476601  46.3568163
  66.9107676  92.1056271  47.4963045  66.8599081  93.3443546  45.5911255
  66.5333796  93.4419441  44.6403599  67.8940201  94.3378353  46.0095692
  68.6932945  93.7192917  46.4178228  68.3875465  95.0090504  44.6631527
  67.5816870  95.5331993  44.1493797  69.2511988  95.6578732  44.8088837
  68.8274479  94.0381718  43.5393000  68.4742403  94.1759109  42.3080730
  69.6650171  93.1953239  43.8663340  67.3719740  95.3771496  46.9700241
  68.1542635  95.7450771  47.8606081  66.1429691  95.8538151  46.8793917
  65.6247282  95.7415581  46.0197830  65.5935335  96.9355011  47.7940273
  66.2875557  97.7741146  47.8501177  64.2380428  97.4784851  47.2411585
  63.5336161  96.6565132  47.1136570  63.8584518  98.1790829  47.9849195
  64.4936705  98.1841373  45.9858322  63.6642408  98.5733128  45.6991339
  65.3041410  96.3979816  49.2234612  64.1819096  96.0161209  49.5684910
  66.3771391  96.4074707  50.0392628  67.2656965  96.6388512  49.6185207
  66.5114737  95.6165504  51.3402987  66.5682411  94.5530319  51.1083603
  67.8388023  96.0159111  51.9882679  67.8428125  97.0116806  52.4315786
  67.9496813  95.3850460  52.8702068  68.6540890  95.8898926  51.2758589
  65.2423620  95.9060860  52.1753740  64.6420527  94.9621964  52.6517153
  64.8900890  97.1759129  52.4016428  65.5038977  97.8651619  51.9914246
  63.9212513  97.6414204  53.3731127  63.9253426  96.9607639  54.2244577
  64.2827940  99.0949535  53.9285612  64.5517492  99.7740650  53.1194973
  63.2127142  99.6664333  54.8262835  62.2983360  99.8559380  54.2640495
  63.0299854  99.0246487  55.6881475  63.5043716 100.6460857  55.2048445
  65.5711985  99.0180588  54.8663282  65.2992392  98.5551071  55.8149147
  66.3401985  98.4687614  54.3231821  66.2098312 100.4075623  55.1911926
  66.5889072 100.8721733  54.2809582  65.5566978 101.0494232  55.7823992
  67.0292568 100.3592587  55.9083509  62.5390768  97.4074745  52.8639984
  61.6477299  97.1139145  53.5953522  62.3575163  97.4126625  51.4979649
  63.1396389  97.6466942  50.9033108  60.9972429  97.1302414  50.9390259
  60.2501011  97.7702427  51.4083719  60.9674311  97.6279926  49.4825172
  60.9791231  98.7156582  49.5529175  61.8223000  97.3419571  48.8697481
  59.7044611  97.0823765  48.7845612  59.8605156  96.0458755  48.4855413
  58.8173342  97.1426487  49.4150114  59.3587875  97.8639984  47.5393915
  59.4864893  97.4335575  46.4659882  59.1115475  99.1614532  47.6199865
  58.9255619  99.7464752  46.8179512  59.0272808  99.5871544  48.5320091
  60.6157589  95.6478024  51.0916758  59.4044828  95.3627682  51.3612747
  61.6544056  94.7443295  51.0754871  62.5282764  95.0658131  50.6842184
  61.3866377  93.3498192  51.3114977  60.3800440  93.2323074  50.9101725
  62.2950029  92.4512577  50.4253578  61.8356228  92.1868420  49.4729090
  63.1193876  93.0980396  50.1250744  62.9565239  91.1564064  50.9252882
  62.2506618  90.3920269  51.2502193  63.4716082  90.7208920  50.0690651
  64.1298771  91.3725376  51.8942165  64.9696589  90.7525063  51.5804768
  64.4582558  92.3824310  51.6484499  63.9110613  91.1530018  53.3220339
  63.2772923  90.4284859  53.6278486  64.7092915  91.6986370  54.3187428
  65.4399490  92.8077888  54.1747522  65.2754498  93.4532642  53.4155416
  65.8491421  93.2350349  54.9933672  64.7385740  91.2140083  55.5484200
  63.9356470  90.6513214  55.7909012  65.3749704  91.6942978  56.1684370
  61.3068104  92.8532887  52.7943993  60.5941200  91.8740940  53.1628466
  61.8526697  93.7030792  53.7051153  62.4548817  94.3939877  53.2807398
  61.7225695  93.7613583  55.1121664  61.9019842  92.7906227  55.5743265
  62.7180433  94.7021866  55.8764505  63.7316990  94.3654823  55.6590891
  62.5324059  95.6898880  55.4544640  62.4343252  94.9114418  57.3700571
  61.4110327  95.2790642  57.4464369  62.5992203  93.6309719  58.1993246
  62.5261259  93.9069176  59.2512798  61.8061829  92.9363155  57.9224777
  63.5441160  93.1348419  57.9776812  63.3876610  95.9255886  57.8268242
  64.3869495  95.4940987  57.7690220  63.3744955  96.8049240  57.1828461
  63.1446075  96.3458633  58.8027287  60.2946138  94.1540241  55.4056978
  59.5651960  93.4497833  56.1635685  59.7634506  95.2220917  54.8106956
  60.3847265  95.7525921  54.2168236  58.3673382  95.6783295  55.1683331
  58.3121061  95.7655239  56.2534332  58.0031061  96.9614697  54.4165421
  58.7247133  97.7159023  54.7299290  58.0704784  96.7483807  53.3497000
  56.6763067  97.6177025  54.8635149  56.0009193  96.9503975  55.3989124
  56.9379616  98.4020710  55.5737162  55.8666658  98.1299782  53.7113857
  55.1895618  98.9338303  54.0002871  56.6154480  98.6242008  53.0923796
  55.0074959  97.0765305  53.1007099  54.3388462  96.6355228  53.7159491
  55.3845406  96.1931229  52.1879768  56.4676905  96.4117718  51.5178251
  56.7388248  97.3838520  51.5584278  56.8896723  95.6978989  50.9412766
  54.6856594  95.0983524  51.9145107  53.9358521  94.7651196  52.5034428
  54.9732018  94.4443321  51.2005901  57.2435522  94.5751667  54.9481821
  56.4011478  94.3400860  55.8454275  57.3908281  93.8224888  53.8221598
  58.2600498  93.9115810  53.3155870  56.5878439  92.5340748  53.5076618
  55.5762482  92.9112625  53.3576202  56.8041182  91.9848251  52.1203375
  56.6926718  92.8523064  51.4698315  57.7513313  91.4477730  52.0707941
  55.3617239  90.8411789  51.8838596  55.5571461  90.0075054  52.9093790
  56.6847038  91.4569664  54.5157623  55.6377888  90.9042740  54.9402571
  57.8761244  91.2619877  55.0462818  58.6688852  91.7087555  54.6080732
  58.1125116  90.2916050  56.1134195  57.7324772  89.3082333  55.8365488
  59.6440125  90.1157379  56.1435175  60.1687050  91.0565662  55.9772873
  59.9148226  89.7301483  57.1264172  60.2270460  89.2152596  55.0743914
  59.8647833  88.2011700  55.2432346  59.9170685  89.5077610  54.0711689
  61.7629480  89.3412113  54.9538326  62.4215221  89.7882938  55.9248018
  62.2586870  88.9543152  53.8850307  57.4485826  90.6559753  57.4845743
  56.6760826  89.8841763  58.0989218  57.7281713  91.8832302  57.8891230
  58.3050442  92.4787998  57.3123980  57.0385122  92.5530052  58.9718437
  57.1735287  92.0065784  59.9052715  57.5766087  94.0281963  59.1488791
  57.5155020  94.6026993  58.2245874  57.0120668  94.4754410  59.9670219
  59.0672302  94.1221237  59.5120716  59.6050692  93.6745453  58.6763096
  59.5607805  95.6203938  59.4836283  59.1018867  96.0848904  58.6108351
  59.1892624  96.2084389  60.3228426  60.6471872  95.6928062  59.5344257
  59.3776989  93.4352684  60.8107567  60.4397964  93.4462738  61.0555744
  58.7522888  93.8008690  61.6251898  59.0973091  92.3839092  60.7465696
  55.4269314  92.5280857  58.8340235  54.7010899  92.2242165  59.7874737
  54.8339653  92.7617455  57.6194382  55.4557514  93.2250118  56.9722366
  53.3884811  92.8518391  57.3705244  52.9154539  93.4838009  58.1221724
  53.1619120  93.3490753  55.9868622  53.6589432  92.6719189  55.2922201
  52.1162653  93.1539917  55.7488203  53.4850836  94.8081493  55.6269979
  53.7790680  95.5596352  56.5761995  53.3636808  95.1702499  54.4271708
  52.8338242  91.3868427  57.4804878  51.8503046  91.1939144  58.1878042
  53.5533142  90.3478432  56.9706631  54.3411827  90.6321430  56.4062643
  53.2005644  88.9102840  57.1272707  52.1439743  88.7477684  56.9144297
  54.0879917  88.0444145  56.1581993  55.1331091  88.3365822  56.2604952
  54.1453028  86.5477943  56.4935064  53.2325363  86.1138058  56.0853195
  54.9441004  86.0314274  55.9611607  54.1999960  86.2694740  57.5459528
  53.6764526  88.2546425  54.6707726  52.6049757  88.0564308  54.6983290
  53.8508034  89.3235588  54.5478058  54.3425417  87.3914051  53.6156034
  55.4304123  87.4462986  53.6560202  54.0494013  86.3586330  53.8041544
  54.0321827  87.6939011  52.6154661  53.2977247  88.5426235  58.6228228
  52.2103977  88.2961273  59.1969442  54.4163370  88.5875225  59.3511152
  55.1781654  88.9565086  58.8001442  54.4913626  88.4139824  60.7927418
  54.3443108  87.3675156  61.0599184  55.9708118  88.7100506  61.2487459
  56.7825747  88.4833717  60.5575466  56.0640955  89.7958565  61.2278175
  56.4441538  88.1535053  62.6079559  57.4086952  88.5980606  62.8531694
  55.7264853  88.3912373  63.3931541  56.6103601  86.3667488  62.6759815
  57.4918270  85.9962845  61.2085104  58.4967566  86.4103889  61.2905931
  57.6574230  84.9217796  61.1302233  56.9018364  86.2969112  60.3426981
  53.4433556  89.2253780  61.6207647  53.0182600  88.6881351  62.6393175
  52.9376793  90.4316616  61.2024498  53.3250093  90.9044075  60.3983402
  51.8978500  91.1647034  61.9498539  51.9400883  90.8936691  63.0047703
  52.0264530  92.7296162  61.6513109  52.3523426  92.9152012  60.6278563
  51.1010647  93.3040714  61.6930962  53.0118847  93.2541847  62.6039457
  52.7377224  93.6884308  63.7327051  54.3128109  93.3044052  62.3301458
  55.0947762  93.5907936  62.9016447  54.5705748  92.8657532  61.4576483
  50.4455805  90.6785870  61.6990423  49.6251059  90.6307697  62.6052284
  50.2388573  90.2243042  60.4637241  51.0519934  90.1562595  59.8685074
  49.0748882  89.5074368  59.9315929  48.2278728  90.1018047  60.2742243
  49.1112185  89.4251251  58.4232378  50.1433945  89.3321514  58.0854988
  48.5380888  88.5342979  58.1662321  48.5727644  90.7068729  57.7009106
  47.4960184  90.7987785  57.8432703  48.9399147  91.6295528  58.1503248
  49.0843153  90.8575344  56.2464476  50.0796223  90.4166317  56.1909819
  48.3752108  90.2674198  55.6659031  49.1044950  92.2868538  55.7730150
  49.4942522  92.9833221  56.5153885  49.7012234  92.3583698  54.8636723
  47.7470541  92.7365780  55.4163599  47.4061203  92.3839092  54.5334721
  46.9794893  92.5867081  56.0554838  47.7630711  93.7070560  55.1370621
  48.8959789  88.1771851  60.6961727  47.7490711  87.8675747  61.0456085
  49.9248743  87.3466492  60.8329773  50.7568359  87.6659870  60.3576136
  50.0336504  85.9852123  61.3048983  49.2200899  85.3531742  60.9488821
  51.2328625  85.3451538  60.7357788  52.0929241  85.9598446  61.0013962
  51.3253117  84.3122387  61.0714054  51.1101055  85.4054737  58.8991070
  51.5521383  86.6584301  58.7590885  50.0382090  85.9456825  62.8493023
  50.3680754  86.9215488  63.5321140  49.6979475  84.7396851  63.3694983
  49.3427277  84.0795803  62.6926088  49.2969990  84.4511223  64.7801208
  49.7341824  85.3000641  65.3057289  47.7487850  84.6411133  64.9706984
  47.2926617  84.0168858  64.2023325  47.2132301  84.3387985  66.3715076
  46.2041521  84.7452259  66.4399195  47.2094584  83.2610512  66.5344524
  47.7282333  84.9865246  67.0809603  47.4301338  85.9809971  64.8248243
  47.0729208  86.1448097  63.9489460  49.7769737  83.1245708  65.2382326
  49.7724438  82.8248119  66.4543533  50.2051830  82.2157097  64.2797279
  50.3443718  82.4930000  63.3185625  50.6802082  80.9210396  64.5915604
  50.8790493  80.7532406  65.6500530  49.6406555  79.8440075  64.1230679
  50.0273132  78.8779449  64.4476080  48.6230946  79.8827553  64.5118809
  49.4617796  79.8598051  62.7396345  49.5802164  80.7341576  62.3613691
  51.9910145  80.5473328  63.8144732  52.4323797  81.2922859  62.9472399
  52.6002264  79.4438744  64.2213583  52.1993351  78.9581728  65.0109625
  53.5580873  78.7035704  63.4164143  53.8444710  79.2962360  62.5475979
  54.7917223  78.2939959  64.2589092  54.4343853  77.8981781  65.2095604
  55.2914715  77.4779558  63.7369680  55.8492136  79.4417667  64.6554089
  55.2186108  80.2460098  65.0344038  56.8130684  78.9475679  65.7972240
  56.2714291  78.6331606  66.6893482  57.5015259  78.1674051  65.4724646
  57.4123716  79.8167276  66.0683298  56.6638422  79.9014568  63.4727669
  57.5842142  79.3384838  63.3176184  56.0223627  79.7195196  62.6105022
  56.9321394  80.9492588  63.6077738  52.8635550  77.4421453  62.8998947
  52.0974302  76.8271971  63.5904408  53.2835245  77.0179033  61.7255068
  53.8023567  77.6267147  61.1088514  52.6227999  75.8627796  61.0703802
  52.1235514  75.2539825  61.8241835  51.4583111  76.3942528  60.1687002
  50.8523607  77.1757793  60.6271124  51.9562149  76.7326832  59.2600441
  50.2792883  75.1300383  59.6334791  49.9733925  74.6718597  60.8506060
  53.7001991  74.9788427  60.2941656  54.8127508  75.3587866  60.1023436
  53.2323503  73.8114548  59.8273325  52.3422384  73.4180832  60.0976229
  54.0561390  72.9422712  58.8765812  55.0769281  72.8186941  59.2382622
  53.4180450  71.5541315  59.0382242  52.4088287  71.7819118  58.6951494
  53.4568596  71.2909651  60.0952625  54.1926098  70.2846956  58.0135107
  54.1187429  73.5390711  57.4806881  53.0672359  73.9315844  56.9163370
  55.3344870  73.6711836  56.9520187  56.0993624  73.3476210  57.5268030
  55.5291271  74.3221331  55.6096506  55.0061846  75.2781868  55.5851507
  56.9919538  74.6940708  55.5149508  57.3176241  75.0995684  56.4728689
  57.5545549  73.8100147  55.2149153  57.2161198  75.7497501  54.3918848
  56.5143061  75.5583572  53.5801411  56.9355631  76.7466545  54.7318506
  58.6467266  75.7061625  53.7266493  58.6878824  74.7525692  53.2002783
  58.7335539  76.5226889  53.0098200  59.8270035  75.6488991  54.7075415
  59.7378254  74.6961451  55.2294731  60.7716227  75.6870556  54.1650152
  59.9246025  76.8031549  55.6340170  59.6373749  77.6465893  55.1583910
  59.2477417  76.8815613  56.3795376  60.8819771  77.0440531  55.8473492
  54.9417305  73.5041761  54.4994211  54.4946861  74.0494728  53.5058451
  54.9900341  72.1803427  54.7246265  55.2851772  71.9025850  55.6497478
  54.7574329  71.0614109  53.7765408  55.1298380  71.4091015  52.8129435
  55.5879116  69.8333883  54.2222643  56.6315746  70.1281071  54.1127014
  55.3911638  69.5109081  55.2447081  55.3571320  68.6762476  53.2654524
  54.3303347  68.3209085  53.3521414  55.4908705  68.9783669  52.2267294
  56.2616348  67.5091124  53.5426569  57.4111891  67.5296831  53.2460546
  55.7545948  66.4568758  54.1553879  56.3366747  65.6361198  54.2428255
  54.8137283  66.3767385  54.5137882  53.2474947  70.8371258  53.5333538
  52.8404474  70.3989315  52.4640656  52.3823214  71.1412048  54.4518232
  52.8420687  71.3831711  55.3179550  50.9150743  71.2225437  54.2336130
  50.7920313  71.0188341  53.1699038  50.3713655  70.0168276  55.1277065
  50.9287167  69.1079044  54.9011612  49.3054390  69.9142933  54.9242640
  50.5040646  70.2467346  56.9250965  50.2095079  72.5735664  54.5244455
  49.2948961  72.8840446  53.7903976  50.6857491  73.3345032  55.5106306
  51.4356518  72.8685760  56.0012007  50.1916027  74.6419525  55.8761883
  50.8033609  74.9073744  56.7384005  50.4250956  75.6619549  54.8412228
  49.6518469  75.5649471  54.0791368  50.3817272  76.6169357  55.3648949
  51.8135548  75.5731344  54.1270304  52.4828863  75.5847025  54.9872398
  51.8372345  74.6582699  53.5349464  52.1446466  76.7669630  53.2672834
  51.4275360  77.7248096  53.0052948  53.2381535  76.6361666  52.6288748
  53.7769175  77.3610830  52.1768475  53.7427425  75.7789898  52.8042126
  48.8126993  74.5825243  56.5112352  48.0893135  75.5420971  56.5450907
  48.5057163  73.4353828  57.0930147  49.1570568  72.6968622  56.8684244
  47.1290064  73.0101776  57.3389196  46.4069700  73.7492132  56.9916582
  47.0150328  71.6860962  56.5632677  47.3332214  71.9021225  55.5433702
  47.8457928  71.0574675  56.8838358  45.7857609  70.7662773  56.6269636
  46.0186863  69.9667692  55.9236622  45.7895470  70.2863121  57.6056004
  44.4577551  71.3316107  56.1562347  44.4264221  72.0963812  55.1900101
  43.4261990  70.8499718  56.6590023  46.6791725  72.8790522  58.8041782
  45.4563713  72.5559902  58.9708138  47.5234222  73.1829405  59.8126936
  48.4931087  73.3435631  59.5802784  47.2312975  73.0619001  61.2121058
  46.3340187  73.6709976  61.3216352  46.9715738  71.6019821  61.5694332
  46.4133120  71.1351013  60.7579756  48.2068110  70.7406902  61.9275284
  47.9755211  69.6911430  62.1093416  48.9476490  70.8305788  61.1330557
  48.7511730  71.0553646  62.8178930  46.0727644  71.6092539  62.6394081
  45.2249002  71.8104076  62.2365904  48.1798601  73.7059879  62.3224354
  49.4248962  73.7956572  62.1401739  47.6231241  74.1976309  63.4583330
  46.6660404  74.0221405  63.7290573  48.4475756  74.9450350  64.4094133
  49.0892935  75.6269312  63.8514471  47.5525856  75.5959654  65.4905987
  46.8497324  76.1309433  64.8519278  47.1313858  74.8010540  66.1060715
  48.2514715  76.7378807  66.3498211  49.1201210  76.3168430  66.8560553
  48.5665560  77.5338888  65.6751394  47.2728968  77.2570276  67.3134089
  46.4523506  77.9715014  66.7943001  47.3184919  77.0116377  68.5177469
  49.4710112  74.0622759  65.2081108  49.2045307  73.3184004  66.1729288
  50.7045698  74.1984701  64.8020601  50.9223223  74.8309803  64.0453482
  51.8419218  73.6645842  65.6155300  51.6237164  72.6405430  65.9185648
  53.2030392  73.6618853  64.8917103  53.2900047  74.7351456  64.7224331
  54.4102478  73.4497690  65.7545185  54.4765759  74.0874147  66.6360569
  54.4605732  72.3918343  66.0120869  55.2737236  73.7066460  65.1408958
  53.2487488  72.8602791  63.5673809  52.5635815  73.3738089  62.8928900
  54.2435694  73.0430651  63.1611490  53.0075502  71.3762426  63.7047815
  52.1004772  71.1777925  64.2756844  52.7507734  70.9713173  62.7259064
  53.7586737  70.7422304  64.1758966  51.8630791  74.3385649  66.9680166
  51.7225075  73.6971951  68.0307913  52.0369005  75.6687164  66.9603395
  52.0786762  76.1601973  66.0789776  51.7481518  76.5604782  68.1435490
  50.9972429  76.0719967  68.7645292  53.0074930  76.5991735  69.1469765
  53.3560228  75.5762482  69.2892981  54.2212391  77.3485804  68.5965872
  54.7759438  76.5803289  68.0578899  53.8767481  78.0629206  67.8488302
  54.7302485  77.8582001  69.4146967  52.5936604  77.0693731  70.4055119
  53.2094431  76.8698025  71.1144400  51.2382603  77.9487276  67.7412033
  51.4268255  78.3804178  66.5608788  50.7372522  78.7105560  68.7235594
  50.5504227  78.2817173  69.6187115  50.5791426  80.1349163  68.5699892
  50.1492882  80.2612972  67.5763321  49.6585226  80.7689476  69.5809698
  48.7194157  80.2178383  69.6305132  50.2592039  80.9233570  70.9668112
  51.1713505  81.5133858  70.8776045  49.5612049  81.5276432  71.5462446
  50.4316521  79.9669123  71.4603376  49.2363358  82.0681095  69.1292286
  48.6860132  82.1078110  68.3436251  51.9696569  80.8462334  68.5055399
  52.8959942  80.4673290  69.1960621  52.0951748  82.0080757  67.8622198
  51.3216352  82.2557259  67.2618818  53.3508968  82.6660919  67.4917650
  54.0289450  81.8556404  67.2243309  53.2356453  83.6384869  66.3423204
  54.2570210  83.8617992  66.0340500  52.7169371  83.1638336  65.5094051
  52.5738764  84.9514389  66.7128897  51.5083599  84.7664738  66.8491411
  53.0139351  85.2390003  67.6677513  52.7905464  86.0828304  65.7258511
  53.8570642  86.2808800  65.6190109  52.3957777  85.7388306  64.7698545
  52.0817518  87.2922802  66.1556768  51.0071516  87.1277905  66.2348938
  52.5056982  87.4741745  67.1432447  52.3657894  88.4325981  65.2660704
  53.3535528  88.5620308  65.4324341  52.2981167  88.0482960  64.3344975
  51.7383671  89.2083073  65.4232836  54.0531969  83.2740593  68.8038683
  55.2177191  83.6474609  68.6619902  53.3654833  83.2746792  69.9657440
  52.4121380  82.9510880  69.8850155  53.7388849  83.8874054  71.2448978
  54.3450117  84.7795010  71.0871840  52.4743080  84.2261410  72.0291710
  51.8788338  83.3168507  72.1110678  52.6892090  84.7664070  72.9511404
  51.6104603  85.1814175  71.2731981  52.0367193  85.9822941  70.4646778
  50.3333092  84.9407959  71.1951780  49.7769022  85.5483150  70.6108570
  49.8244143  84.3600082  71.8461847  54.5147896  82.9010487  72.0515156
  55.3107977  83.3503056  72.8809214  54.5100403  81.5838146  71.7617464
  53.9616966  81.3652802  70.9421968  55.3375435  80.5582237  72.4571800
  55.6688881  80.8178043  73.4626293  54.6279860  79.1847420  72.5012302
  54.5890617  78.8550377  71.4630175  55.4147768  78.6302805  73.0127382
  53.2388592  79.1072512  73.1113243  52.6232147  79.7018623  72.4363995
  52.7647877  78.1339264  72.9848862  53.0771542  79.6025324  74.5366716
  51.9320488  80.0366402  74.8045254  54.0567446  79.6919584  75.2971268
  56.8002844  80.3311634  71.7728901  57.6119757  79.5608139  72.1979666
  57.1965647  81.2210178  70.8870459  56.5358257  81.8563557  70.4629374
  58.6227083  81.3226509  70.5412292  58.9951468  80.3294754  70.2902508
  58.7397528  82.1133232  69.1743469  58.2453632  83.0805111  69.2650127
  60.1981783  82.4952888  68.8069630  60.6892157  81.5332794  68.6602545
  60.3712893  82.9396152  67.8268099  60.6622028  83.1039429  69.5830631
  58.0354452  81.3388824  68.0773067  58.6194658  80.4350758  67.9036808
  57.0101118  81.1353683  68.3861303  58.0336714  82.2168446  66.7652273
  57.2635651  81.8262863  66.1000204  57.6068354  83.1943607  66.9896746
  59.0677452  82.2452736  66.4217424  59.4339180  81.9054794  71.7347336
  58.9522791  82.8016472  72.3486853  60.5384302  81.3099670  72.1504974
  60.7486057  80.4066181  71.7506361  61.3865614  81.6969776  73.3184719
  61.1558628  82.7507210  73.4750175  61.0140848  80.8941269  74.5839548
  61.2075043  81.5779400  75.4104471  59.9525404  80.6478500  74.5600319
  61.7749929  79.6372604  74.7710514  61.6189575  78.5612583  73.9697075
  61.0615730  78.7999487  73.0759811  62.1265650  77.3205996  74.2275906
  62.1019506  76.5028095  73.5226011  62.8470469  77.1221733  75.4197168
  63.2972956  76.1476231  75.5377531  63.0594826  78.2039213  76.3381767
  63.7149000  78.0994892  77.1901846  62.4487495  79.4522762  76.0223246
  62.5412989  80.1725483  76.8217182  62.8605032  81.7267418  72.9156923
  63.2519913  81.2303638  71.8547726  63.6569118  82.2711372  73.7733650
  63.2174540  82.5164509  74.6490335  65.1103067  82.5074291  73.6183739
  65.3824711  82.1673012  72.6192045  65.4832840  83.9673805  73.7183285
  64.8467302  84.6364212  73.1392860  65.6155634  84.2426586  74.7646713
  66.6370296  84.1032028  73.0429459  67.3551941  83.7239933  73.5548449
  65.8571053  81.5851593  74.5812941  66.4808893  82.1312904  75.5435371
  65.9769583  80.2682972  74.3164444  65.4730272  79.8931742  73.5255957
  66.7252254  79.3594551  75.1887035  66.2135029  79.3794680  76.1509132
  66.7651272  77.9465389  74.5218039  65.7578993  77.6406384  74.2389250
  67.3917818  77.9891062  73.6309624  67.3135090  76.8151093  75.4804564
  68.3937120  76.9587898  75.5055237  66.7290354  76.7189837  76.8969965
  66.8802404  77.7004004  77.3465157  65.6774378  76.4537096  77.0059681
  67.3356485  75.9083462  77.3007154  67.1228933  75.4847717  74.7622728
  67.8790760  74.7679138  75.0822878  66.1301279  75.0464058  74.8640203
  67.2891665  75.5240202  73.6857462  68.1651831  79.7829723  75.5186510
  68.7152290  79.7273684  76.6656160  68.8888836  80.2402687  74.4850636
  68.3604908  80.4959297  73.6631489  70.2212381  80.8102226  74.4618464
  70.7881546  80.5351925  75.3512669  70.9376335  80.2477074  73.2207012
  71.0831785  79.1675901  73.2046652  70.2775049  80.6237602  72.4390888
  72.2696447  80.8989525  73.0941153  72.6362848  80.6521320  72.2419119
  70.1703072  82.3436546  74.4981289  69.4338226  83.0281830  73.7547636
  71.0650635  82.9562759  75.3156805  71.6523409  82.3925209  75.9134912
  71.2870073  84.4623947  75.3468323  70.3194904  84.9643707  75.3410482
  72.0163727  84.8975658  76.6981745  71.6179514  84.3620110  77.5598764
  72.9713488  84.4138527  76.4928818  72.1568394  86.3764000  77.1475554
  72.9883432  86.4691639  77.8461933  72.3096991  87.0586205  76.3113070
  70.8255291  86.8136406  77.8636503  69.9916744  86.5294552  77.2217607
  70.7046747  86.1884022  78.7482786  70.9311104  88.2967472  78.1626225
  71.0298920  88.9945221  77.4391222  71.2043667  88.7659264  79.3596840
  71.6761541  89.9600697  79.4257212  71.6084480  90.5819607  78.6327791
  71.7080402  90.3371525  80.3621483  71.2177420  88.0744457  80.4988384
  70.7934952  87.1613407  80.4191113  71.5326405  88.3784389  81.4090633
  71.9355106  85.0020027  73.9929152  71.9128466  86.2152958  73.7444639
  72.3947191  84.0943050  73.1680155  72.0699978  83.1565857  73.3560038
  72.8501177  84.3422031  71.8029690  73.5786486  85.1524830  71.8310928
  73.4944534  83.0589199  71.2677431  74.1795111  82.7007675  72.0361996
  72.7708626  82.2685909  71.0680056  74.2778969  83.3191967  69.9327993
  74.2253256  82.3576164  69.4222116  73.7849569  84.0531063  69.2952347
  75.7958412  83.5357380  70.1263332  76.4825773  82.7278805  70.8030653
  76.4298248  84.4863224  69.5881844  71.6785431  84.7690773  70.8859873
  71.8549156  85.5490398  69.9461651  70.4547691  84.3193913  71.2617111
  70.3197813  83.7006474  72.0485020  69.1509438  84.5734501  70.5596447
  68.7164688  85.4183960  71.0938740  69.3702412  84.8836327  69.5379782
  68.2308102  83.3060360  70.5279255  68.6459827  82.2073936  70.8737946
  66.9688416  83.5490036  70.0461674  66.4264870  84.8631573  69.6030855
  67.1178246  85.4142952  68.9655876  66.2148666  85.4195213  70.5162048
  65.0863504  84.5418739  68.9620209  65.2016115  84.3682861  67.8921270
  64.3685246  85.3394318  69.1536713  64.6638298  83.2858753  69.7636318
  63.8780117  82.6657295  69.3323421  64.2351770  83.5694695  70.7248449
  65.9369421  82.5333118  69.9605989  65.9040117  81.9060421  70.8514118
  66.1626816  81.5375710  68.8168049  65.7688999  80.3800201  68.9452267
  66.8542004  81.9082355  67.7767372  67.0766401  82.8913403  67.7123785
  67.1680975  80.9638309  66.6826153  66.9763613  79.9699593  67.0870447
  66.2604284  81.3316250  65.5492592  65.2177763  81.3563251  65.8660698
  66.5774870  82.2936916  65.1467705  66.3193083  80.3172588  64.3675661
  67.3127413  80.3292751  63.9191818  66.2414408  79.3504810  64.8649311
  65.0709629  80.5405903  63.0964899  65.6092215  82.1733665  62.4825239
  65.4101276  82.9459095  63.2252407  66.6491842  82.2170353  62.1589947
  64.9396086  82.4210835  61.6589022  68.6004925  81.1332130  66.2173414
  69.0532351  82.2182846  65.7910824  69.2676163  80.0058937  66.0607100
  68.8730335  79.1162586  66.3308001  70.6547546  79.7966194  65.5157852
  70.9303570  80.6291962  64.8685074  71.6532087  79.8944521  66.6294098
  71.8557262  80.9518337  66.7997885  71.2011003  79.4621468  67.5220490
  72.5586128  79.3585157  66.3445711  70.6931877  78.4680653  64.6754217
  69.9972582  77.4878407  65.0026989  71.5210676  78.5422945  63.6385107
  72.0953608  79.3559361  63.4703636  71.9431543  77.3057938  62.9830122
  71.0973406  76.7971897  62.5203848  72.7012730  77.7419329  61.7268467
  73.7313795  77.9424524  62.0214462  72.7617121  76.8702173  61.0752583
  72.2607660  78.6066103  61.2304831  72.7520990  76.3891315  63.8787079
  73.6051083  76.8963671  64.6096897  72.6653576  75.0890112  63.6516714
  71.9289017  74.6430254  63.1236219  73.5893202  74.0933990  64.2752981
  74.5222473  74.5592546  64.5926619  72.9192638  73.5315418  65.5235434
  71.8944168  73.3113575  65.2247047  73.4022522  72.5934362  65.7970333
  72.8806162  74.4318342  66.7633820  73.9302301  74.2547512  67.7702332
  74.7723866  73.5909033  67.6418400  73.7413263  74.9848080  68.9645910
  74.4296074  74.8442268  69.7849035  72.5391197  75.8501577  69.1431713
  72.4181700  76.6543913  70.2642155  73.1289721  76.4648914  70.8810234
  71.5309477  75.8717060  68.1721783  70.7070732  76.5501928  68.3373737
  71.7243099  75.1757050  66.9771004  71.1612129  75.3868484  66.0800266
  73.9325237  72.9349041  63.2986355  73.1641626  72.6071358  62.3496008
  74.9971676  72.1904898  63.5438204  75.4551220  72.2767401  64.4398880
  75.3326464  70.9758615  62.7455425  74.6738625  70.8167028  61.8918657
  76.7677355  71.0986137  62.1246862  76.6115761  71.9397020  61.4491987
  78.0482960  71.2371588  63.0212450  78.3037758  70.2310991  63.3539295
  78.7957811  71.5740585  62.3030043  77.9088879  72.0536566  63.7297630
  76.9838142  69.9799156  61.1557245  76.1290503  70.0122070  60.4801226
  77.8440571  70.2534962  60.5447960  77.1044874  68.9602327  61.5214872
  75.2366590  69.7050428  63.5717678  75.8290958  69.5205784  64.6320343
  74.5867777  68.7312317  62.9494047  74.1118002  68.9151812  62.0772457
  74.3134546  67.3606682  63.4699678  73.9303303  67.3960304  64.4898081
  73.1766319  66.7363501  62.6190567  72.5956011  66.2588787  63.4080601
  72.5924492  67.5193071  62.1355295  73.4697056  65.7055902  61.5373230
  74.4423914  65.7510090  60.7287693  72.6654196  64.6413755  61.3790083
  72.8084230  64.0625620  60.5637646  71.8871975  64.4149637  61.9816732
  75.6611061  66.5521717  63.5306358  76.6476536  66.9985008  62.9453039
  75.7171249  65.3425407  64.0127182  74.5991611  64.5625114  64.5423889
  73.7246132  64.5265341  63.8927984  74.2596531  64.9796724  65.4904413
  75.1177120  63.1932402  65.0055647  74.7060299  62.4485922  64.3243074
  74.8104811  62.8499126  65.9934092  76.5788603  63.2186317  64.8817730
  76.9011164  62.2595358  64.4763374  77.0056391  63.1866646  65.8842421
  76.9361305  64.5264816  64.0225601  77.6590347  65.1871824  64.5010853
  77.4057293  63.9785099  62.6478577  78.5708523  63.4875250  62.5587034
  76.6067696  64.1123629  61.5819454  75.6713772  64.4819736  61.6742659
  76.8912125  63.6162710  60.2271461  77.8747082  63.1471300  60.2545309
  75.8757019  62.5702620  59.6927357  74.8885298  63.0135632  59.5620680
  76.1881542  62.2403908  58.7019491  75.6804752  61.3135576  60.5622530
  75.1565981  61.3059044  61.8484449  74.9176168  60.0282097  62.2030306
  74.5560789  59.6988773  63.1659603  75.1995802  59.2459726  61.1198568
  75.0930071  58.2428408  61.0701275  75.7652760  60.0131226  60.1439524
  76.1550903  59.6908712  59.1897011  77.0172548  64.8436975  59.2958307
  77.0750856  64.6931124  58.0315495  77.1938848  66.0679483  59.8022842
  76.9695997  66.2027502  60.7777977  77.5425196  67.2746611  58.9837027
  78.2627106  67.8427696  59.5724964  78.1238604  67.0076418  58.1011868
  76.2975693  67.9933977  58.4169817  76.4651155  68.9834261  57.7232599
  75.0533533  67.4767780  58.5690165  74.8752165  66.6375065  59.1019297
  73.8567019  68.1364059  58.0597401  74.0012646  68.5013628  57.0428753
  72.7426147  67.0479298  58.0206394  72.7518606  66.5088320  58.9679480
  71.7755175  67.5288582  57.8738594  72.9911661  65.9613562  56.9591856
  72.7520657  66.1836672  55.5874157  72.3483562  67.1484709  55.3180265
  72.9867458  65.1449585  54.6336079  72.7015543  65.2488804  53.5971355
  73.5318375  63.9485884  55.0625706  74.0614986  62.9719448  54.2415810
  73.6254168  62.9290485  53.3874178  73.7753153  63.7478685  56.4036083
  74.2388868  62.8059816  56.6572809  73.4925795  64.7186279  57.3908424
  73.7547350  64.6595049  58.4368753  73.4430027  69.3497801  59.0130138
  73.2994604  69.3085098  60.2494860  73.4426928  70.5701733  58.3966160
  73.6155415  70.5333948  57.4021959  73.2705116  71.8062925  59.1302204
  73.6411572  71.5993118  60.1341629  74.1486406  72.9287815  58.5534906
  73.7891722  73.2893133  57.5896978  74.1168833  74.2577410  59.3872738
  73.2064533  74.7998857  59.1317129  74.1939640  74.0290546  60.4502249
  74.9525309  74.9288654  59.1888237  75.6960583  72.5681829  58.3112955
  75.7771015  71.8403625  57.5039482  76.2035847  73.4814596  58.0007362
  76.1303234  72.2004604  59.2409706  71.7599583  72.1616173  59.1303778
  71.0944843  72.1143436  58.0826235  71.1912012  72.6897335  60.1905537
  71.7940903  72.9335737  60.9633207  69.7755527  72.7783346  60.4905415
  69.1637802  72.9071093  59.5976496  69.4688129  71.5180922  61.2879705
  70.2056742  71.3815928  62.0794916  68.5595751  71.7280340  61.8512821
  69.2581940  70.2277565  60.5491543  68.1393480  69.9707937  59.7317934
  68.3298540  68.6560583  59.3825674  67.7020788  68.1306648  58.6781073
  69.3714237  68.1109047  60.0357056  69.6386194  67.1370459  60.0533104
  69.9660778  69.0748835  60.7484341  70.7372379  68.9406586  61.4925432
  69.4616461  73.9970970  61.4294529  70.2671814  74.3049335  62.3212051
  68.3315706  74.7320557  61.2108040  67.6708078  74.3508148  60.5488729
  68.1355619  76.0472679  61.8670607  69.0992212  76.4361572  62.1960497
  67.7213907  77.0017290  60.7561350  68.4855461  76.8028545  60.0047255
  66.7580795  76.7190981  60.3315687  67.7268553  78.5244751  61.1144304
  66.8321848  78.6592007  61.7223120  68.6608553  78.6813116  61.6540098
  67.5016356  79.4899511  59.8863220  67.0178747  79.0235329  58.8389206
  67.6297855  80.7262135  60.0403833  67.1914005  76.0133505  63.0760002
  65.9966755  76.2353134  62.8317213  67.7380514  75.9454632  64.3438578
  68.7350225  75.7839537  64.3521261  66.9113922  75.5114126  65.4922628
  66.1447859  74.8674631  65.0612783  67.6698399  74.6489811  66.5974569
  68.2132578  75.3397751  67.2421312  66.5607691  73.9835930  67.5161743
  67.0562744  73.4509706  68.3278990  65.9877729  74.8215628  67.9131460
  66.0004091  73.2462549  66.9413519  68.6855841  73.6458015  66.0335302
  69.4278955  74.1930485  65.4524994  69.2276859  73.0827761  66.7932892
  68.0147362  72.6214027  65.1087809  67.4010801  73.1052160  64.3488741
  68.7097120  71.9997501  64.5442867  67.3971653  71.9054508  65.6511116
  66.2552547  76.7818737  66.0755062  66.8639517  77.3958063  66.8990993
  65.0048256  77.0075083  65.7250595  64.5807409  76.3712692  65.0651693
  64.1355038  77.9541922  66.4425755  64.7493458  78.8488674  66.5467548
  62.9772377  78.2870817  65.5858946  63.3583260  78.5796070  64.6074772
  62.4056482  77.3797464  65.3905964  61.9003630  79.2156649  66.1473131
  61.6998243  79.0806103  67.2101593  62.3544836  80.6904125  65.9291172
  62.5795937  80.9706688  64.9000931  61.6376925  81.4069653  66.3301992
  63.2275057  80.9586525  66.5240765  60.5432796  79.0593672  65.4221964
  60.5407715  79.5292902  64.4386959  60.2738142  78.0033350  65.4051542
  59.7308493  79.5893145  65.9194088  63.6947489  77.2933483  67.7654362
  63.1380320  76.1737967  67.6889086  63.8319445  77.9694605  68.9563370
  64.1979837  78.9070797  69.0399027  63.3915186  77.3178530  70.1711559
  63.5161495  76.2480164  70.0037575  64.2798567  77.5479698  71.3599157
  63.9009809  76.9550705  72.1923971  65.6496525  76.8190289  71.1203051
  66.1802149  77.3628616  70.3387356  66.3180399  76.8188190  71.9813299
  65.5586338  75.7593918  70.8815908  64.5226097  78.9081049  71.7674255
  63.7594175  79.4901896  71.7852116  61.9072056  77.5922489  70.2884912
  61.4747524  78.7659359  70.1608181  61.1318111  76.6717863  70.7125282
  61.3850832  75.6953812  70.7633591  59.6964550  76.7920494  70.8339357
  59.4771242  77.8509140  70.9710693  58.8681936  76.2829208  69.6151161
  59.3371582  75.3678751  69.2533588  57.3428822  76.2538290  69.8293161
  57.0873547  75.3425407  70.3700209  57.0266438  77.1577168  70.3499746
  56.8104982  76.1783552  68.8811779  59.0409756  77.2402620  68.4655046
  60.0551414  77.1789265  68.0707836  58.4005117  76.9936085  67.6187086
  58.8575029  78.2864237  68.7104225  59.2358875  76.2368965  72.1697998
  59.3344498  75.0121832  72.2884178  58.6939192  77.0931768  72.9983521
  58.5468054  78.0254602  72.6387548  58.4154558  76.7716885  74.4403505
  59.3599415  76.4184237  74.8541880  58.0905771  78.1249714  75.0938940
  58.8736820  78.8712692  74.9601603  57.1354389  78.4786320  74.7056484
  57.9751492  78.1706238  76.6114855  57.5013018  79.3291950  77.2063971
  57.2157097  80.1618767  76.5807247  57.1876144  79.3242264  78.6015987
  56.8235922  80.1898479  79.1350603  57.4929094  78.2485437  79.3600273
  57.2669411  78.2520247  80.7113457  57.2576094  77.3539686  81.0504818
  58.0820751  77.1459627  78.7864399  58.3042860  76.2769747  79.3880033
  58.3003283  77.0737839  77.3844051  58.6600733  76.1147785  77.0419264
  57.3528385  75.6986618  74.6641779  57.5770855  74.6241856  75.3103399
  56.3364840  75.7689190  73.8541222  56.3811779  76.5402842  73.2036638
  55.3570175  74.7446442  73.7132931  55.7533121  73.8333941  74.1612625
  54.1271639  75.2421427  74.4935942  53.9097452  76.2324715  74.0935087
  53.2292986  74.6844816  74.2272282  54.3615437  75.5147171  75.9418392
  54.6782351  74.5946026  76.4329624  55.1806259  76.1981297  76.1657810
  53.0335331  75.9209585  76.5464163  52.6155663  76.7806530  76.0226488
  52.3592854  75.0645351  76.5406942  53.5134554  76.4699507  77.8962135
  53.9130020  75.6513119  78.4947872  54.2857838  77.2277784  77.7646399
  52.3385239  77.1525335  78.5074711  51.5655470  76.5075588  78.5888004
  52.6652431  77.3762655  79.4366074  51.9655228  77.9842758  78.0725241
  54.9453259  74.5497561  72.2579622  54.8837996  75.5208540  71.5194559
  54.4462681  73.2931042  71.9804907  54.4522667  72.6682997  72.7740192
  53.8315392  72.8798485  70.6753826  53.3303404  73.6870384  70.1412106
  55.0393343  72.4903107  69.7171497  54.5744276  72.2711563  68.7559366
  55.8037090  73.2673550  69.7229052  55.5228949  71.5606356  70.0171089
  52.8351021  71.7000866  70.8990431  52.6173878  71.1837006  72.0035458
  52.1782637  71.4147568  69.8359919  52.3158121  72.0345259  69.0504599
  51.1604834  70.4689741  69.5727158  51.3686180  69.5939302  70.1884079
  49.8125076  71.0163927  70.1073980  49.9433279  71.5352488  71.0570192
  49.4571924  71.7075586  69.3431091  48.5205603  69.7787905  70.3639698
  49.1142464  69.2672825  71.4460039  51.0338831  69.9436045  68.0935812
  51.6233492  70.5866480  67.2211218  50.3245306  68.7434721  67.9015160
  50.0324631  68.2893419  68.7550735  50.2027607  68.0914640  66.5836239
  49.5645523  67.2213364  66.7374563  49.4828987  69.0316772  65.6115389
  50.0995874  69.9126625  65.4335976  49.4105101  68.5319376  64.6455574
  48.1016254  69.5000505  65.9971952  47.0731592  68.7714577  66.1332083
  47.8311205  70.7657433  66.0884571  46.8495369  71.0019684  66.0602856
  48.5588455  71.4589119  65.9883070  51.3979387  67.2923708  66.0375786
  51.5236235  67.0188093  64.8480129  52.2892523  67.0087385  66.9040108
  52.0438433  66.9354916  67.8810024  53.6970472  66.5514469  66.6378784
  53.8986731  66.5073538  65.5675936  54.7284031  67.5126696  67.2534847
  54.3244410  67.8949451  68.1909180  55.6831264  67.0216322  67.4418497
  54.9478769  68.7647772  66.4373779  53.9932442  69.1909075  66.1288500
  55.6261969  69.7847414  67.2661686  56.5699577  69.3741655  67.6251173
  55.8615828  70.7290411  66.7752504  55.0274944  69.8715878  68.1728697
  55.8136129  68.5572577  65.1690578  55.3086948  67.9086924  64.4531441
  55.9694719  69.5630503  64.7789526  56.8032646  68.2507706  65.5078173
  53.8713646  65.1590776  67.2256660  54.1957617  65.0328779  68.3858824
  53.8458729  64.1922712  66.2896252  53.5414028  64.4676208  65.3668118
  54.2563915  62.7351952  66.4554644  53.7421322  62.2070742  67.2584152
  53.9688826  61.9891453  65.1406288  52.8893995  61.8463516  65.0914383
  54.2291164  62.6804256  64.3390608  54.6210670  60.6730700  64.9878550
  54.4083929  59.8177052  65.8159208  55.3983307  60.3497076  63.9643145
  55.8842373  59.4711161  64.0742016  55.5974627  61.0139084  63.2299519
  55.7556725  62.6931906  66.8632174  56.5470743  63.5001802  66.4263153
  56.0996008  61.6083956  67.5174999  55.3744221  61.0860348  67.9879761
  57.5050020  61.2942982  67.9401922  58.1145239  62.0548916  67.4522543
  57.6454163  61.3554907  69.4915581  56.8695641  60.6909132  69.8716784
  58.6375618  61.0407448  69.8151207  57.3696184  62.7449083  70.0628805
  56.3345671  63.0553007  69.9199724  57.5030661  62.5795555  71.6357660
  56.8424463  61.7929745  72.0004177  58.5154533  62.2341919  71.8452740
  57.3310328  63.5012817  72.1915865  58.3693981  63.8747692  69.6555662
  58.1063032  64.7941494  70.1786518  59.4094610  63.6009741  69.8327971
  58.2670164  64.0475416  68.5842276  58.1074762  59.9465132  67.3676634
  57.4067354  58.9552689  67.2721291  59.3794107  59.8821259  66.9845390
  59.9635744  60.5768919  67.4274349  60.0375986  58.6945438  66.3930225
  59.3846416  57.8652573  66.6651058  59.9737883  58.7620068  64.8057795
  60.8722782  59.2443514  64.4208717  59.9941826  57.4015188  64.2214155
  59.1075182  56.8633127  64.5564604  60.0877762  57.4858952  63.1387186
  60.8652782  56.8403101  64.5595598  58.7669325  59.5020962  64.0935087
  58.9197969  59.3454361  63.0257082  57.8447437  59.1055870  64.5183039
  58.6910152  61.0276699  64.2130423  58.7061930  61.5523624  63.2577515
  57.7435875  61.2715149  64.6936941  59.5752192  61.3640594  64.7544527
  61.4431000  58.3024073  66.8529224  62.4196339  59.0387058  66.7086458
  61.6015673  57.0279789  67.2468567  60.7425356  56.5426064  67.4626970
  62.8295231  56.4599562  67.7596664  62.7716494  55.4320002  67.4018192
  63.7554789  56.9289446  67.4268627  62.8433275  56.3639784  69.2680264
  62.0409918  55.6555223  69.8057985  63.7553549  57.0591259  69.9225187
  64.1584158  57.8196812  69.3941164  64.1865635  56.9032335  71.3049316
  63.2748222  56.8072414  71.8945169  65.1525164  55.6468248  71.5388012
  65.8953714  55.6288528  70.7413435  65.6974506  55.8531475  72.4599838
  64.4930553  54.2563725  71.5454483  63.9062881  54.0740776  72.4457645
  63.7529087  54.1796017  70.7489538  65.4777908  53.0926561  71.2092543
  66.4514923  53.3489943  71.6267538  65.1625490  52.1792889  71.7137241
  65.5957413  52.9284477  69.7210979  66.3683319  53.3844519  69.2571402
  64.8902607  52.1298170  68.9472866  65.2113485  52.0265865  67.7035666
  66.0414076  52.5205994  67.4085093  64.8286581  51.2672281  67.1585608
  63.8879299  51.4087820  69.3286705  63.7125969  51.4802599  70.3207636
  63.4593153  50.7316113  68.7139893  64.8257875  58.2225227  71.7695999
  65.5439329  58.8264084  70.9974718  64.4939709  58.6847258  73.0108833
  63.4335518  58.1851912  73.8467407  63.7388420  57.2289085  74.2714977
  62.5091124  58.2269144  73.2707453  63.2915163  59.2634249  74.9716997
  63.0377579  58.8326263  75.9402657  62.4958992  59.9672699  74.7273874
  64.6642542  60.0318098  75.0460434  65.2639055  59.6039629  75.8494520
  64.5027256  61.0877228  75.2629519  65.2689362  59.8128939  73.6497116
  64.9821186  60.6912804  73.0715418  66.7483187  59.5503378  73.7389755
  67.1212864  58.4191799  74.1534376  67.6047897  60.5117989  73.4087515
  67.1920490  61.3494682  73.0239725  69.0753889  60.3067732  73.5029411
  69.2656183  59.6796227  74.3739128  69.4754410  59.6341228  72.2430658
  68.9444017  58.6822653  72.2351265  69.2061281  60.2623606  71.3940144
  70.8746386  59.3389893  72.2324753  71.0481739  58.8906050  71.4015484
  69.7889614  61.6058350  73.8283920  69.3538809  62.6601934  73.4321499
  70.8749819  61.5400314  74.5926476  71.2244892  60.5984974  74.6996880
  71.8073463  62.6565409  74.6339226  71.2163115  63.5254717  74.3445444
  72.2121429  62.9594898  76.1094093  73.0190372  63.6824942  76.2289667
  71.1005974  63.5062218  76.9514513  70.5849600  64.3709183  76.5336943
  70.3884840  62.7424526  77.2639418  71.4596510  63.6858892  77.9648113
  72.5296879  61.8119287  76.7356825  73.4663725  61.6904163  76.5640354
  73.0068731  62.6645231  73.6637354  73.7951565  63.5538149  73.7923145
  72.9979038  61.7396450  72.6558685  72.1901989  61.1387205  72.5746202
  74.1507101  61.5704679  71.7890453  75.0960970  61.5833044  72.3314333
  73.9395332  60.2655220  70.9817410  73.9595079  59.4731092  71.7299271
  72.9846287  60.3856850  70.4700613  75.1185989  60.0089264  70.0144529
  75.1178026  60.8623409  69.3363810  75.9928799  59.9234104  70.6597614
  75.0681305  58.6423683  69.2829704  76.1666203  58.0106544  69.0990734
  73.9308786  58.1833172  68.9545202  74.2770815  62.7795649  70.7902765
  73.5203171  62.8966379  69.8033905  75.2349710  63.6650848  71.0521078
  75.8193254  63.3824301  71.8258858  75.4692841  64.9567986  70.4204988
  76.2777758  65.4154062  70.9898138  75.8732367  64.7285748  68.9387846
  76.5907526  63.9083910  68.9627504  74.9265480  64.4371986  68.4838343
  76.5066099  65.9601736  68.2832861  77.8390598  66.2542009  68.3835936
  78.0496359  67.3725462  67.7058411  79.0101862  67.8481436  67.5733519
  76.9366407  67.7311897  66.9506931  76.8348312  68.4090996  66.2089539
  75.9600019  66.8611240  67.3511839  74.9468994  66.7564249  66.9919300
  74.2766953  65.9419537  70.6784391  73.9667606  66.7622566  69.7963619
  73.5065126  65.8496904  71.7721367  73.7465000  65.1349735  72.4442101
  72.5193405  66.8562889  72.0779753  71.7204428  66.8536043  71.3364553
  71.8752337  66.5841818  73.4341621  71.2936592  65.6623554  73.4236860
  72.6699066  66.4555216  74.1690350  70.9908915  67.7125025  73.6746120
  70.3684235  67.4239254  74.3460703  73.0865145  68.2728577  72.1938038
  74.0059137  68.4592915  73.0282402  72.5006676  69.1619635  71.3569784
  71.7089891  68.9060879  70.7843733  73.0101395  70.5455399  71.2355995
  74.0937948  70.5219793  71.1205482  72.3891354  71.2918615  69.9871683
  71.3530016  71.5310431  70.2265835  72.8699207  72.2552061  69.8170948
  72.5869513  70.6111097  68.6485100  73.7897444  70.3495979  68.0919170
  74.7256279  70.5765915  68.5807991  73.6542797  69.6654272  66.8869781
  74.4091511  69.2820215  66.3362789  72.3523808  69.7027922  66.4944696
  71.7887688  69.3714046  65.2901745  72.3611879  69.0056801  64.4505405
  70.3778410  69.5417452  65.1904869  69.8956728  69.2660952  64.2642403
  69.6073914  69.9807024  66.2695980  68.5296297  70.0499249  66.2758636
  70.2170658  70.3149748  67.5415945  69.6700001  70.7401752  68.3700418
  71.6453934  70.1822424  67.6547813  72.8183651  71.3941622  72.5143623
  73.6648989  72.2236109  72.8070593  71.8047619  71.0677004  73.2785416
  71.2800455  70.3090000  72.8672600  71.3344240  71.8416548  74.4084501
  71.8195152  72.8134823  74.4997501  69.8249769  72.1717787  74.2560387
  69.2856359  71.2251759  74.2899752  69.5144320  72.8459930  75.0542259
  69.4310474  73.0215263  73.0905533  69.8121643  74.3195248  72.8875494
  70.3753901  74.8863602  73.6141014  69.3590498  75.0784826  71.7423773
  69.5737362  76.1332512  71.6541386  68.4867764  74.4804811  70.7911682
  68.0349636  75.0015736  69.9600649  68.1827402  73.1264353  71.0385752
  67.5294638  72.6229429  70.3413486  68.6509275  72.4125004  72.1152496
  68.3712959  71.3700819  72.1549368  71.6451216  71.0876942  75.7085419
  70.9840822  70.1160908  76.0650063  72.6141596  71.5263081  76.5018129
  73.3250761  72.8329372  76.5515423  72.8007698  73.4490442  77.2820330
  73.4621239  73.3651972  75.6102562  74.6368647  72.5682497  77.2097731
  75.1317835  73.4196377  77.6769972  75.3714228  72.1623516  76.5142441
  74.2803383  71.4739227  78.2336092  73.9319468  72.0063639  79.1186142
  75.0728416  70.7396889  78.3783150  73.1446981  70.6962967  77.5130749
  73.6392164  69.8129034  77.1091270  72.0548439  70.3477001  78.6426115
  71.5429831  71.2761116  79.2543888  71.8291664  69.0722370  79.0193033
  72.1039724  68.3879995  78.3290863  70.9194660  68.5292387  80.0776100
  71.3285923  67.7401543  80.7085228  70.5703640  69.3337965  80.7248497
  69.6366644  67.8217459  79.5611143  68.9423895  67.1136999  80.3013420
  69.4219160  68.0034781  78.2390785  70.0547314  68.6891842  77.8524828
  68.1548691  67.6908684  77.5407410  67.3776102  67.4168730  78.2541084
  67.6984119  68.9837265  76.8368292  68.5051250  69.3327236  76.1922216
  66.8313599  68.7306929  76.2266731  67.2987032  70.1588154  77.7692699
  68.2070732  71.2611437  78.1057024  69.2602491  71.1776638  77.8815317
  67.6656294  72.3770428  78.8155127  68.3063269  73.2226658  79.0175581
  66.2989759  72.4050570  79.1709614  65.7564974  73.3881426  79.8529100
  64.9778986  73.1423044  80.3578377  65.4824877  71.3218689  78.9098501
  64.5004272  71.2927771  79.3583107  65.9453535  70.2668095  78.1559515
  65.2182913  69.4834423  78.0006695  68.4189749  66.5901947  76.4282894
  69.1111851  66.7794466  75.4151964  67.7589989  65.4379225  76.6420937
  67.2859335  65.2770329  77.5198317  67.6909161  64.4220161  75.5904865
  68.6500692  64.2361069  75.1071978  67.3737621  63.0596018  76.2948036
  67.4389839  62.2396755  75.5795574  68.1313562  62.9288197  77.0674896
  66.3690329  63.2656193  76.6638231  66.7510796  64.8592758  74.4412088
  65.7525301  65.5264568  74.6286249  67.1461248  64.4320631  73.2650852
  67.9457664  63.8177299  73.2078934  66.4278984  64.7964859  72.0497131
  65.9431982  65.7726765  72.0647097  67.4514246  65.2052641  71.0275173
  66.8504953  65.5370188  70.1808023  67.9810190  66.0865355  71.3894367
  68.4371471  64.1294575  70.5936956  69.6655846  64.1453266  71.0484886
  70.1274061  64.7372675  71.8248463  70.4601479  63.2234573  70.4690123
  71.4393473  63.0078793  70.5906677  69.7726250  62.4727726  69.6084023
  70.0788403  61.2292385  68.9533472  71.0489893  60.7564354  68.9125347
  69.1301012  60.7337379  68.0220604  69.3988323  59.9315596  67.3507214
  67.7861214  61.2582684  67.9208851  67.0377159  60.8526659  67.2562218
  67.4273443  62.3978853  68.7776899  66.4168835  62.7775764  68.7429857
  68.4581661  63.0162048  69.6281958  65.4877090  63.7008715  71.6150999
  65.8808994  62.5433588  71.6637468  64.2800522  64.1196203  71.0975361
  64.0095043  65.0823641  71.2390566  63.5126829  63.1532288  70.2034616
  64.1260481  62.3300886  69.8369598  62.3286581  62.5685167  70.9958315
  61.6489220  63.3722496  71.2787962  61.4579439  61.5304661  70.1954222
  60.8834887  61.9586802  69.3739986  61.9966698  60.6662226  69.8068857
  60.8353615  61.0085392  70.9221220  62.7714300  62.0073605  72.1861696
  63.3166981  62.6286602  72.6742935  62.9936600  63.8091564  68.9093447
  62.3359728  64.8669815  68.9209700  63.1902599  63.2017279  67.7040339
  63.7064886  62.3339987  67.7295589  62.5247908  63.6313152  66.3844824
  62.9233837  64.5955086  66.0689592  62.8013706  62.7208614  65.1683998
  62.5529575  61.7157507  65.5092001  62.1432257  63.1439352  63.8681698
  61.0686779  63.2703447  64.0003395  62.5393343  64.1387033  63.6641312
  62.4749231  62.4850082  63.0657387  64.2986584  62.7327490  64.7473049
  64.7508383  63.7245178  64.7520018  64.7736025  62.1913576  65.5654907
  64.4721460  62.0843077  63.8885117  61.0662556  63.8133907  66.5302563
  60.3748608  62.9033279  66.9926214  60.6337261  64.9882174  66.1276484
  61.3796997  65.5890799  65.8073330  59.2682028  65.5296421  66.2596655
  58.7541914  64.7126722  66.7660904  59.2587996  66.7253399  67.2733259
  59.7878265  67.6240921  66.9563389  58.2146788  67.0080662  67.4074125
  59.7367477  66.2337399  68.1206703  58.6453390  65.8937359  64.8537683
  59.3142509  66.5525818  64.0731049  57.4644947  65.3500128  64.5799398
  56.9355726  64.8390818  65.2722454  57.0064402  65.2752781  63.1643200
  57.5528812  66.0265923  62.5942039  57.4653721  63.8682890  62.6805973
  58.5217476  63.6360407  62.8155994  57.0178127  63.0935717  63.3031797
  57.2427893  63.5408974  61.1595345  56.3359976  63.9233589  60.6909752
  58.0164099  63.9336252  60.4996967  57.1786022  61.9994831  60.9458447
  56.3034391  61.3060522  61.4445734  58.1300783  61.5146589  60.1476288
  58.2060432  60.5172443  60.0080299  58.8721895  62.1071100  59.8035669
  55.5352879  65.5510521  62.9382896  54.7223520  65.2176905  63.8368273
  55.0948620  66.1402798  61.7976284  55.7369089  66.4490747  61.0817194
  53.6825848  66.4432287  61.5743542  53.2449007  67.0723104  62.3494625
  53.6794519  67.1592140  60.2208614  54.1685295  66.4572430  59.5454741
  54.2674160  68.0497694  60.4429150  52.0388556  67.5828934  59.6865416
  52.7144432  65.2297688  61.5703964  52.9123974  64.2388344  60.8757877
  51.5830612  65.3321314  62.3427391  51.3473463  66.0959721  62.9600620
  50.5717564  64.2104149  62.2658920  51.1117172  63.2674885  62.1796131
  49.7119522  64.0198231  63.4827709  49.1062498  63.1172276  63.4018612
  50.3890991  63.8832045  64.3259239  48.8131952  65.2057028  63.8158751
  49.4347095  66.0286188  64.1688919  48.2403803  65.4788113  62.9296494
  47.8412151  64.7382784  64.8737431  47.1035528  64.0920782  64.3979502
  48.3766365  64.1414261  65.6121111  47.2558737  65.8919859  65.6792259
  48.0215549  66.2910748  66.3444805  46.7314720  66.5315580  64.9692631
  46.3278246  65.3353834  66.6755104  46.0068989  66.1195421  67.2252417
  45.5715418  64.8230124  66.2446785  46.7384100  64.7102451  67.3542833
  49.8221397  64.1967869  60.9311819  49.3792772  63.1334114  60.4896259
  49.8185062  65.3743315  60.2534866  50.3201485  66.1542463  60.6537199
  49.0737724  65.5533981  58.9240742  48.1543779  64.9911118  59.0873194
  48.7579679  67.0201111  58.6434507  49.6394873  67.5431681  58.2727289
  47.7438831  67.1277189  57.4701643  48.0116796  66.5975428  56.5562201
  46.7955446  66.7058802  57.8030443  47.5794935  68.1862640  57.2687674
  48.2849693  67.9079199  59.7967052  49.1141605  67.9659128  60.5018187
  48.0378866  68.8869381  59.3861341  47.0899487  67.3085308  60.5577850
  46.1938381  67.1341038  59.9622488  47.2952652  66.3854885  61.0999489
  46.9745874  68.0200148  61.3754559  49.7394800  64.9474573  57.6609468
  49.1303921  64.1954756  56.8736696  51.0698795  65.2493525  57.5576782
  51.4688396  65.9251451  58.1934690  51.8191338  64.8883820  56.3080311
  51.3376904  64.0196466  55.8590174  51.7588234  66.1092520  55.3638601
  50.8109331  66.6421700  55.4387617  51.9248152  65.6750727  54.3779421
  53.2013416  67.1383429  55.7263708  53.2205677  64.2627573  56.5585423
  53.7841892  63.7377167  55.6433392  53.6591911  64.1564989  57.8601503
  53.1325722  64.6609116  58.5589647  54.7974920  63.3257961  58.2838440
  54.8384953  63.2017183  59.3659830  54.7814083  61.8928432  57.6841831
  53.7464285  61.6209841  57.4767876  55.3754997  61.9121122  56.7705154
  55.2473116  61.3032007  58.4737110  56.0982084  64.0638447  57.9084206
  57.1335649  63.4133673  57.8395796  56.1675215  65.3838110  57.7118349
  55.3523636  65.8864927  58.0326700  57.4380207  66.1453295  57.6258993
  58.0494928  65.6303406  56.8849611  57.1889162  67.5306320  57.1073914
  57.0035315  67.3797989  56.0439157  56.3364553  67.9967546  57.6014996
  58.3063793  68.4197950  57.3277617  58.0632257  69.3432951  57.2297001
  58.0922651  66.3232851  58.9752817  57.4519777  66.6001272  60.0047398
  59.3551874  66.1109591  59.0105486  59.7549725  65.9133911  58.1043243
  60.1167679  66.1574507  60.2953911  59.4502926  65.7734203  61.0676813
  61.3948917  65.2032185  60.2142334  62.1274853  65.7749081  59.6445179
  61.8430471  65.0391102  61.1941957  61.1539412  63.9289141  59.4986391
  60.9895182  63.8589239  58.1439972  60.8920097  62.5100374  57.9350042
  60.5742216  61.9937849  57.0411873  61.1513901  61.7723370  59.0421677
  61.1744690  60.7628536  59.0647125  61.3699389  62.6809454  60.0425577
  61.4228821  62.4359274  61.0930634  60.4129505  67.6115990  60.7584333
  61.3803530  68.2546377  60.4039621  59.5059633  68.1744623  61.5649652
  58.6185884  67.7162027  61.7155170  59.4928932  69.6173620  61.8754578
  59.5825958  70.2283430  60.9772539  58.0846119  69.8900557  62.5265932
  58.0428886  69.4324064  63.5149813  57.9186869  71.3809395  62.7893734
  56.9705296  71.5250444  63.3073759  58.8385534  71.7445278  63.2473612
  57.9547358  71.8446064  61.8035650  56.8142605  69.3637562  61.7564917
  56.7585087  68.2772827  61.8241119  55.8991718  69.8269367  62.1255159
  56.8856239  69.7571945  60.2449179  57.8456926  69.3900919  59.8821402
  56.1186790  69.2668724  59.6453476  56.7209244  70.7997417  59.9727678
  60.6334782  69.9145985  62.8058577  61.1823273  71.0265207  62.6993704
  61.0227823  68.9784575  63.7398958  60.5660772  68.0787706  63.7856150
  62.2095919  69.2202091  64.5124865  63.0574608  69.3489790  63.8397074
  62.0736265  70.1585770  65.0501490  62.4498796  68.1175613  65.5787230
  62.4073887  66.9800234  65.2364254  62.7323198  68.5278606  66.8151045
  62.9372025  69.5047283  66.9695759  62.9834843  67.6271343  67.9448795
  62.6645041  66.6473722  67.5893211  64.5087957  67.5782442  68.0991888
  64.8219824  68.6143398  68.2277107  64.8322678  66.9003630  68.8890934
  65.2684164  67.0390940  66.9510984  65.6435204  65.7525682  66.7212868
  65.5022097  64.9107599  67.3829412  66.2814903  65.6712532  65.5413866
  66.6336727  64.7779560  65.2282047  66.3703060  66.9071436  64.8964071
  66.9405890  67.2958040  63.7013865  67.4510050  66.6276455  63.0235624
  66.7738819  68.6343288  63.3192158  67.1352673  69.0474987  62.3891068
  66.2215281  69.6012592  64.1368246  66.1818171  70.6309223  63.8133621
  65.6989717  69.2015076  65.3520870  65.3068590  69.9609852  66.0122728
  65.6494999  67.7995968  65.7497120  62.3680782  68.0999756  69.2955875
  62.5222445  69.2305613  69.5921469  61.6397381  67.2011757  69.9887419
  61.4182186  66.2876415  69.6193027  61.2723732  67.5653505  71.4093685
  61.0195398  68.6227655  71.4871836  60.0517845  66.7427063  71.8183708
  59.3175793  66.7257166  71.0129166  60.3342056  65.6904268  71.7858362
  59.4525957  67.0503378  73.2214165  60.2372789  66.9144773  73.9656687
  59.2348957  68.1157684  73.2959843  58.2245684  66.2387896  73.5577822
  57.3981142  66.4594173  72.8822136  58.4507418  65.1744986  73.4926987
  57.7856922  66.4015341  74.9919319  58.6969137  66.3504839  75.5878925
  57.2062206  67.3154449  75.1226377  56.8754482  65.3342581  75.4308414
  57.1757412  64.3703318  75.4029179  56.5792799  65.3389311  76.3964319
  56.1056995  65.1907635  74.7928810  62.5126457  67.4207878  72.3897552
  63.1616879  66.3718748  72.3268127  62.6193142  68.3571815  73.3272409
  61.9054174  69.0711784  73.3014870  63.7369347  68.3500814  74.2447805
  64.4395733  67.5310326  74.0912962  64.5915174  69.5500612  74.0638447
  64.0301085  70.4808521  74.1447258  65.2916956  69.5888996  74.8983192
  65.4733992  69.4839334  72.7743292  65.1211357  70.2725506  71.6324615
  64.1101360  70.6163740  71.4710093  65.9633684  70.2180529  70.4853868
  65.5665302  70.6392527  69.5735121  67.2613478  69.5886421  70.5804682
  68.0169296  69.7763729  69.8319674  67.5831127  68.8773489  71.7563725
  68.5790968  68.4678793  71.8385172  66.6972923  68.8506222  72.8233099
  66.9867802  68.2808876  73.6939478  63.2568932  68.1864882  75.6095982
  62.5065708  68.9819908  76.1939907  63.7605381  67.1680403  76.3015175
  64.3165207  66.4279795  75.8974266  63.2837868  66.7512894  77.6123142
  62.6601648  67.5406265  78.0320072  62.2963858  65.5348778  77.5256872
  62.0196104  65.2794790  78.5485601  61.1230850  65.6004810  76.5220070
  60.5198431  64.7693062  76.8871927  60.6032944  66.5578461  76.5589619
  61.4923811  65.3295946  75.5328941  63.0826902  64.4371414  77.1479845
  63.6764574  64.3476391  77.8970051  64.3407726  66.5152836  78.6009836
  65.1729822  65.6118345  78.4787464  64.3399286  67.2133732  79.7322035
  63.5618687  67.8332424  79.9067974  65.4360294  67.3035908  80.6792736
  66.3535070  67.5384092  80.1396465  65.1162767  68.4804630  81.6009903
  65.2024412  69.4124365  81.0423279  64.1621065  68.4867382  82.1278858
  65.8923769  68.5209894  82.3652744  65.6086063  65.9855270  81.4611816
  64.7126341  65.2329159  81.7867756  66.8664217  65.6925583  81.8348122
  67.6163483  66.2761688  81.4926052  67.3366737  64.4518900  82.4844170
  66.5948105  63.6717749  82.3136330  68.5420704  63.9363003  81.6024399
  68.8225031  62.9696369  82.0207882  67.9839849  63.5312796  80.1977348
  66.9572353  63.1699657  80.1399517  68.0621195  64.3913937  79.5327520
  68.6933374  62.8016138  79.8072243  69.6259022  64.8492813  81.5971279
  69.3472815  65.6326151  81.1171627  67.6231050  64.4784784  84.0084457
  68.2004118  63.5683489  84.5643425  67.0766592  65.5338812  84.6439075
  66.6587639  66.2992382  84.1343021  67.2349167  65.7563543  86.0901642
  67.0310211  64.7625494  86.4887619  68.5892057  66.3387203  86.4809608
  68.6541605  66.3381863  87.5690269  69.4049644  65.7632732  86.0433483
  68.9578390  67.7485991  85.9386349  69.0106058  67.6856852  84.8517323
  68.1831741  68.4898806  86.1348438  70.2693272  68.2809734  86.5497589
  70.0595474  68.3056927  87.6190948  71.0580063  67.5532866  86.3585567
  70.5860519  69.5345688  85.9015369  70.6378317  69.2404938  84.8532295
  69.8365450  70.2920294  86.1308575  71.9017601  70.0722790  86.3418770
  71.8855381  70.5726671  87.2190571  72.6285648  69.3782425  86.4427185
  72.1511126  70.8025312  85.6902218  66.0759687  66.7343235  86.4135265
  65.8188438  67.6651192  85.6576157  65.4850054  66.6013241  87.5852776
  65.7015181  65.7598877  88.1002617  64.4069910  67.4988651  88.0131340
  63.6605072  67.5046253  87.2188854  63.8438320  66.9195652  89.2699528
  63.8407516  65.8365822  89.1464996  64.4639158  67.2711134  90.0945759
  62.4796438  67.3841810  89.5045185  62.4169874  68.4717989  89.4689465
  61.9034481  67.1724319  88.6038208  61.7991161  66.8360281  90.7473469
  61.5829754  65.7691431  90.6912231  62.4825478  66.9303560  91.5912151
  60.4910564  67.5660944  90.8741474  60.7020044  68.6314011  90.7806683
  59.9482250  67.1919537  90.0061321  59.7223139  67.3227167  92.0944309
  59.8136520  68.2171154  92.5546551  58.7614822  67.0825720  91.8963623
  60.0190115  66.6021204  92.7369404  64.8699617  68.8778591  88.1645012
  64.1478014  69.7818613  87.7474022  66.0717297  69.0819502  88.7004471
  66.6184902  68.2544279  88.8911438  66.5385532  70.4322767  89.0791035
  65.6908512  71.0101032  89.4473743  67.5156498  70.2814674  90.3149033
  66.8863773  69.8064137  91.0675240  68.2764912  69.5214939  90.1369381
  67.9582405  71.6703844  90.7530975  69.2345953  71.8920469  91.0048008
  67.1495008  72.6230955  90.9030151  67.2196817  71.2536478  87.9229355
  68.3564472  71.6300154  87.9415798  66.4357615  71.7289686  86.9398212
  65.4529333  71.5169096  87.0356369  66.7822886  72.6731300  85.8276939
  67.1848822  73.5383034  86.3544750  67.8310823  72.0519590  84.8752785
  68.1095457  72.8421736  84.1780567  68.7194872  71.8185472  85.4621029
  67.2739315  70.8107090  84.2414665  66.7616558  70.1462889  84.9373245
  66.5007544  71.2197876  83.5911274  68.3063745  69.9454021  83.0489159
  68.1244087  71.1426687  81.7405701  67.0700788  71.1492014  81.4640903
  68.4961796  72.1392584  81.9786835  68.5844946  70.8937168  80.7843018
  65.5025244  73.1161261  85.1186943  64.5763922  72.2935486  84.8872375
  65.3806067  74.3562031  84.6798706  66.1279058  75.0348282  84.6464443
  64.1285276  75.0032282  84.1972256  63.3893585  74.2025614  84.1714478
  63.6031199  76.0910702  85.2384567  62.6916552  76.6002226  84.9252510
  63.3678055  75.6311369  86.1982346  64.6182632  77.1060896  85.4119396
  65.1741695  76.8239117  86.1419678  64.2918777  75.7102394  82.8558254
  65.3254414  76.3278866  82.6648712  63.4168959  75.5400896  81.8316174
  63.5096455  76.2364101  80.5761528  64.5213890  76.4916372  80.2609825
  63.1492138  77.2605181  80.6731224  62.5772142  75.5778503  79.6358156
  63.0983734  74.7014475  79.2505646  62.1826077  76.2025881  78.8345146
  61.4459229  75.0129509  80.5605602  60.9706783  74.1603708  80.0754261
  60.6804943  75.7335520  80.8485699  62.2115612  74.6569443  81.7950153
  61.6015673  74.9121189  82.6615620  62.5277901  73.1460667  81.7229080
  63.5010052  72.7283001  81.1452198  61.7252398  72.2555733  82.3679352
  60.9706020  72.7428389  82.8296757  61.8637657  70.7645988  82.3408127
  62.9085588  70.5213928  82.5341034  60.9718943  70.0720930  83.4282398
  59.9900866  70.5399799  83.3558464  60.9005451  69.0198898  83.1527615
  61.6428423  70.0902987  84.8062515  62.0018864  71.1007309  85.0017071
  60.9684229  69.7725868  85.6014347  62.8228045  69.1168880  84.8463631
  62.6200533  67.9489088  85.0009918  64.0077686  69.5772743  84.6361542
  64.7649240  68.9944410  84.9634457  64.2758942  70.5408573  84.4957542
  61.6262722  70.1688576  80.9649181  62.1090746  69.0377998  80.7315063
  61.0552931  70.9172106  80.0297356  60.4953432  71.7006874  80.3342247
  60.7710075  70.4618740  78.6531544  61.7360115  70.2438641  78.1956244
  59.8774099  69.1880274  78.5219288  59.7940540  68.9018869  77.4734640
  60.3715277  68.4069729  79.0997696  58.5421753  69.5962286  79.1684723
  58.6588192  70.1077414  80.1239014  58.0108452  70.2746868  78.5010195
  57.6697206  68.3562994  79.4677305  57.5461388  67.8145552  78.5299969
  58.1545782  67.6614332  80.1534176  56.2795591  68.6505508  79.9018288
  55.7370710  69.2452097  79.1668606  55.8022308  67.6766205  80.0100994
  56.1407471  69.2348957  81.2309456  55.1876831  69.5001554  81.4344501
  56.5147400  68.6320734  81.9498539  56.6285992  70.1162481  81.3039112
  60.3625107  71.6262579  77.7056170  59.7582436  72.5757790  78.1860447
  60.6875086  71.5335655  76.4016485  61.1128092  70.6486082  76.1648369
  60.4803228  72.5475121  75.3590536  59.4460630  72.8845692  75.4283142
  61.5039301  73.6634350  75.4916573  61.1670589  74.5223522  74.9112463
  61.5739107  74.1300535  76.4742422  62.8804636  73.3456230  74.9583864
  63.8631868  72.6868105  75.7787275  63.5683537  72.3980999  76.7767859
  65.1741076  72.5266790  75.2892733  65.9403515  72.0873690  75.9107876
  65.4964590  72.9017973  73.9701939  66.4969397  72.8107786  73.5737705
  64.5447683  73.5892868  73.2002401  64.8547554  74.0383339  72.2682190
  63.2930088  73.8238811  73.7050819  62.5914097  74.3979216  73.1180239
  60.5648422  71.7685080  73.9763737  60.7661104  70.5563164  73.9979172
  60.5137253  72.4681330  72.8787422  60.5271196  73.4677553  73.0225325
  60.5815887  71.9281149  71.5269423  60.8103418  70.8624792  71.5131092
  59.1640759  72.1323109  70.8774376  58.9013052  73.1807280  70.7364559
  59.2439175  71.7783976  69.8495865  58.0832815  71.3961220  71.5860891
  57.4776268  71.9435215  72.6865768  57.6976347  72.9043627  73.1279135
  56.5578556  71.1210585  73.1460142  55.8095503  71.2046289  73.8191795
  56.4534569  70.0292301  72.2839975  55.5538797  68.9374495  72.2785378
  54.8257065  68.7373638  73.0506325  55.7574511  67.9491091  71.2985897
  55.1692820  67.0488882  71.3988781  56.6865873  68.1490231  70.2718401
  56.8459272  67.4153709  69.4954586  57.5973654  69.1323853  70.3386879
  58.4127474  69.2203283  69.6359587  57.4242306  70.1536512  71.2700653
  61.6100025  72.6860142  70.6256056  61.4525700  73.8979435  70.4156971
  62.6187944  72.0515966  69.9876976  62.7558136  71.0613871  70.1319599
  63.5073185  72.6770163  69.0714836  63.3685637  73.7518740  69.1877794
  64.5870590  72.5394106  69.1291666  63.1430578  72.3485327  67.5964832
  63.5462999  71.2781191  67.1947145  62.4260950  73.2442665  66.9307470
  62.3900843  74.1569757  67.3617506  61.7137623  73.0823994  65.6564188
  61.8043900  72.0289373  65.3916407  60.2845716  73.4837627  65.8123875
  60.2582836  74.5558357  66.0074997  59.7339582  73.2529736  64.9004316
  59.4857454  72.7383518  66.9612837  59.8959255  73.0402422  67.9249859
  57.9784679  73.1230640  66.8135405  57.4197245  72.5610065  67.5618696
  57.8402424  74.1821671  67.0310450  57.5644445  72.8420448  65.8451843
  59.5946169  71.2248325  66.8630886  59.1805696  70.8942080  65.9105444
  60.5571222  70.8052397  67.1557188  58.9205647  70.8785868  67.6465893
  62.4800968  73.8832808  64.5919275  62.8178358  75.0722265  64.7187757
  62.9145050  73.1033564  63.5799265  62.5094032  72.1851826  63.4661102
  63.8235378  73.7029696  62.4894857  64.5798349  74.2968416  63.0027390
  64.7623587  72.7068853  61.7293644  65.4364252  72.1925735  62.4143648
  64.0661240  71.5456295  60.9992456  64.1572952  71.5182924  59.9134159
  64.5047283  70.6409073  61.4201927  62.9977703  71.6553164  61.1855078
  65.5097628  73.3924818  60.7744408  66.0083437  72.7193928  60.3054333
  63.1552172  74.6773338  61.5570688  62.0977449  74.4002008  60.9784746
  63.6572886  75.8783436  61.2888098  64.5409870  76.0527086  61.7457342
  62.9910183  76.9358730  60.5199003  61.9670153  77.0403719  60.8785105
  63.7823725  78.2796574  60.5747795  64.0742254  78.3936119  61.6187811
  64.7290039  78.2813311  60.0344181  62.8045940  79.4842958  60.2154922
  62.1122837  79.1276360  59.4528675  62.2925997  79.6947432  61.1544704
  63.5946178  80.7057858  59.6632719  62.9314852  81.5292263  59.3981218
  64.1932392  81.1132050  60.4779816  64.4902849  80.3380013  58.5273790
  65.4755735  80.2897644  58.7441254  64.1976118  79.7426605  57.3474550
  62.9628706  79.7257662  56.8145800  62.2076178  80.2949619  57.1691322
  62.8506851  78.9146805  56.2232637  65.2168512  79.1863060  56.8096399
  66.0205126  79.0715694  57.4105358  65.1298094  78.5735703  56.0114670
  62.8244734  76.4227819  59.0666628  61.9149733  76.9244099  58.4160376
  63.6725473  75.5163479  58.5494661  64.4332123  75.2628517  59.1636610
  63.5769987  74.9157095  57.2333241  63.6059523  75.7697725  56.5566826
  64.9150658  74.0968657  57.0803785  65.0702667  73.7603140  58.1054401
  64.7779274  73.2309246  56.4327383  65.9684038  74.9231243  56.7440367
  66.6203451  74.3101025  56.3965082  62.2900105  74.1469002  57.0820475
  62.0279646  73.8947058  55.9360456  61.4726591  73.8979483  58.0955315
  61.7907429  74.0721846  59.0381670  60.2551174  73.1099558  58.0156755
  59.9670362  73.1064844  56.9644403  60.5556536  71.6834211  58.5222101
  61.3526058  71.3266039  57.8697968  60.9202051  71.6809225  59.5494366
  59.6885347  71.0230541  58.5331774  58.9847851  73.7665510  58.6378431
  57.9314423  73.0947351  58.6294603  59.0887356  75.0438356  58.9950180
  59.9303055  75.5141878  58.6939621  58.0216169  75.9141779  59.6049976
  57.1501446  75.2805567  59.7698116  58.5229588  76.4811993  60.8701468
  59.4874620  76.8953180  60.5763149  57.9089403  77.3323679  61.1644173
  58.6760521  75.5499077  62.1290064  59.3588352  74.7630596  61.8084240
  59.3464708  76.2993526  63.3520699  59.3162489  75.5957317  64.1839933
  60.3916025  76.5290642  63.1445980  58.8596344  77.1924782  63.7437582
  57.3264837  74.9870157  62.6386595  56.7320490  75.8708000  62.8703213
  56.7980528  74.3853235  61.8991804  57.4330759  74.3436384  63.5120440
  57.6312494  77.0593596  58.6742878  58.3534002  77.4184704  57.7670050
  56.4839268  77.6933432  58.9063168  55.8983135  77.3095989  59.6342564
  55.9589386  78.8649416  58.1818056  56.8116713  79.4797945  57.8938532
  55.2190208  78.4912348  56.8834019  55.8430672  77.8242922  56.2885475
  53.9725113  77.6280069  57.1410656  53.2897139  78.1141758  57.8378725
  53.5410404  77.3383808  56.1829185  54.2891359  76.7496395  57.7034903
  54.7689199  79.6580839  56.0884476  54.0984011  80.3094482  56.6490126
  55.6412268  80.2221298  55.7582426  54.0280962  79.3992949  54.7519302
  54.2091036  80.3453255  54.2416716  54.4588661  78.5431051  54.2328262
  52.9867268  79.1796923  54.9873686  55.0161839  79.6738911  59.1159534
  54.2976379  79.0674448  59.8827028  55.0473070  81.0584164  59.1395235
  56.0875416  81.8962765  58.5949850  56.3048887  81.6705990  57.5509882
  56.9532204  81.7034435  59.2286444  55.5595922  83.3127689  58.8111448
  55.0304556  83.7091064  57.9445267  56.4343357  83.9134789  59.0603161
  54.6739292  83.1871033  60.0832033  53.9509153  84.0004158  60.1454687
  55.2139568  83.1926537  61.0300112  54.0582180  81.7455673  59.9303102
  53.8664484  81.2288761  60.8707094  52.7013254  81.7553043  59.1890621
  52.5107527  81.8132496  57.9824352  51.6619253  81.6641808  59.9829721
  51.7494535  81.7146492  60.9879112  50.2522707  81.5716553  59.5650673
  50.1537037  82.0141029  58.5737896  49.8252678  80.1613235  59.3745804
  50.0539780  79.4771433  60.1917028  48.3467340  80.0342751  59.1391611
  47.7844477  80.3419304  60.0207996  47.9517269  80.6209278  58.3097601
  48.0346298  79.0006781  58.9895868  50.3977251  79.6597815  58.1581879
  51.3361168  79.8349810  58.2597923  49.2630959  82.3706913  60.4588032
  49.5603848  82.4343109  61.6778421  48.3083773  83.0560780  60.0636339
  52.3087025  68.5996246  57.5478458  75.8423615  50.2572107  55.1873541
  76.6520262  49.6736574  55.0324392  75.4706717  49.9975824  56.0898733
  76.2291241  51.1714554  55.3735495  74.9845409  50.3334904  53.9617729
  75.6407738  50.6119680  53.1372023  74.3554974  49.0271568  53.5129166
  75.1447105  48.3438253  53.1993866  73.9617968  48.5817766  54.4265604
  73.3182144  49.1306019  52.3562002  71.9182444  49.1067505  52.6131725
  71.5234995  49.0021563  53.6129904  71.0006905  49.2159224  51.5682125
  69.9504805  49.1617680  51.8142462  71.4491653  49.4075060  50.2838373
  70.7092810  49.4806004  49.5004892  72.8393888  49.4529772  50.0077152
  73.1598806  49.5643950  48.9824009  73.7523413  49.3538618  51.0216427
  74.8194218  49.4347763  50.8760500  73.9599752  51.4211988  54.1530371
  73.3730555  51.4002848  55.2403545  73.6355734  52.2449303  53.1721687
  74.1873360  52.2173119  52.3266554  72.7480221  53.3602476  53.2524300
  72.0707512  53.1635761  54.0835285  73.3669138  54.7217274  53.6205721
  73.8089037  55.1420307  52.7171946  72.3083639  55.7973099  53.9633703
  72.6807261  56.8171358  53.8663816  71.5039253  55.7322598  53.2307386
  71.8482208  55.7282782  54.9490738  74.4844627  54.7370148  54.6560621
  74.2622662  54.0120602  55.4391146  75.3372478  54.3310785  54.1119337
  75.0010633  56.0522842  55.2907324  74.1901731  56.5844393  55.7880926
  75.6989431  55.8491850  56.1030293  75.4397917  56.7364883  54.5644522
  71.7341089  53.3742905  52.0981455  72.1357107  53.5499287  50.9539127
  70.4193830  53.3790588  52.4498272  70.1680660  53.1579256  53.4027386
  69.2992306  53.4795809  51.5057230  69.6072578  52.9856777  50.5841637
  68.0299520  52.8040743  52.0225668  67.6633930  53.3515882  52.8908825
  66.8798208  52.8483248  51.0322046  67.2081184  52.4046898  50.0922537
  66.0564995  52.2759438  51.4595413  66.3339615  53.7917423  51.0424662
  68.2153511  51.3324404  52.3610306  68.5821819  50.6716394  51.5756130
  68.9099312  51.2169027  53.1930828  67.2081709  51.0195827  52.6363707
  68.9631462  54.8867655  51.2661648  68.8096571  55.7648134  52.1506548
  68.9509344  55.2077198  49.9549341  69.1958666  54.5244503  49.2526150
  68.4441948  56.4007044  49.4017553  68.6788559  56.3227558  48.3401728
  67.3757124  56.4668512  49.6068478  69.1908503  57.6682806  49.9243307
  68.6512613  58.7916183  49.9055815  70.4328823  57.5797081  50.4396582
  70.9013557  56.6918898  50.3282261  71.1416435  58.6469984  51.1358833
  72.1085501  58.3523893  51.5437984  71.4212513  59.4433498  50.4461384
  70.4520893  59.1845131  52.3579025  70.6219339  60.4000854  52.5848913
  69.7283602  58.2871294  53.1519890  69.5870590  57.3937321  52.7025700
  69.2178154  58.6562777  54.4598341  69.9478245  59.4399452  54.6624517
  67.7325916  59.1224146  54.4579792  67.1274996  58.4046602  53.9040899
  67.4152613  59.2540550  55.4924297  67.5414610  60.5478382  53.8444042
  68.2396936  61.1779356  54.3953609  67.7817440  60.4787779  52.7834654
  66.0807180  61.0525990  53.9750147  65.4387617  60.2273369  53.6669064
  65.8128452  61.1139679  55.0298071  65.7492065  62.3676872  53.1815910
  64.8045206  62.7052498  53.6078787  66.4743710  63.1272840  53.4735823
  65.6157970  62.1544600  51.7057419  64.9002504  61.4633369  51.5312719
  65.1687765  62.8493166  51.1248446  66.4246178  61.8057966  51.2114286
  69.3435287  57.4723530  55.4103422  70.0114965  57.6816607  56.4024973
  68.8001108  56.2798071  55.1672506  68.6474991  56.0224819  54.2025757
  68.6800194  55.2483654  56.2164831  68.5945988  55.6716871  57.2172832
  67.3773289  54.5232534  55.8217955  67.5036716  53.7687826  55.0453234
  66.9441748  53.9326048  56.6290236  66.3161850  55.5714273  55.4231834
  65.8127308  56.5471935  56.3666868  66.0845232  56.5597534  57.4118519
  64.9779558  57.5683641  55.8536482  64.6615648  58.4229231  56.4333296
  64.5443439  57.5636005  54.5235920  63.5879612  58.4111166  54.1585684
  63.3667803  58.9439821  54.9258614  64.9533176  56.5433455  53.6639261
  64.5771694  56.4420748  52.6566219  65.9502411  55.6380463  54.1083145
  66.4057875  54.9362946  53.4253597  69.8099327  54.2316055  56.2721348
  69.9265575  53.2863283  55.4952669  70.7897234  54.5326948  57.2333908
  70.6972790  55.3933573  57.7537918  71.8903255  53.6356878  57.5615025
  72.3116827  53.1751490  56.6679382  72.9203701  54.4420433  58.2706070
  73.0454636  55.3449059  57.6728678  72.4861670  54.6797657  59.2417192
  74.3433285  53.9175797  58.5173750  74.4062471  53.0788994  59.2107391
  74.8736477  53.6553669  57.6018858  75.1498508  55.1451015  59.1055918
  74.8037100  56.0843134  58.6741209  74.7578239  55.1391363  60.1226330
  76.7044258  55.0096941  58.9455223  77.0474148  54.0856504  59.4109249
  76.8759346  55.0974417  57.8726768  77.5060606  56.1088943  59.5336485
  78.4817743  56.0585499  59.2776155  77.2155190  57.0159912  59.1976929
  77.6398754  56.1257362  60.5346012  71.3265753  52.4762201  58.3735561
  70.6965971  52.7300119  59.4037628  71.4769745  51.2373638  57.9914618
  72.1970987  51.1116409  57.2945213  70.9129429  50.1233530  58.7880182
  69.8735714  50.3128147  59.0561819  70.8333826  48.7974358  57.8813410
  71.7883396  48.2832575  57.9898357  70.0897408  48.1803036  58.3855724
  70.3348875  48.9299297  56.4036131  71.1461973  49.3686581  55.8227491
  69.9578094  47.5539303  55.8291006  69.4174242  47.6505709  54.8874283
  70.9171200  47.0953560  55.5892086  69.4371271  46.8755198  56.5049314
  69.0931797  49.8533010  56.2808800  68.2554960  49.1922235  56.5030670
  69.1020060  50.7818031  56.8517590  69.0627098  50.0962257  55.2187300
  71.7067003  49.9333477  60.0542927  72.9295158  49.8885632  60.0044012
  70.9865332  49.7598171  61.1574078  69.9992132  49.6776581  60.9610653
  71.5556812  49.4026518  62.5127268  72.4857426  49.9531555  62.6542568
  70.6540680  49.8460102  63.7227631  69.6978903  49.3498468  63.8890409
  71.5275574  49.7362471  65.0004482  71.8496847  48.6976004  65.0749207
  72.4839497  50.2291250  64.8258400  71.0312414  50.0812912  65.9074831
  70.2249432  51.3217306  63.6389446  69.5985603  51.6079760  62.7940750
  69.7179365  51.5851116  64.5672131  71.0782862  51.9968653  63.5749435
  71.8008327  47.9188585  62.5955248  72.9472685  47.5068998  62.8417158
  70.7515240  47.1206570  62.5176382  69.9094152  47.5766659  62.1966743
  70.7238722  45.7249260  62.9302263  71.5957880  45.1272345  62.6644850
  70.6491184  45.4889297  64.4881105  70.7562256  44.4444656  64.7808838
  71.4503336  46.0732794  64.9405432  69.3325949  45.9324217  65.1696348
  69.2233229  46.9755745  64.8729897  68.5091829  45.3608847  64.7413397
  69.1705179  45.7025194  66.6483736  68.5116005  44.8440170  66.7783928
  70.1385784  45.4378986  67.0737314  68.5250330  46.8975306  67.2135448
  67.5209332  46.8668079  67.3181534  69.0091181  47.9098940  67.8361988
  70.2895260  48.1193113  67.7734661  70.8584118  47.4328232  67.2989082
  70.6649971  49.0023756  68.0886173  68.3881044  48.8313198  68.5516834
  67.3958254  48.7791777  68.7326813  68.9419079  49.4268990  69.1505861
  69.5756102  44.9743891  62.1759796  68.4549236  45.4711485  61.9521856
  69.8333073  43.7117243  61.8793106  70.7339573  43.2726240  62.0063162
  68.7194443  42.8141308  61.4638519  68.2211256  43.1756210  60.5643463
  69.4844294  41.5714979  60.9702015  70.2237320  41.8810654  60.2314854
  69.8660994  41.1020470  61.8768644  68.4413910  40.7007599  60.1858568
  67.7620029  40.1930046  60.8704901  67.8390551  41.3635921  59.5646095
  69.1062069  39.6696615  59.2155600  69.5850611  40.2214527  58.4066486
  69.6319962  38.8968754  59.7763157  67.9730320  38.8214755  58.4376669
  67.2457981  38.4359241  59.1522169  67.5230408  39.3496394  57.5970411
  68.5731030  37.6929832  57.7128649  68.8199472  36.9806647  58.3850050
  67.9915380  37.3200750  56.9760990  69.4360256  37.9604769  57.2612953
  67.6652670  42.5728178  62.5608444  67.9684973  42.6995802  63.7668467
  66.3937569  42.4115658  62.0928144  66.2202072  42.4077272  61.0978460
  65.2586603  42.1192455  62.9816914  65.6693029  41.9748211  63.9809942
  64.3252373  43.3720255  62.8753471  64.2752743  43.6428928  61.8207169
  62.8416014  43.1181145  63.3254337  62.8447008  42.7690077  64.3580103
  62.3385286  44.0836716  63.2732391  62.4327898  42.3907042  62.6241159
  64.9479294  44.5299625  63.6663532  65.8035278  44.8183346  63.0556965
  64.2563486  45.3524351  63.4837246  65.3668690  44.4328594  65.0966835
  65.9253502  43.5148144  65.2794123  65.9425068  45.3173971  65.3693199
  64.4828367  44.4371367  65.7343102  64.5379066  40.8346558  62.6903105
  63.8594580  40.2463150  63.5093260  64.5579433  40.3107738  61.4763260
  65.2635050  40.6294727  60.8276939  63.7057114  39.1584039  61.0816574
  63.8443756  38.3002615  61.7392826  62.6660395  39.4706035  61.1802053
  64.0042973  38.7615585  59.6571875  64.8168087  39.3838120  59.0040064
  63.2924891  37.6823902  59.2737389  62.6465797  37.2657537  59.9289560
  63.4112740  37.1207190  57.8627968  63.4994507  38.0053473  57.2321177
  64.7122383  36.3022041  57.7868700  65.5548382  36.8948770  58.1430578
  64.6486139  35.4793167  58.4988451  64.9062729  35.8171296  56.4875555
  65.6948757  36.2766409  56.1899567  62.1988916  36.2404823  57.4558783
  61.5141535  35.7443738  58.3658504  61.9159460  36.0323477  56.1673594
  62.6234913  36.2969637  55.4969358  60.9108019  35.0187421  55.6352139
  61.0364389  34.1184521  56.2367058  59.9234009  35.4763889  55.6959820
  61.0920572  34.6257925  54.1225243  62.2156811  34.6585226  53.6238098
  60.0045443  34.1283989  53.5148001  59.2029619  34.0568066  54.1250849
  59.9647093  33.6887789  52.1103096  60.8532906  33.0928349  51.9020367
  58.5950804  32.9618192  51.8165207  57.8303337  33.7378716  51.7846966
  58.5621643  32.3963833  50.8852291  58.3736849  32.0707369  52.8883791
  59.1278076  31.4802814  52.8231239  60.1134825  34.8010564  51.0595369
  60.4392242  34.5554733  49.8210096  59.8900127  36.0608339  51.3967133
  59.4950533  36.2400317  52.3088503  60.1361275  37.2176719  50.4389381
  59.8092651  36.9026446  49.4479656  59.1590405  38.4086847  50.8472300
  58.8462257  38.7871742  49.8740911  58.2564259  38.0214071  51.3198948
  59.8207760  39.5412302  51.5955448  60.0006247  40.8260012  50.9747934
  59.6166086  41.0127211  49.9827909  60.8021021  41.8216515  51.6257477
  61.1168003  42.7197838  51.1151409  61.2201262  41.6233730  52.9654121
  61.9374418  42.2847271  53.4285116  60.9368467  40.4197788  53.5567617
  61.3340521  40.2665281  54.5493031  60.1983500  39.4017792  52.9025316
  59.8380041  38.5700870  53.4897614  61.6055870  37.7109885  50.3744698
  61.9732475  38.2061768  49.2680454  62.3127842  37.6340985  51.4966249
  61.9597673  37.1304345  52.2977495  63.5055065  38.4073663  51.8467093
  64.3871927  37.9740405  51.3745308  63.4699583  39.4192743  51.4431143
  63.6808729  38.6547112  53.3486414  63.5468149  37.7175212  54.1517258
  64.0193653  39.8161721  53.7782860  64.1413736  40.5867100  53.1368113
  64.6271753  40.0844526  55.0633526  64.3182564  39.3017745  55.7562351
  66.1644030  40.0114346  54.9485016  66.4875269  40.6432533  54.1211605
  66.6780996  40.4909563  55.7817364  66.8204165  38.6204171  54.8312569
  66.5991545  37.8062773  55.7776642  67.5723648  38.3433819  53.8773966
  64.1899872  41.4603281  55.6303835  63.8352203  42.4423742  54.9122953
  64.2006111  41.5310240  56.9350004  64.4576311  40.7991648  57.5818634
  63.6754799  42.6822281  57.6967907  63.4603119  43.5246181  57.0393801
  62.3444653  42.3019886  58.4124517  62.5934553  41.6135597  59.2200232
  61.7315006  43.4880733  59.1240263  62.4778652  43.7189388  59.8841238
  61.5354156  44.2570162  58.3767796  60.8652687  43.2994080  59.7581768
  61.2693071  41.6721249  57.4842930  60.3160715  42.1792746  57.6334429
  61.4664268  41.8511438  56.4273167  61.0087919  40.1528502  57.6693344
  62.0144606  39.7375488  57.7345181  60.4645348  40.0100040  58.6028719
  60.3864908  39.7272968  56.8820953  64.7080421  43.2678604  58.7075996
  65.0905657  42.5338888  59.6206093  64.9917603  44.5745325  58.6634588
  64.6472836  45.1841021  57.9355431  65.9853888  45.3573322  59.4568729
  66.3473845  44.7671843  60.2987766  67.1430111  45.8075142  58.4292793
  66.6890621  46.5545702  57.7781773  67.9457045  46.2666798  59.0063000
  67.7517796  44.6814489  57.5975084  67.0863056  44.2517376  56.4392614
  66.2285089  44.8127413  56.0988617  67.5453949  43.0307961  55.7652569
  66.9345331  42.6477480  54.9611902  68.7664223  42.4254513  56.1424494
  69.3451881  41.4754009  55.3607035  69.0340853  41.3780403  54.4577456
  69.4617176  43.0203342  57.1898079  70.4992628  42.7508402  57.3212767
  68.9491749  44.0760517  57.9553938  69.4887877  44.5055771  58.7864923
  65.4207897  46.5189981  60.1777220  64.2997265  46.9193697  59.8759365
  66.2106037  47.1419430  61.0643768  67.1342754  46.7334843  61.0740662
  66.0821104  48.4468794  61.6565990  65.1029634  48.8710833  61.4342642
  66.2706661  48.3052015  63.1526423  65.4296350  47.8141737  63.6421919
  67.1832991  47.7410555  63.3448601  66.4403534  49.6366405  63.8800240
  67.2415972  50.2606487  63.4841442  65.1719093  50.5616426  63.8587189
  65.3143930  51.4737749  64.4382143  64.9851990  50.8364105  62.8205729
  64.4017363  49.8766708  64.2133236  66.8428564  49.3461847  65.3423595
  67.1619081  50.2647734  65.8348083  66.0590506  48.7786007  65.8439493
  67.6950550  48.6674404  65.3764200  67.1939945  49.4073105  61.0038424
  68.3519506  48.9944839  60.8260202  66.8490171  50.6881189  60.7702494
  65.9323931  51.0082102  61.0485268  67.6872540  51.8084002  60.2879047
  68.7517881  51.5753222  60.3113651  67.3343325  52.0088100  58.7749052
  66.4449644  52.6325941  58.6854124  68.0888605  52.6432991  58.3099222
  67.3420334  51.0390520  58.2772875  67.4725103  53.1785727  60.9229898
  66.3525057  53.6026859  61.2812757  68.6169577  53.8148403  61.1695194
  69.4338369  53.4248400  60.7215118  68.7799692  55.2309990  61.7108393
  67.8472996  55.4520369  62.2298479  69.8730803  55.4146004  62.7786160
  69.6176243  54.6957827  63.5571671  71.3877201  55.2601480  62.3830128
  71.5534878  56.0100365  61.6095209  72.0535374  55.3005600  63.2450771
  71.4912224  54.2282534  62.0474815  69.6621990  56.8144941  63.3950901
  70.0575209  57.5579739  62.7029467  68.6256552  57.0331192  63.6517668
  70.3682327  57.0349360  64.6870184  71.4534044  57.0926857  64.6023369
  70.1034451  58.0138111  65.0867653  70.1382351  56.2840891  65.4429483
  68.9591455  56.2292004  60.5308676  69.8303127  56.0006857  59.7106552
  68.1486797  57.2793293  60.4085732  67.4064350  57.2962427  61.0933256
  68.2018948  58.4157753  59.4987392  68.4209108  58.0561781  58.4933376
  66.8419456  59.0316534  59.5135593  66.0928106  58.2480431  59.4001818
  66.7947626  59.4765186  60.5075264  66.5459776  60.1519918  58.5085678
  67.4415827  60.7623196  57.9399443  65.2972507  60.4432535  58.1898880
  65.1648283  61.2585688  57.6086569  64.4979906  59.9719524  58.5888338
  69.2614841  59.4489622  59.8867130  69.0736341  60.3192568  60.7159567
  70.3789234  59.3268871  59.1558790  70.3713512  58.6496496  58.4066153
  71.5713930  60.1879263  59.2661238  72.0324183  59.9874830  60.2332783
  72.6161528  59.7678375  58.1381512  73.5725737  60.2687216  58.2880354
  72.8985071  58.3106899  58.2146549  73.7562943  58.0252171  57.6057100
  73.0406475  57.9522991  59.2341900  72.0963812  57.8059912  57.6761675
  72.1432018  60.2479362  56.7519188  71.0797739  60.0167179  56.6905785
  72.4065256  61.3055944  56.7408371  72.8482103  59.6808958  55.4941797
  72.5109339  60.0355005  54.5202208  73.9246655  59.8185778  55.5961514
  72.6878977  58.6141348  55.6504536  71.3384151  61.7055988  59.1791487
  72.1885872  62.3969555  59.7849178  70.2988911  62.2040558  58.5381365
  69.6874809  61.5566730  58.0615091  69.9899292  63.6694002  58.4136772
  70.8638096  64.3118525  58.3055353  69.0732813  63.8809443  57.1530581
  69.0255976  64.9655485  57.0557928  69.7182322  63.3932304  55.8308697
  69.0239668  63.5571814  55.0067234  70.6085920  63.9865208  55.6226015
  70.0510597  62.3657084  55.9775734  67.7536297  63.3554459  57.2731066
  67.7926540  62.4287510  57.5207233  69.2917442  64.2762375  59.5920038
  69.2387438  65.5443430  59.6669674  68.7156105  63.4886551  60.4601622
  68.6162663  62.5303984  60.1568890  67.9150152  64.0885878  61.5766811
  68.4353781  64.9716425  61.9475365  66.5243292  64.5646238  61.0175085
  66.0116291  65.1730013  61.7625666  66.6800022  65.2315474  60.1695204
  65.5279016  63.5116005  60.6916618  65.4907990  62.4850178  61.2607670
  64.7551823  63.6589003  59.6597433  64.0541553  62.9557800  59.4745922
  64.8567867  64.4320059  59.0178061  67.7944565  63.1832838  62.8510618
  67.1819592  63.6178350  63.7966204  68.2037449  61.9255924  62.7929211
  68.3864021  61.4836740  61.9032907  68.1874990  61.0509396  63.9972067
  69.0969944  60.4533434  63.9355421  68.2393932  61.7164803  64.8588705
  66.9044256  60.1517010  64.1835785  66.8520832  59.3945265  65.1980257
  65.9478664  60.1838541  63.2116413  66.0465002  60.8268595  62.4390364
  64.8111200  59.2627525  63.1589365  64.1906071  59.3543291  64.0503883
  64.0995502  59.6635628  61.8409061  63.6412859  60.6155825  62.1087837
  64.8078346  59.8436356  61.0321999  63.0483961  58.6247635  61.3741589
  63.6194086  57.7373695  61.1010742  62.3573780  58.3415651  62.1681261
  62.1807241  59.0123129  60.1333904  60.9115791  58.9647627  60.0842619
  62.8160858  59.2553711  59.0596104  65.1346922  57.7516174  63.1389284
  66.1015701  57.3615265  62.5227880  64.3061352  56.8342209  63.7369347
  63.4594870  57.1750307  64.1695213  64.6656418  55.3754234  63.8068438
  65.4105902  55.2085781  63.0288172  65.2836418  54.9083376  65.1694727
  64.7826052  55.5232286  65.9171200  65.1073408  53.8327885  65.1549339
  66.7901230  55.1832104  65.2419472  67.2561026  54.4784784  64.5532417
  66.8626547  56.2457561  65.0099325  67.3522997  54.8788357  66.6458035
  67.5015306  55.8097696  67.5067997  67.3971033  53.6956310  67.0826674
  63.4215689  54.5531082  63.3699465  62.3540640  54.6484709  63.9931393
  63.5981846  53.6878204  62.3304796  64.4986010  53.6628914  61.8736076
  62.5144386  53.1615067  61.4783144  61.6874599  52.9258585  62.1481466
  62.1291065  54.1868448  60.3901482  61.3190365  53.7523842  59.8043680
  61.3547945  55.3963804  60.9678125  62.0801020  56.0382700  61.4678144
  60.8815050  55.9003067  60.1250982  60.6389046  55.0528002  61.7145061
  63.2427216  54.7152996  59.4693804  64.0148497  55.2604389  60.0122786
  63.6908674  53.9465523  58.8398647  62.7728462  55.4223824  58.7857437
  62.9035854  51.8531895  60.7375383  64.0026522  51.6968298  60.2342272
  61.9461870  50.8812284  60.6439400  61.0091209  51.1203146  60.9352160
  62.0672989  49.5788813  60.0679684  62.9154015  49.1093969  60.5663633
  60.8279324  48.8260460  60.4276896  60.6804037  48.8403320  61.5075636
  59.8914576  49.3160152  60.1611280  60.8365107  47.7649260  60.1785946
  62.3266935  49.6069527  58.5457897  61.8041277  50.3962851  57.7769613
  62.9738092  48.6178923  58.0035877  63.3144331  47.9565287  58.6867285
  63.3479691  48.5264158  56.6444302  62.6566887  49.1748762  56.1061621
  64.7666168  49.1090393  56.4347792  65.5319977  48.5450506  56.9678879
  65.0876141  48.9525414  54.9632597  64.1636181  49.1140079  54.4080400
  65.8529615  49.6925926  54.7294378  65.4362440  47.9287577  54.8275518
  64.6987867  50.6289101  56.7726994  63.8473368  51.1105633  56.2919235
  64.6446180  50.8479261  57.8390932  65.6144333  51.0422516  56.3497972
  63.2227898  47.0314026  56.1837721  63.8702631  46.1022902  56.7579412
  62.4320936  46.8738794  55.0738430  62.0332623  47.7037382  54.6586609
  62.3117638  45.5524635  54.3686533  62.5823498  44.6350908  54.8914528
  60.8664942  45.3635740  53.9851284  60.3591251  46.3251400  53.9072275
  60.8233404  44.7847080  53.0625486  60.1940060  44.6041155  55.1759386
  60.8184576  43.7342548  55.3796387  60.2114773  45.3630400  55.9581327
  58.7206793  44.1622305  55.0057697  58.3701324  43.9838409  56.0223293
  58.0478764  44.8949909  54.5602369  58.7108707  42.8468895  54.2238617
  58.9901304  43.0135012  53.1834984  59.4537878  42.1604300  54.6299934
  57.3855877  42.1631622  54.4247484  57.3110533  41.7640877  55.3495646
  56.6084862  42.7484131  54.1532707  57.1996975  41.4194775  53.7671185
  63.2202721  45.5846739  53.1485796  63.1156588  46.5134716  52.3225975
  63.9097548  44.4728565  52.8209972  63.8752651  43.6757231  53.4402657
  64.6323967  44.2756367  51.5435743  64.4585514  44.9893665  50.7382965
  66.1701345  44.2146635  51.7877436  66.4831638  43.2208538  52.1078348
  66.6525888  44.3567514  50.8207083  66.7529726  45.3011370  52.7093315
  66.2808657  45.1643515  53.6822224  68.2094669  45.0186205  52.9714823
  68.7178993  44.8389769  52.0242119  68.5896778  45.7403421  53.6944342
  68.3224916  44.0890408  53.5293436  66.7267084  46.6838884  52.1140003
  67.1296883  46.7986393  51.1077452  65.6836224  46.9988775  52.1431923
  67.2473335  47.3871422  52.7639914  64.1460466  42.9541016  50.9179163
  64.3187857  41.8674231  51.5196896  63.7256145  42.9757595  49.6438551
  63.7524033  43.8549376  49.1474390  63.2212591  41.7767620  48.9073038
  62.6962805  41.1363029  49.6160412  62.3150635  42.2649288  47.7776670
  61.5450048  42.9623890  48.1073046  63.0428743  42.7124357  47.1008158
  61.5199232  41.1345530  47.1030426  62.1919823  40.3989744  46.6610432
  60.9766912  40.6632662  47.9221249  60.4775858  41.5590429  46.0971212
  59.2748356  41.2359571  46.2110806  60.8359718  42.1573400  45.0518513
  64.4172382  40.9128094  48.4354448  65.5527401  41.4204311  48.2400990
  64.1744471  39.6390676  48.2086468  63.3153391  39.1701913  48.4580040
  65.1012182  38.8507414  47.3841906  65.9613323  38.5502601  47.9825354
  64.3005562  37.5980139  47.0896196  64.0374088  37.1393347  48.0427551
  63.5098124  37.8636837  46.3880157  65.0134230  36.5401483  46.4628172
  65.5450296  36.1524057  47.1618557  65.5419588  39.3855095  45.9792948
  64.8269081  40.0991535  45.3093719  66.7792654  39.1251802  45.5788088
  67.3859167  38.7958837  46.3161230  67.3076010  39.5430708  44.2324877
  67.1342611  40.6003189  44.0317631  68.8302088  39.3174386  44.1469955
  69.0040016  38.2957697  44.4847584  69.1185522  39.4521332  43.1044865
  69.6333170  40.2938175  44.9617386  69.3983507  41.2896967  44.5860767
  69.3197680  40.2514648  46.0048103  71.1008549  40.0629282  44.8133993
  71.7720318  40.7423210  44.0474367  71.6573858  39.1921663  45.6498957
  72.6445627  39.0110612  45.5368376  71.0805941  38.8952708  46.4240170
  66.5617609  38.8130045  43.1073380  66.7044592  37.5691819  42.9982138
  65.9005117  39.6282029  42.2835350  66.0359764  40.6273699  42.3419380
  65.1753044  39.1761565  41.0258627  64.4797850  39.8938012  40.5907297
  66.2521935  38.7627912  39.8906970  67.0068073  38.0694699  40.2621317
  65.6375170  38.3629441  39.0842271  66.9253683  39.9902964  39.2989564
  66.2124872  40.5455780  38.6893988  67.2805834  40.6404305  40.0984907
  68.0786610  39.6053433  38.4240389  68.7672424  39.0702510  39.0779734
  67.7525616  38.8825941  37.6761103  68.6787271  40.8193207  37.6803231
  67.9053211  41.4428949  37.2318745  68.9377546  41.4392185  38.5386539
  69.7956896  40.5172873  36.8121266  69.6231842  39.7009182  36.2430215
  69.8857641  41.3434315  36.2381244  70.6541967  40.3488493  37.3167968
  64.1495323  38.1045318  41.4882994  64.2263556  36.9389844  41.1299562
  63.2093668  38.5846329  42.2900677  63.2131863  39.5425534  42.6101828
  62.1542311  37.7870846  42.9142046  62.6019430  37.1588683  43.6842728
  61.1909485  38.6935735  43.5798454  61.7626047  39.0432262  44.4395161
  60.7768631  39.4274306  42.8884077  60.3667784  38.1340384  44.0223026
  61.4053440  36.8786192  41.9283152  60.6492233  37.3225069  41.0242653
  61.5545034  35.5659461  42.1786690  62.1761942  35.3747034  42.9513407
  60.8649683  34.4711280  41.4286375  61.1901331  34.5422530  40.3907013
  61.3059711  33.0959582  41.8299580  62.3946476  33.0422592  41.8298912
  61.0512352  32.8485608  42.8604937  60.7605743  31.9924855  40.9280109
  59.8362780  31.6531324  41.3955784  60.6420422  32.3173499  39.8943233
  61.6871834  30.7407188  40.9513187  62.6709986  31.1228251  40.6789160
  61.7296028  30.3439474  41.9656563  61.3355589  29.6770024  39.9571800
  62.0648241  29.4235039  39.3060184  60.1267004  29.1277099  39.7633696
  59.1771364  29.1211271  40.5857086  59.4711971  29.3146801  41.5323687
  58.3975744  28.5743880  40.2488756  59.9569750  28.3997345  38.6370683
  60.6463575  28.3686566  37.8995824  59.1030979  27.8642201  38.5721254
  59.3215656  34.6715021  41.5003681  58.5432434  34.2904258  40.6151056
  58.8599062  35.1895070  42.6458836  59.5936251  35.2353501  43.3384609
  57.4651623  35.5258226  42.9706287  56.9237328  35.5160642  42.0246553
  56.7345142  34.5096374  43.9145660  56.8715143  33.4768820  43.5940218
  57.2710466  34.6505451  44.8528528  55.3576660  34.8016763  44.1168070
  54.1991615  34.2774868  43.3862877  53.0898666  34.7853899  43.9820051
  52.0782232  34.6670961  43.6228561  53.4176540  35.5170655  45.0445271
  52.7416706  35.9491348  45.6580973  54.7661066  35.4714727  45.1884699
  55.3240013  35.7945728  46.0549402  57.3642492  36.9912434  43.5199976
  57.7458954  37.2133636  44.6715641  56.8817425  37.9590249  42.7338886
  56.8349934  37.9433584  41.2272358  55.8425903  37.6245594  40.9084845
  57.6450396  37.2816539  40.9205341  57.0171738  39.3109775  40.6995249
  56.4909220  39.5253873  39.7693729  58.0771685  39.4498229  40.4868412
  56.4738178  40.1344252  41.8500948  55.3875446  40.2216148  41.8275690
  56.9301748  41.1221123  41.7844582  56.8417692  39.3788385  43.1474829
  57.8500032  39.6508646  43.4598398  55.9425211  39.5985341  44.3835735
  54.8282242  39.0832973  44.4383144  56.2495995  40.4808521  45.3484392
  57.1147442  40.9988499  45.2908897  55.5968523  40.5425596  46.6957760
  54.5405769  40.3635883  46.4949131  55.9365129  39.3316269  47.5489664
  55.9388876  38.4517646  46.9055843  56.9258356  39.4651723  47.9865789
  54.9772549  39.0707564  48.6909914  55.1942682  39.8446751  49.4272375
  53.9597797  39.0013337  48.3062553  55.1206350  37.7261901  49.3589878
  55.5456543  36.6714334  48.8406420  54.8858070  37.6296425  50.6570292
  55.2069807  36.7453289  51.0243702  54.4679260  38.3184218  51.2661743
  55.7327890  41.8972588  47.3919487  54.6791553  42.4066687  47.8576422
  56.9520330  42.4734497  47.3390150  57.7356339  41.9608927  46.9603825
  57.2436666  43.7541914  48.0145454  56.6602230  43.6173296  48.9250183
  58.7631607  43.9651537  48.3209419  59.1891623  43.0381966  48.7048292
  59.1725826  44.2270756  47.3452950  59.1187811  45.0402641  49.3399477
  58.6776686  45.9581661  48.9513874  58.5241413  44.8186302  50.8003330
  57.4402761  44.7873926  50.9115267  59.0011501  43.9199209  51.1913443
  58.7900782  45.6971788  51.3881493  60.6305885  45.4077053  49.4697189
  61.0095024  45.6188250  48.4697390  60.7540226  46.2896967  50.0981712
  61.1221552  44.5212984  49.8706579  56.6750908  44.9156618  47.1605539
  56.1821842  45.9435081  47.7166319  56.7015314  44.8278904  45.8496809
  57.3089266  44.1437674  45.4217148  56.0173416  45.7513571  44.9679613
  56.5278244  46.7038345  45.1104021  56.2739182  45.2279711  43.5108900
  57.2826672  44.8625708  43.3185196  55.6495190  44.3585777  43.3050156
  55.8156061  46.2806416  42.4980593  54.7928095  46.6223240  42.6569271
  56.6352558  47.6003790  42.6136589  57.6861620  47.3565912  42.7694273
  56.4737988  48.2618523  41.7624903  56.2832403  48.1747437  43.4705687
  55.9934092  45.6381989  41.1563253  55.6886482  46.3396215  40.3796482
  56.9975471  45.2569675  40.9706688  55.3018618  44.7982836  41.0899734
  54.4504929  45.9249544  45.2496672  53.9135504  47.0026016  45.4789352
  53.7822580  44.7578382  45.3349495  54.1609049  43.8528490  45.0946951
  52.4081945  44.5712614  45.7748270  51.7518473  45.2239370  45.1992130
  51.8823051  43.1789637  45.8537436  52.5014830  42.5586939  46.5018034
  50.9320354  43.2216692  46.3859701  51.6011667  42.6437855  44.4938517
  52.3812532  41.6366720  43.9504147  53.2724905  41.3003540  44.4593239
  51.8994045  41.0107946  42.8084755  52.4068213  40.1664305  42.3657846
  50.6631708  41.3186216  42.2287846  50.3223515  40.7753038  41.0112715
  51.1068583  40.7139826  40.4613638  49.8189211  42.2271156  42.8754091
  48.7936354  42.3004961  42.5440407  50.3033352  42.9551697  43.9549828
  49.6134806  43.6357355  44.4317770  52.2765207  45.0820732  47.2399759
  51.3893414  45.8963108  47.4407530  53.1815815  44.7179508  48.1452751
  53.8180256  43.9782286  47.8847885  53.0069113  45.0459671  49.5593977
  52.0783424  44.5671177  49.8701525  54.0537548  44.2841816  50.3310490
  54.2163610  43.2626438  49.9873590  55.0110102  44.7900629  50.2051783
  53.7246609  44.2085361  51.8146849  53.3150339  45.1563978  52.1637726
  52.9282093  43.4783220  51.9580507  54.8731565  43.5980892  52.6178551
  55.2622414  44.1379452  53.6635971  55.4563618  42.5783920  52.2158051
  52.9560089  46.5504265  49.8168278  52.1042633  47.0560932  50.5136538
  53.8384533  47.2186375  49.1328144  54.5886469  46.6578913  48.7548304
  54.0350389  48.6732149  49.0143108  54.3276310  49.1092110  49.9695063
  55.1924849  48.9222527  48.0405617  56.0421371  48.4023666  48.4831762
  54.9430132  48.4338617  47.0985746  55.4750919  50.3167772  47.8897715
  56.4205742  50.3978872  48.0349541  52.7334547  49.4420910  48.6124277
  52.2024775  50.2886486  49.3587017  52.1252108  49.0011644  47.4982071
  52.5248671  48.1803226  47.0662451  50.9007454  49.5173693  46.9416094
  50.8990717  50.6025410  46.8391466  50.6156445  48.8277245  45.5380154
  50.7366419  47.7544022  45.6844568  49.6064186  49.0917110  45.2219963
  51.4894629  49.2163038  44.2950296  51.2180710  50.1640558  43.8300467
  52.5406647  49.2994070  44.5710182  51.3985348  48.1575918  43.1951046
  51.6180468  47.2226381  43.7106371  50.3895950  48.0728436  42.7914190
  52.4005842  48.4053278  42.0811129  52.1519041  49.3482351  41.5940952
  53.4098577  48.4198713  42.4925280  52.5177050  47.3528433  41.0046768
  53.1144333  47.7682447  40.3036356  52.7580118  46.4711857  41.4348364
  51.6555977  47.1879101  40.5050135  49.6840000  49.2805958  47.7564335
  48.7753439  50.1397276  47.8124189  49.6586370  48.1889677  48.5136938
  50.4726076  47.5946951  48.5799599  48.6583233  47.9779530  49.6097660
  47.6997709  48.2576704  49.1726780  48.4405375  46.5058899  49.9624586
  48.0703926  46.0114622  49.0643215  49.3826199  46.1277294  50.3594112
  47.3778105  46.2167406  51.0884190  47.6866865  46.6827297  52.0241261
  45.9548616  46.7690802  50.7927084  45.2582884  46.3358307  51.5104723
  45.9819889  47.8578949  50.7497549  45.7503510  46.4350033  49.7755146
  47.2498512  44.7393942  51.2377596  46.7428160  44.5237494  52.1782446
  46.6430664  44.3974876  50.3992987  48.2555819  44.3222523  51.1867714
  48.9383459  48.8662148  50.8278275  47.9912329  49.5417833  51.2468100
  50.1642179  48.9422083  51.3500118  50.9693432  48.4821844  50.9496975
  50.4591131  49.9644709  52.3144293  49.8619604  49.6614647  53.1744862
  51.8325090  49.8965120  52.8441286  52.5187445  50.0850534  52.0185184
  52.0371008  50.7862091  53.4396791  52.2572947  48.6752224  53.6420250
  53.4417629  48.0115652  53.1761312  53.8545179  48.1636190  52.1897697
  54.0811872  47.0082045  53.9201641  54.9911451  46.4894199  53.6570215
  53.4464407  46.5327597  55.1198769  53.9802694  45.4593754  55.7665730
  54.7230053  45.1350927  55.2519989  52.3122168  47.1906757  55.6090879
  51.8729019  46.7903757  56.5108442  51.7111731  48.3135891  54.8781300
  50.8724070  48.9051914  55.2141047  50.0289965  51.3814211  51.9006157
  49.3687344  52.0446301  52.6749897  50.4109716  51.8495512  50.7172155
  50.9390068  51.2205458  50.1293135  50.0650311  53.2406807  50.1864576
  50.5352259  53.9887571  50.8247328  50.6167984  53.4055281  48.6923552
  51.5691757  52.8774881  48.6448717  49.9743986  52.8675652  47.9951954
  50.7468224  54.8900938  48.3223200  49.7765207  55.3858709  48.2937479
  51.4045572  55.2979136  49.0898943  51.3444757  55.1131439  46.9035149
  52.2737741  54.5434952  46.9033051  50.6723976  54.7266150  46.1373472
  51.6380787  56.5370035  46.3546371  52.4972820  56.9444466  46.8874168
  52.0440149  56.3486719  45.3607321  50.4850578  57.3738861  46.3206530
  49.6224022  56.8774796  46.1488819  50.5056000  57.9670477  47.1378660
  50.5926371  58.1134701  45.6412792  48.5577822  53.4584522  50.2236986
  48.1062317  54.4180012  50.7721186  47.8202724  52.4380493  49.7706842
  48.2479191  51.6328716  49.3360376  46.3571024  52.3962831  49.8072863
  45.9798670  53.2700348  49.2759180  45.7259035  51.1878395  49.0104103
  46.2614536  50.2717829  49.2596722  44.2239618  50.9511900  49.3666601
  43.6748314  50.4682970  48.5583448  44.1719007  50.3255606  50.2577162
  43.6465645  51.8730450  49.4366550  46.0291672  51.4781570  47.5012684
  45.4225159  52.3629856  47.3085117  47.0756626  51.7362452  47.3389721
  45.5675745  50.4435110  46.5315056  45.6753349  49.4531870  46.9739532
  44.4931221  50.5248928  46.3670826  46.0983753  50.5842495  45.5899429
  45.8074331  52.6105928  51.2030077  44.9780226  53.4676504  51.5314102
  46.4356136  51.9632387  52.1020842  47.1345615  51.3214970  51.7560482
  46.2267542  51.7974186  53.5831690  45.1491165  51.8257713  53.7443924
  46.6220236  50.4307175  54.2013788  47.6536465  50.3929424  53.8514805
  46.6547108  50.5128241  55.2877903  45.9794378  49.1167879  53.6710739
  45.9460020  49.1842222  52.5836754  46.9243431  48.0230522  54.1829777
  46.8499470  47.7639341  55.2391148  46.4687014  47.1222019  53.7719297
  47.9256725  48.1729937  53.7792969  44.6027374  49.0138197  54.2678213
  44.0248489  48.2148457  53.8032818  44.7073460  48.8550806  55.3411150
  44.0251255  49.9167299  54.0698051  46.7806768  53.0393505  54.4970226
  46.2848568  53.2552338  55.6353903  47.7273512  53.7556028  53.9214802
  48.0159330  53.3634663  53.0365801  48.6503696  54.6475172  54.7043276
  49.0437603  54.0084219  55.4948330  49.7285700  55.1110649  53.7830925
  50.3482008  54.2654610  53.4845877  49.2331600  55.5971289  52.9426050
  50.7237482  56.1532354  54.2875385  50.6047916  57.0898056  53.7427568
  50.5381441  56.3413191  55.3450251  52.2099352  55.6615448  54.1492605
  52.5798559  54.5490265  54.1231251  53.1375360  56.5887642  54.0839195
  54.0642738  56.1995649  54.1828489  52.8771257  57.5444126  54.2814493
  47.8274298  55.7812405  55.3717661  46.9028997  56.3484716  54.7450829
  48.0735397  56.0409021  56.6486979  48.7203217  55.4128790  57.1040678
  47.3071337  56.9438505  57.5309277  48.0099487  57.5096941  58.1424570
  46.6267920  57.5707150  56.9544935  46.3528776  56.3301802  58.5542870
  45.7318163  57.0712852  59.3651199  46.2373829  55.0096226  58.4380341
  46.7364120  54.5467663  57.6918221  45.4258585  54.1846704  59.2850924
  44.4392157  54.6438646  59.3465376  45.2791166  53.2455301  58.7516403
  45.9021282  53.8482285  60.6473255  47.0629501  53.4859514  60.8094645
  45.0752449  53.8236237  61.6333723  44.1300154  54.1449928  61.4805222
  45.4456854  53.2157469  62.9318237  46.2703991  53.7796879  63.3676291
  44.2719555  53.4800529  63.8777542  44.1085672  54.5416737  64.0631390
  42.9474449  52.9547548  63.4493303  42.3158169  52.9924536  64.3368673
  42.5490379  53.4245682  62.5500822  43.1017542  51.9031763  63.2075119
  44.6369076  52.8805637  65.2467966  45.5917263  53.2606125  65.6101084
  43.7603998  53.0756330  65.8646822  44.7630262  51.7987967  65.2022982
  45.8336639  51.7525434  62.6630545  45.1962233  50.9914923  61.9173908
  46.9477415  51.4049721  63.3293295  47.5149727  52.1750116  63.6539650
  47.5660992  50.0823402  63.2273769  48.3959007  50.0711346  63.9340591
  46.9648123  49.3256283  63.7312984  48.1330156  49.6782827  61.9002628
  48.2319498  48.4857702  61.6707373  48.6636925  50.5901909  61.0598373
  48.5836601  51.5705585  61.2891436  49.3628359  50.3537750  59.8063612
  49.6721983  49.3099356  59.8592758  48.4099340  50.4981947  58.5706282
  48.1280327  51.5480900  58.6503458  49.1163874  50.1827478  57.2870684
  49.9764299  50.8339071  57.1307898  49.4819212  49.1597366  57.1980524
  48.3578062  50.4037666  56.5361929  47.1199512  49.6078110  58.5944176
  46.5345335  49.9258804  59.4570971  46.5843582  50.0444412  57.7514505
  47.1422148  48.0677271  58.5261536  47.2114754  47.5772381  59.4970989
  46.2728548  47.6991749  57.9816532  47.9366970  47.6648808  57.8979683
  50.7130289  51.1824799  59.6482897  50.7407808  52.3790121  59.9719477
  51.8298244  50.5767345  59.2494154  52.0560789  49.1739035  58.9125490
  51.2091732  48.8242626  58.3221197  52.0799398  48.6207914  59.8514843
  53.4255981  49.0963316  58.1566954  53.1729364  49.0377665  57.0980024
  53.9931917  48.2004213  58.4082508  54.2174006  50.3326559  58.6329508
  54.7855377  50.8121014  57.8357983  54.9065781  50.1194715  59.4500732
  53.0931854  51.3056421  59.0995550  53.3735800  51.6342688  60.1002932
  52.9568911  52.4334908  58.0575371  52.1942472  52.2830343  57.0512867
  53.7139654  53.5524797  58.2734394  54.0937805  53.5798597  59.2089081
  53.6633015  54.7151661  57.3465633  52.9830360  54.4921350  56.5246201
  53.2999134  55.9488440  58.2341194  52.4301147  55.7350922  58.8552999
  54.1636229  56.2583876  58.8225794  52.8522682  57.2544718  57.5573540
  53.6884403  58.0328226  56.8283701  53.0030537  59.1304636  56.6037130
  53.4096241  59.9662781  56.0537052  51.7636347  59.0047741  56.9989681
  51.0144472  59.6674919  56.8588877  51.6091251  57.8016043  57.5756168
  50.8085823  57.2419500  58.0363989  55.0777340  54.8164463  56.6182804
  56.0111046  55.3438759  57.2233486  55.1507711  54.4441938  55.3124809
  54.3275166  54.0227509  54.9065924  56.3319731  54.4308996  54.4426823
  57.0447731  53.7056160  54.8350811  55.9925318  53.9771461  52.9849339
  55.1093626  54.5593309  52.7219105  57.0700598  54.3099546  51.9077301
  57.9449463  53.7186909  52.1780491  56.8389702  53.9635706  50.9003973
  57.3428679  55.3650761  51.8878794  55.6422901  52.5096273  52.8468132
  56.5468502  51.9022608  52.8156042  55.1055479  52.1249437  53.7140036
  54.8262453  52.1098852  51.5926600  54.5608902  51.0549307  51.5236282
  53.9242458  52.7196550  51.5408707  55.4158783  52.1688795  50.6778097
  57.0624018  55.7514524  54.3312979  56.4774609  56.7646074  53.9934874
  58.3279753  55.7556725  54.7159815  58.6928320  54.8808813  55.0648689
  59.1680193  56.9596052  54.4109726  58.5225630  57.8232908  54.5707846
  60.3618526  56.9558144  55.3374052  61.1104774  56.3011265  54.8912573
  60.7447052  57.9757261  55.3013277  60.0183725  56.6909027  56.8272829
  59.7355270  55.6487894  56.9759226  60.9132290  56.9294167  57.4021292
  58.8788080  57.5089550  57.2868538  59.0456200  58.5037518  56.8737555
  57.9088259  57.0596743  57.0738125  58.9863777  57.6754904  58.6981058
  59.8449516  58.1612539  58.9148760  58.1860781  57.3022461  59.7170019
  57.1146345  56.6045094  59.5834827  56.7671919  56.2797022  58.6924791
  56.6034460  56.2675858  60.3867722  58.4138250  57.7298117  60.8853674
  59.2543602  58.2765865  61.0063648  57.8646994  57.3842144  61.6593933
  59.5367193  57.0581198  52.9223537  59.5282984  58.1531143  52.3985481
  59.8933792  55.9193134  52.3565722  59.7955275  55.1353312  52.9857779
  60.6055737  55.8267212  51.0806751  60.2748775  56.5820360  50.3677654
  62.0925951  56.0799265  51.3458014  62.1884632  57.0289135  51.8733692
  62.4343586  55.2765417  51.9983959  63.0403948  56.2653351  50.2024412
  63.6065388  57.4847221  49.8600960  63.3050871  58.4459496  50.2494144
  64.4922638  57.2669554  48.8878584  64.8445606  58.0144453  48.3071327
  64.6133375  55.9140635  48.5736942  65.4778290  55.3007555  47.6889420
  66.1996746  55.8940840  47.1473694  65.5125904  53.8909960  47.6823330
  66.3234615  53.4142017  47.1517134  64.6054173  53.1615973  48.4698534
  64.6994591  52.0859051  48.4490204  63.7384224  53.7939167  49.4105053
  63.0753946  53.2189226  50.0399351  63.7084579  55.2233601  49.4141483
  60.5689955  54.3955374  50.4916334  60.5070925  53.3904171  51.2257433
  60.5223083  54.3185854  49.1465330  60.6318569  55.1436567  48.5743809
  60.3886938  53.0691528  48.3798075  60.8208370  52.2706509  48.9829206
  58.8696146  52.8030634  48.2869959  58.5338593  52.6623678  49.3144083
  58.2211685  53.5755157  47.8735495  58.6684513  51.5653038  47.4560165
  58.9731407  50.3592348  48.0565929  59.2371178  50.3043270  49.1023970
  58.9876318  49.1898680  47.3193645  59.2470789  48.2480145  47.7797937
  58.6796618  49.2079258  45.9519625  58.7712812  48.0961418  45.1414537
  59.2023373  48.2886982  44.3055630  58.2822132  50.4256630  45.3455639
  57.9962540  50.3773260  44.3052340  58.3109140  51.6248751  46.0822296
  57.9248905  52.4783278  45.5446243  61.0556126  53.0577326  46.9784546
  60.9081936  54.1076612  46.2658310  61.7589235  51.9582510  46.5582085
  61.9436359  51.2750435  47.2787714  62.3215723  51.8050528  45.2263069
  61.4976311  51.9137478  44.5210314  63.0251122  52.6103735  45.0151587
  62.9775524  50.5326462  45.0134373  62.5100422  49.5264816  45.4850578
  64.1836452  50.5504942  44.3735647  64.5485926  51.4493275  44.0924692
  64.9651670  49.3323183  44.1664410  64.7548389  48.7494850  45.0631952
  64.4001579  48.4960365  43.0596781  64.9787521  47.5723839  43.0455923
  63.3708477  48.2618809  43.3313179  64.3577576  49.1852856  41.6458416
  63.2964277  49.3245888  41.4402437  64.8220348  50.1703930  41.6918230
  64.8647308  48.3827829  40.4447937  65.9052324  47.7170181  40.5416679
  64.1176176  48.4732199  39.3441582  64.2719841  48.0856419  38.4243441
  63.2534838  48.9910650  39.4163013  66.5083027  49.4828558  44.0024614
  67.0209599  50.2468109  43.0932999  67.2192860  48.7358046  44.8887682
  66.7712927  48.0518389  45.4817247  68.6902142  48.5993338  44.9258804
  69.0649796  49.6173096  44.8192692  69.3086910  48.2306910  46.3216496
  69.0383816  49.1035414  46.9159222  68.7226295  47.3760986  46.6597366
  70.8373022  47.9903507  46.4957762  71.0480022  48.0172968  47.5648785
  71.0269594  46.9866753  46.1153030  71.6853714  49.0628481  45.8091497
  71.2957239  50.2479172  45.7373142  72.8961706  48.7764406  45.6844139
  69.3154764  47.7318907  43.7644005  70.0195456  46.7596006  43.9964771
  69.1672277  48.1705999  42.5098801  68.6551809  49.0070820  42.2686148
  69.7731066  47.6229763  41.3143396  69.4872856  48.2912350  40.5020380
  71.2376785  47.4794054  41.4031076  71.6773272  48.4068155  41.7701387
  71.4696836  46.6668987  42.0916605  72.1867371  47.0822287  40.2225208
  71.7853022  46.1983013  39.7269225  72.1176863  47.9220009  39.5310616
  73.5699463  46.8296480  40.7337952  73.6153889  47.5072765  41.5863514
  73.5794115  45.7948971  41.0762835  74.7756958  47.2119522  39.8233819
  74.6427345  48.2490158  39.5152903  75.6351519  46.9762373  40.4509735
  74.8397255  46.4091635  38.6091137  75.7452011  46.2558937  38.1887245
  74.6386576  45.4478550  38.8448286  74.1317129  46.7555571  37.9775810
  69.0344906  46.3749886  40.8485460  68.6010551  46.3018370  39.6658492
  69.0288496  45.3848791  41.6081381  69.4716930  45.5283213  42.5044727
  68.3815622  44.0422297  41.4083433  67.8660154  44.0590620  40.4481220
  69.5215893  43.0001879  41.3204908  70.0552940  42.9438925  42.2692204
  69.1015482  41.9976616  41.2391996  70.5174589  43.2743216  40.1864529
  71.6917467  42.8020430  40.2736521  70.0699234  43.7764406  39.1385221
  67.2702742  43.6251163  42.4419260  66.6716290  42.5863314  42.2155046
  66.9440651  44.3390226  43.5442924  67.3119116  45.2703381  43.6763716
  65.8725882  44.0283442  44.5567226  65.1037741  43.4904099  44.0020657
  66.5042686  43.1130600  45.6758070  65.6071043  42.8833771  46.2506533
  66.8086958  42.1712160  45.2193451  67.6362944  43.7488127  46.5155888
  68.8862848  43.8784409  45.9691048  69.1240835  43.6203575  44.9477148
  69.9378586  44.3471479  46.8455887  70.9166908  44.4456339  46.3999510
  69.6910667  44.7951078  48.1371975  70.6587076  45.2609968  48.9403534
  71.5137148  45.1681089  48.5138130  68.3783722  44.8326683  48.6000347
  68.1285810  45.1608133  49.5981979  67.3745108  44.2576790  47.8216219
  66.4156866  44.0074587  48.2510948  65.0960016  45.2717686  45.0585985
  65.7450390  46.2030220  45.4384565  63.7772989  45.2310705  44.9967861
  63.4310770  44.4117785  44.5182610  62.9079676  46.1846018  45.6774139
  63.0673218  47.1399164  45.1773310  61.3825607  45.8682585  45.4099751
  61.0378695  44.9418449  45.8693743  60.7363558  46.6336823  45.8396673
  61.1097908  45.7656145  43.9547110  61.1491919  46.7039967  43.2333565
  61.0575819  44.5826960  43.4561729  60.9661341  44.5272875  42.4518490
  60.9563875  43.8103056  44.0990400  63.2008553  46.3740349  47.2128296
  63.5201311  45.4708385  47.9133034  63.1580973  47.6283169  47.6469612
  62.6522446  48.3109474  47.1008539  63.5044765  48.1023693  49.0148067
  63.6581945  47.2534847  49.6810436  64.8692703  48.8199329  48.9524412
  64.9483013  49.6685839  48.2729959  65.1772499  49.4053316  50.3137493
  64.9416971  48.8218784  51.2038088  66.2424088  49.6202326  50.3995132
  64.6475887  50.3464890  50.4613304  66.0220623  47.7901745  48.6753511
  65.9674549  46.9054556  49.3097019  65.7368708  47.5312471  47.6556826
  66.9743013  48.3193207  48.7120914  62.3868608  49.0067673  49.6154642
  62.0025444  49.9771929  48.9793062  61.8688297  48.7670374  50.7970762
  62.1824217  47.9164839  51.2424135  60.7253551  49.4371653  51.4033127
  60.4531145  50.2391720  50.7171822  59.6434116  48.4874058  51.4552975
  59.3833017  48.1954908  50.4378366  59.9716806  47.5843000  51.9698286
  58.3592510  48.9569807  52.1057320  58.6372423  49.5748234  52.9596090
  57.4132299  49.7385168  51.1725950  57.9080105  50.6163931  50.7571125
  57.0200253  49.1861725  50.3191328  56.6174555  50.0581217  51.8454123
  57.6258135  47.7058077  52.6162624  56.8358040  48.0511904  53.2831144
  57.1646357  47.1574020  51.7948771  58.2591534  47.0682526  53.2331133
  61.1526966  49.9354124  52.8298378  61.3185406  49.1599941  53.7577868
  61.1400414  51.3015842  53.0305099  60.9331703  51.9185114  52.2580433
  61.5430117  51.8080187  54.3395710  62.1518326  51.1371994  54.9457455
  62.3431253  53.0983734  54.3095207  61.7617559  53.9059782  53.8646698
  62.6800728  53.5915899  55.7080221  63.4251356  53.0162811  56.2575865
  63.1017113  54.5774412  55.5120087  61.8365860  53.6993742  56.3899374
  63.5907555  52.9728174  53.4860992  64.1964054  53.8762808  53.5571527
  64.1013241  52.0904636  53.8719463  63.2865286  52.9606628  52.4394894
  60.2157974  52.1777868  55.0769091  59.5231199  53.0268908  54.6549654
  59.8811340  51.3533783  56.0778332  60.6228638  50.6792450  56.2022829
  58.6851501  51.2727499  56.7954254  57.8533936  51.5561628  56.1504745
  58.3142281  49.8154497  57.1275473  59.0453148  49.2458248  57.7012491
  57.3571682  49.7587061  57.6461172  58.2033348  48.9754915  55.8464813
  57.2524786  49.1622066  55.3473663  58.9250469  49.3605804  55.1261044
  58.3513832  47.1907187  56.1464405  56.7806053  46.7172098  56.9627810
  55.9498930  47.1353579  56.3943052  56.8030787  45.6465006  57.1657038
  56.6919041  47.2651958  57.9008389  58.6937618  52.3486662  57.9214954
  58.7757683  53.5338497  57.6420355  58.4540701  51.9535923  59.1861582
  58.5604000  50.9918499  59.4757271  57.9859543  52.9125309  60.2484274
  58.3220243  53.8997650  59.9313736  56.4250517  52.9122066  60.2776194
  56.1800194  52.9335976  59.2157364  56.1405706  51.9378662  60.6749058
  55.6489372  53.9818478  61.0188103  56.1972094  54.8796368  61.6709423
  54.3755245  53.9300919  61.0298920  58.4728479  52.3958826  61.5998745
  59.3071413  51.4819384  61.6455603  58.1958437  53.0985594  62.7084112
  57.6673460  53.9404535  62.5294876  58.6748791  52.7047968  64.0521002
  59.7396421  52.5013638  63.9381027  58.5035324  53.8385773  65.0531721
  58.9751911  54.6849728  64.5539236  57.4427462  54.0806627  65.1181364
  58.9773035  53.5673428  66.4677429  58.5539961  52.6527309  66.8829632
  60.5392551  53.3434820  66.5883112  60.8571959  52.3913670  66.1634779
  61.0851765  54.1570282  66.1105919  60.7349920  53.3859062  67.6597548
  58.4989405  54.7110415  67.3014402  57.4222517  54.8539448  67.2096777
  58.5874701  54.3785095  68.3356953  59.0817928  55.6136847  67.1180820
  57.8328848  51.5083647  64.5885134  56.6289282  51.6029501  64.7211123
  58.5182047  50.4176378  64.9972725  59.5113659  50.5898237  65.0611973
  57.9811239  49.1300249  65.4480743  56.9151688  49.2189074  65.6576967
  58.1552601  48.1326199  64.3088436  59.2240572  47.9593706  64.1833401
  57.7956963  47.1758652  64.6875811  57.5146675  48.3456755  62.9408407
  58.1713200  49.0932322  62.4957895  57.8161144  47.2244358  62.0140934
  57.1465778  46.3855410  62.2040224  57.5550365  47.6611996  61.0501528
  58.8786316  46.9818258  62.0310926  56.0390759  48.7532711  62.9760790
  55.5310154  48.5888577  62.0258474  55.4037333  48.1007910  63.5750151
  56.0105371  49.7442150  63.4292030  58.7004757  48.5824203  66.7579937
  59.8788834  48.8494587  67.0278358  57.9353809  47.8456116  67.5029039
  56.9499874  47.6999235  67.3359394  58.4959650  47.0094967  68.5146475
  59.4731092  47.3019457  68.8990498  57.8152418  47.1660519  69.3514395
  58.3996105  45.4777765  68.2304621  58.3007336  45.0943565  67.0424986
  58.2089853  44.6490526  69.2541742  57.9783821  45.0379610  70.6266785
  57.0336962  45.5812311  70.6496668  58.7278891  45.7167482  71.0336018
  57.8351545  43.7494802  71.4526987  56.8006802  43.4732389  71.6567898
  58.3462381  43.7453747  72.4154425  58.5494757  42.6819706  70.5528021
  58.2190847  41.6734695  70.8015299  59.6091652  42.7790737  70.7888603
  58.2763338  43.1569195  69.1303205  59.1781712  42.8728628  68.5880089
  57.0284557  42.4744463  68.5079098  55.8690405  42.9313850  68.6133814
  57.1874905  41.3604879  67.7493048  58.1527472  41.0863733  67.6342583
  56.1245632  40.6000757  67.0618534  55.6079769  41.3703489  66.4892101
  56.7534351  39.5013165  66.2541342  57.4606323  38.8576055  66.7772102
  55.9124565  38.9500856  65.8334255  57.4694920  40.0559568  65.1471519
  57.6425600  39.3591523  64.5098877  55.0993109  39.9430799  68.1148481
  55.5721045  39.6273375  69.2108536  53.8321590  39.5973945  67.7919436
  53.4775257  39.8750019  66.8879080  52.8383207  38.9321256  68.6836243
  52.9578209  39.4129324  69.6545267  51.3898134  39.1917992  68.3672237
  51.2889433  40.2504587  68.1281376  51.1410046  38.7233710  67.4149799
  50.3301954  38.8392186  69.4521856  50.3944921  37.8223228  69.8393440
  50.5239344  39.6404719  70.7253313  49.6911240  39.5706153  71.4250851
  51.3502741  39.2110968  71.2918091  50.6951332  40.6816912  70.4521132
  48.9258099  39.0674472  68.9170599  48.2298422  38.8534975  69.7282028
  48.8066959  40.0967979  68.5789013  48.7675142  38.3769226  68.0886650
  53.2278299  37.4953175  68.8845539  53.0280256  36.9761562  69.9699020
  53.8761663  36.8498993  67.9906988  54.1064548  37.2878814  67.1102238
  54.5549345  35.5144811  68.1575441  53.8064337  34.8547506  68.5964108
  54.9419117  34.9779081  66.7151594  54.0309000  34.9017310  66.1215639
  55.5243921  35.7836986  66.2684727  55.8670378  33.7378931  66.6637707
  56.2584496  33.6717272  65.6486225  56.7390823  33.9414930  67.2852087
  55.2213192  32.4476051  67.1597195  54.0080023  32.1506834  66.9726324
  55.9575939  31.6354036  67.6947689  55.8073092  35.5984974  69.1301966
  56.1785936  34.5762324  69.6870613  56.4559460  36.7499280  69.3216038
  56.0177660  37.5151157  68.8290691  57.6167631  36.9240856  70.1637077
  58.2261992  36.0204005  70.1700687  58.5268021  38.0247974  69.4711542
  58.4429932  37.9469657  68.3871746  58.2659101  39.0489602  69.7378445
  60.0476980  37.8326678  69.6687698  60.5558205  37.4674344  70.7836103
  60.7923746  38.0943394  68.6882687  57.2182751  37.2111297  71.6540909
  57.8038597  36.7452574  72.6499510  56.1386251  37.9840994  71.8527508
  55.7014608  38.4524632  71.0719633  55.4965162  38.3280134  73.0449152
  56.2511349  38.5705829  73.7931204  54.5607996  39.4852924  72.9449940
  53.8170147  39.0906453  72.2527981  54.0334463  39.5993400  73.8920879
  55.1809025  40.8315277  72.5202370  55.7752991  40.5876875  71.6397095
  54.0925026  41.7094994  71.9646168  53.8238239  41.4294434  70.9460497
  53.3363962  41.7062473  72.7497244  54.4566679  42.7309084  71.8541288
  55.9881830  41.3434124  73.7262058  56.9504547  40.8594275  73.8932180
  56.3099432  42.3661852  73.5299635  55.4819059  41.3343859  74.6914530
  54.8252201  37.0752478  73.5159969  54.8973608  36.7868423  74.7102118
  54.2461252  36.2879443  72.6260519  54.0282726  36.6421628  71.7056370
  53.7288284  34.9502158  72.9722881  52.8446722  35.0996876  73.5919857
  53.0547428  34.2826819  71.7777205  52.2398138  34.9164581  71.4279842
  53.7620068  34.1724873  70.9556866  52.3052883  33.0395555  72.0553732
  51.0822058  33.1663465  72.8325319  50.6606388  34.0910840  73.1979704
  50.3005934  32.0006108  72.9703617  49.3948650  32.1502829  73.5392666
  50.7631636  30.7616782  72.4358988  50.2510881  29.8312378  72.6320171
  51.8584394  30.6942725  71.5928030  52.2306919  29.7872019  71.1399698
  52.6405621  31.8564987  71.4192152  53.5427856  31.8040061  70.8279181
  54.7625732  34.0130305  73.6191130  54.4851589  33.4754300  74.6650648
  55.9754705  33.9656782  73.0478859  56.1494637  34.4998860  72.2085714
  57.0634937  33.1636715  73.6257410  56.7213821  32.1636224  73.8921309
  58.2279682  33.0351853  72.6643372  57.8991795  32.7768922  71.6577148
  58.7344360  33.9955282  72.5677347  59.2708349  32.0351458  73.0458736
  59.0273094  31.0794091  73.6818314  60.4755449  32.2629476  72.5794268
  61.1803293  31.5398502  72.5566006  60.7189941  33.1510806  72.1646404
  57.6045704  33.7107682  74.9776125  57.8048515  32.9220200  75.9083223
  57.7794266  35.0255513  75.1436806  57.7658367  35.6405449  74.3426228
  57.9934740  35.6617785  76.4374733  58.9356518  35.3821206  76.9088507
  57.9697323  37.2152567  76.1429024  58.7634134  37.4596786  75.4369068
  57.0248747  37.5159502  75.6902122  58.0842543  38.1347418  77.3524237
  59.1836596  38.0021095  78.2053614  60.0500154  37.3807597  78.0328608
  59.1996622  38.7388325  79.3855333  60.0615358  38.7027717  80.0353622
  58.2867241  39.7349620  79.6934366  58.4516907  40.4154587  80.5156994
  57.1677685  39.9165916  78.7464094  56.3991690  40.6431532  78.9649534
  57.0548630  39.0964389  77.6200676  56.1780882  39.1231537  76.9900274
  56.8812609  35.4267383  77.5093746  57.2281361  35.2573538  78.7004423
  55.5968285  35.3843880  77.1749735  55.3738022  35.6069446  76.2153721
  54.5662546  34.8039961  77.9929829  54.6964598  35.1060677  79.0321636
  53.2163286  35.4750633  77.6443291  52.9571390  35.3136468  76.5979719
  52.4929285  35.0201440  78.3209705  53.2671261  37.2879934  77.9921579
  53.5107565  37.2041035  79.3030787  54.3915701  33.3276415  77.9635000
  53.4225798  32.8005266  78.3807659  55.3126526  32.5255346  77.3997736
  56.1039114  33.0383921  77.0378494  55.5633402  31.0942626  77.5711775
  56.4944077  30.9137344  77.0339394  55.7707310  30.6828880  78.9996004
  54.8334312  30.8861923  79.5175123  56.1173725  29.6495080  79.0076303
  56.8457747  31.3947558  79.5376158  56.8441343  31.5093327  80.4907608
  54.4563293  30.3165984  76.8993330  54.0192795  29.3173504  77.4305153
  54.1378736  30.6789470  75.6610107  54.5739031  31.5448570  75.3778553
  53.4075403  29.9757409  74.6392584  53.1405306  30.6891513  73.8596106
  54.2910576  28.7939644  74.0931416  54.4693136  28.1425667  74.9487162
  53.7537479  28.3093405  73.2779503  55.6445312  29.0876627  73.5275555
  55.6096363  30.0164843  72.9581928  56.2352610  29.3549037  74.4037485
  56.2839270  27.8963304  72.7268410  56.1544561  26.9210601  73.1960773
  55.7669353  27.7748513  71.7749691  57.7506018  28.0018926  72.4217939
  58.2861233  27.3632669  72.9923058  58.4727859  28.6872888  71.5554285
  58.0471563  29.6558094  70.8108616  57.0535421  29.8175359  70.7291508
  58.6487055  30.0276589  70.0897741  59.7677946  28.5139132  71.4605236
  60.2493238  27.7967358  71.9838619  60.2464676  29.0439582  70.7463646
  52.0041180  29.4608498  75.1132298  51.5600348  28.3063436  74.8225451
  51.2965679  30.3916216  75.7435513  51.9166279  31.1286163  76.0476303
  49.8220253  30.4282904  75.9264088  49.4004917  30.3287435  74.9261618
  49.2756319  29.3712187  76.8842030  49.8894644  28.4705210  76.8766546
  49.3674278  29.7527647  77.9011059  47.7804947  28.9204407  76.6011524
  47.1402121  29.7994065  76.5266132  47.8353643  28.4407377  75.6239223
  47.2246695  27.9867029  77.6908207  46.4677095  27.3944569  77.1766663
  48.0168629  27.4217558  78.1821108  46.4442444  28.7492251  78.6313057
  46.9100857  29.0894628  79.4603586  45.1685333  29.0086126  78.6147690
  44.3521214  28.6589575  77.6633406  44.6178532  28.1753063  76.8174267
  43.3699608  28.8309646  77.8242111  44.6524382  29.4358516  79.6845102
  45.2450085  29.9652553  80.3079605  43.6430788  29.4258451  79.7190428
  49.3282509  31.7630672  76.4201450  50.0382853  32.3821044  77.2831678
  48.2549000  32.2924638  75.9430456  47.8084755  31.8424606  75.1567221
  47.6105928  33.5014987  76.4581299  48.2441998  34.0998864  77.1127844
  47.3410988  34.5142770  75.3236818  46.8208361  33.9665699  74.5379066
  46.7106247  35.2621269  75.8046436  48.5461378  35.2424288  74.6780968
  49.6045446  35.6036758  75.4943991  49.7064495  35.2360320  76.5047741
  50.7255507  36.3084698  75.0085497  51.5888882  36.4530611  75.6411171
  50.7225609  36.7094183  73.6642027  51.4914274  37.2745109  73.1583214
  49.6927071  36.3520789  72.8384161  49.8263884  36.6385436  71.8057203
  48.5320711  35.6243229  73.3062124  47.7114677  35.3755045  72.6496315
  46.2785721  33.1917262  77.1694613  45.5127287  32.4003386  76.6373920
  46.0895157  33.9575887  78.2633924  46.7475128  34.6896458  78.4897232
  44.8103857  33.9670396  79.0454531  44.7040415  32.9442644  79.4070196
  44.7996998  34.9439406  80.2106571  43.8373852  34.8901510  80.7197285
  45.9232855  34.7163606  81.2405205  46.8601799  34.3950033  80.7854843
  46.2070942  35.6072211  81.8008041  45.5419350  33.9330053  81.8955231
  44.9687243  36.2810946  79.7507143  45.8570766  36.5655160  79.9777222
  43.6327028  34.3244004  78.0996084  43.7384129  35.1571512  77.1477938
  42.3985291  33.8019490  78.4049082  42.3945427  33.2184625  79.2293024
  41.1330700  34.2492247  77.8752184  41.0057211  34.0466881  76.8118000
  40.0441837  33.4998655  78.6769009  40.3465176  33.5521030  79.7228289
  39.0795612  33.9933515  78.5582399  40.0061607  31.9978523  78.2941675
  40.9920931  31.5719056  78.4801912  39.3226027  31.4760613  78.9639330
  39.5806026  31.7629933  76.5579367  37.7739763  31.9221401  76.4797306
  37.4925470  32.9730463  76.5467215  37.4951744  31.6092515  75.4735184
  37.3456597  31.3698721  77.3161793  40.8929253  35.7130671  77.9536963
  40.5362797  36.2725759  76.9152498  41.2088537  36.3933015  79.0323305
  41.5040779  35.8719683  79.8454428  41.1733484  37.8314495  79.2729282
  40.1716805  38.2044458  79.0592909  41.5850925  38.1137490  80.7478809
  40.6752729  38.1318521  81.3478851  42.3329687  37.3892784  81.0702610
  42.2302246  39.4856644  81.0798931  42.5801468  39.3871307  82.1074867
  43.0951881  39.6706223  80.4429245  41.2373257  40.6117487  81.0468006
  40.8417654  40.7608080  80.0421047  40.4074430  40.3100061  81.6858196
  41.8588257  41.8736553  81.6264343  42.0790052  41.7392778  82.6854801
  42.7716398  42.1094894  81.0794067  40.9641933  43.0401134  81.6309547
  40.2694845  43.0836630  82.3627949  41.4869881  43.9031029  81.5858459
  40.5324364  43.1224966  80.7216167  41.9835424  38.5902739  78.2277203
  41.4893913  39.5684338  77.6397467  43.1942940  38.1037211  77.9931498
  43.6516380  37.5814891  78.7267733  44.0654898  38.5957289  76.8080997
  44.0216017  39.6837425  76.8571091  45.5261469  38.2322335  77.0917463
  45.5596399  37.1920252  77.4157143  46.4594316  38.3957648  75.8866787
  47.4892569  38.3636665  76.2423897  46.2434959  37.6233125  75.1485777
  46.2897205  39.3656373  75.4190826  46.0078144  39.0688157  78.0924702
  46.2102890  38.5645747  78.8838911  43.6066055  38.2713318  75.4078007
  43.3407927  39.2197156  74.6678400  43.3855915  36.9816875  75.0163841
  43.5018063  36.2686372  75.7221842  42.8628922  36.6193652  73.7054491
  43.6204720  36.8558335  72.9582834  42.6757860  35.0739717  73.5359097
  41.9770050  34.7414184  74.3035221  42.1449041  34.6702552  72.1500540
  41.1268091  35.0401568  72.0285654  42.7577209  35.0129843  71.3163328
  42.1966124  33.5827112  72.2017670  43.9544392  34.2905426  73.7323952
  43.7993336  33.2171679  73.6232471  44.7680807  34.6082091  73.0803442
  44.3745852  34.3852615  74.7337008  41.6446877  37.4227023  73.3170652
  41.4855385  37.8790092  72.2054386  40.6318140  37.5219250  74.2464161
  40.7882643  37.1575975  75.1753378  39.3741131  38.2480431  73.9593649
  38.9055634  37.7867913  73.0899954  38.4144378  38.0188036  75.2226925
  38.9822316  38.1170487  76.1479282  37.6256895  38.7629151  75.1119041
  37.7158737  36.6948748  75.3551579  38.4431481  35.8878756  75.2661467
  36.9191790  36.5164185  76.6902494  37.5959134  36.4239883  77.5397110
  36.3060164  37.3853135  76.9293356  36.2771988  35.6373596  76.7469835
  36.6994596  36.5381932  74.1702080  37.2239399  36.7048573  73.2293320
  36.4462328  35.4785085  74.1378355  35.8553672  37.1781969  74.4271278
  39.5498133  39.7763920  73.6091423  38.8991570  40.3010845  72.6907110
  40.4246044  40.4324913  74.3915129  40.9019566  39.8609710  75.0738668
  40.9095430  41.7853165  74.1147757  40.0211477  42.4135733  74.0503359
  41.7461729  42.4318695  75.2304268  42.6835871  41.9146252  75.4349279
  42.1132660  43.4035540  74.9000168  40.9821701  42.6860380  76.5187311
  40.1006269  43.2733154  76.2616634  40.5748510  41.7828846  76.9731617
  41.9389868  43.6213970  77.7582932  43.1345892  42.4181271  78.4402275
  43.7235975  41.9583797  77.6466322  43.7981462  42.9495811  79.1223860
  42.5566959  41.6910887  79.0107965  41.5474033  41.8513632  72.7417612
  41.3454342  42.8257704  72.0147610  42.3662758  40.8759212  72.3825884
  42.4810600  40.1343346  73.0585957  43.0689859  40.7862902  71.1022043
  43.5655022  41.7423582  70.9363365  44.0866470  39.6738935  71.0894871
  43.6422157  38.7451100  71.4471769  44.3926477  39.4629550  70.0648022
  45.2868795  40.0197983  72.0064449  44.9374437  40.2886248  73.0033064
  46.1201429  38.7292933  72.1768475  46.6920519  38.4470081  71.2929153
  46.8799496  38.8762259  72.9444504  45.5318546  37.8915811  72.5513506
  46.1580420  41.1564445  71.4338255  45.5536222  41.9801426  71.0539675
  46.8433857  41.5408278  72.1892452  46.7407942  40.7029963  70.6320238
  42.2058535  40.5553484  69.8357964  42.4503613  41.2035036  68.8319445
  41.1591578  39.7546053  69.9539137  41.2114859  39.1788602  70.7820940
  40.2423763  39.4733858  68.8801146  40.9464550  39.0576673  68.1593180
  39.1913247  38.4247160  69.3519354  38.6828685  38.0468106  68.4649324
  39.6729660  37.7061605  70.0151062  38.3800220  38.9023876  69.9012280
  39.5961785  40.7287359  68.2693434  39.7469115  40.9553623  67.0706177
  39.1746092  41.6257906  69.1664219  39.0893912  41.2860346  70.1137400
  38.5666728  42.9208183  68.9183283  37.6478934  42.7008724  68.3746624
  38.1572819  43.4422684  70.2937984  37.5199437  42.7163887  70.7987738
  39.0056634  43.6187077  70.9550285  37.4055791  44.7915602  70.0570631
  36.2521291  44.8189592  69.5240545  37.8782582  45.8268547  70.4965401
  39.4648790  43.8826609  68.0387497  38.9995003  44.3380070  67.0214415
  40.7140255  44.2058992  68.4014559  41.0841608  43.9195776  69.2965126
  41.6134453  44.9432945  67.4912262  41.2046909  45.8807278  67.1140718
  42.9020405  45.3004074  68.2449245  43.3195353  44.4166803  68.7274504
  43.6135721  45.6243610  67.4853992  42.7835941  46.4184761  69.2551041
  42.2320414  47.2071266  68.7433195  42.2552490  46.0294533  70.1255083
  44.1712141  46.8852854  69.7687626  44.7315359  47.7608919  69.1613531
  44.7776079  46.3002586  70.7679272  45.7655096  46.5093803  70.7883501
  44.3088770  45.5931854  71.3160515  41.9740248  44.1920567  66.1480379
  42.0732594  44.8447132  65.1300859  42.2396469  42.8703547  66.2559891
  42.1772814  42.3349810  67.1101522  42.4498796  42.0995235  65.0274134
  43.3356762  42.5400448  64.5697927  42.8837109  40.6683636  65.4309893
  42.1093178  40.3432035  66.1257505  42.9435253  40.1241827  64.4884443
  44.2941284  40.5600929  66.0964870  45.1218987  40.7426834  65.4112434
  44.5623446  41.4583826  66.6525841  44.7315788  39.1135740  67.0592403
  44.9246264  37.9299450  65.6542158  45.8513308  38.2916164  65.2086687
  45.0940323  36.9197154  66.0268307  44.1911983  38.0038691  64.8512745
  41.3937855  42.0496464  64.0070343  41.6569948  41.9965363  62.8183174
  40.1523352  42.0149565  64.5368052  40.1348829  41.9102478  65.5412102
  38.9371562  42.1596050  63.6974287  39.0514135  41.4333773  62.8926611
  37.5746369  41.8540573  64.4167709  37.5092840  42.5249195  65.2733755
  36.2354589  41.9682980  63.5491514  36.1122155  43.0304575  63.3376694
  36.3664317  41.3681698  62.6487112  35.3445745  41.6336632  64.0806103
  37.5373197  40.3484535  64.8735380  37.1501756  39.7005057  64.0871668
  38.5025024  39.9331641  65.1634550  36.7366767  40.1652765  66.1588478
  36.8512821  39.0911984  66.3048553  37.1657753  40.7865143  66.9450045
  35.7089901  40.5139971  66.0570812  38.8905382  43.5295057  63.1107569
  38.5355210  43.6590290  61.9196701  39.2646265  44.6027708  63.8582420
  39.4292116  44.5295238  64.8520470  39.2619205  46.0316849  63.3859015
  38.3242559  46.3318968  62.9181862  39.5124841  47.1240139  64.4548559
  40.4836464  46.8520308  64.8683405  39.3350911  48.0912256  63.9846134
  38.6357689  46.9391060  65.5288172  39.0293002  47.1980572  66.3652849
  40.2369738  46.1943531  62.2435379  39.8769474  46.7764330  61.2005186
  41.4131737  45.6022024  62.3748827  41.5645885  45.1242685  63.2516718
  42.4155569  45.4828501  61.2471771  42.6268864  46.4358568  60.7621861
  43.7926435  44.9355888  61.7798090  43.6532927  43.8921022  62.0623350
  44.4655180  44.9268389  60.9223318  44.4793129  45.7815027  62.8758860
  43.8291407  45.7202387  63.7485933  45.3949213  45.2936077  63.2101488
  44.8605919  47.2582722  62.5683975  45.8627844  47.4574661  62.9479170
  44.8823690  47.3309612  61.4810371  43.8986206  48.2327604  63.1462479
  43.0806017  48.5059738  62.6206017  43.9064407  48.6361790  64.3552256
  44.8230028  48.3356142  65.2240705  45.6847000  47.8875256  64.9469614
  44.7506380  48.6023092  66.1955309  42.8411388  49.3032026  64.7328520
  42.1808720  49.6110439  64.0332937  42.7529049  49.6135330  65.6899357
  41.9170713  44.6868515  60.0436592  42.0532227  45.2537394  58.9554214
  41.4429188  43.4661293  60.1117849  41.4171934  43.0602074  61.0362720
  40.9176636  42.7357912  58.9684820  41.6933203  42.8213263  58.2074594
  40.4087830  41.3150024  59.0893364  40.0115824  41.0394478  58.1124020
  41.6231441  40.3928900  59.2378473  41.4320278  39.3199015  59.2215204
  42.3598433  40.6091404  58.4641504  42.0927238  40.5191183  60.2133799
  39.2634916  40.9928370  60.0480556  39.6877599  41.0157537  61.0518360
  38.5723877  41.8347120  60.0065565  38.4628010  39.7404623  59.6818972
  39.1631413  38.9097857  59.5947266  37.8393602  39.4356894  60.5224562
  37.9622793  39.9223256  58.7308407  39.8539591  43.6565351  58.2411861
  40.0667000  43.9966440  57.0979929  38.8498759  44.0989733  58.9570904
  38.8593221  43.7995481  59.9216413  37.7762175  44.8995543  58.5499001
  37.1086955  44.2704201  57.9610825  36.9490600  45.2851868  59.7701359
  36.6699648  44.4075727  60.3532362  37.5901413  45.8007956  60.4851675
  35.6580687  46.0552025  59.5153189  35.7705474  47.0039368  58.9905787
  35.0567579  45.4020643  58.8829184  34.8587465  46.2286663  60.8980846
  33.7076902  46.5968752  60.9686565  35.4801202  46.1547041  62.0537186
  38.1942701  46.1831188  57.8457689  37.6319742  46.4938450  56.7666197
  39.2080784  46.8893957  58.3284760  39.6504378  46.6060686  59.1911173
  39.6871376  48.0884218  57.6550674  38.8341451  48.7126827  57.3889828
  40.7203579  48.7669611  58.6076069  40.1844883  49.0571737  59.5113325
  41.4089775  47.9950953  58.9512968  41.5433121  49.8661089  58.0148554
  40.8558226  51.0968399  57.7384090  39.8262644  51.2207747  58.0401516
  41.5666056  52.1504164  57.1410131  41.0759449  53.1094885  57.2173977
  42.9606009  52.0174265  56.7745733  43.6272383  53.0573845  56.2452650
  44.5649338  53.1114388  56.4437866  43.6380625  50.8469296  57.2045422
  44.7055101  50.8129644  57.0439148  42.9779339  49.7504282  57.7517843
  43.5741282  48.8958645  58.0358076  40.4270363  47.6810932  56.3681316
  40.1680279  48.3918953  55.3494358  41.2078142  46.6285944  56.3507938
  41.2359142  46.0067463  57.1461630  41.7807150  46.1984253  55.1034546
  42.2740555  47.0438480  54.6238947  42.8812170  45.1129675  55.2895737
  42.4535847  44.3653965  55.9576845  43.2812881  44.3882561  54.0054989
  44.0716743  43.6597967  54.1864204  42.4471569  43.7599373  53.6931992
  43.6349344  45.1187086  53.2778502  44.2531586  45.5272818  56.0361195
  44.4872332  44.6291208  56.6076183  44.9962282  45.8607769  55.3117371
  44.0205622  46.2190437  56.8457270  40.7127523  45.7284212  54.1039324
  40.8845377  46.0262680  52.9107189  39.5952249  45.1259089  54.5612574
  39.5135236  44.9541187  55.5531883  38.4362078  44.7584963  53.6734486
  38.7886167  44.3003988  52.7493000  37.5028872  43.7444639  54.4887829
  37.2533035  44.2360687  55.4290628  36.6296697  43.4945583  53.8861752
  38.1451774  42.4884987  54.9601316  37.4392486  41.4346600  55.6027174
  38.3611226  40.4580593  55.8102512  38.1566310  39.5004010  56.2657404
  39.5683503  40.8139896  55.3120518  40.3946447  40.2415371  55.2138662
  39.3949723  42.0469856  54.6908808  40.1322508  42.5747108  54.1040897
  37.6931858  46.0082150  53.1973219  37.2021484  45.9885073  52.0619059
  37.6391315  47.0085812  54.0565348  38.0375862  46.9236469  54.9807262
  36.9661140  48.2045364  53.6642122  35.9281802  48.0412960  53.3741379
  36.9242573  49.1134357  54.9184036  37.9521608  49.3083143  55.2242470
  36.1295867  50.4246616  54.6677685  36.2379909  51.0477924  55.5554962
  36.7339230  50.9250975  53.9111662  35.0978613  50.3027630  54.3379402
  36.2825727  48.4452200  55.8972025  36.8264866  47.7369642  56.2495327
  37.7691269  48.9721823  52.5273037  37.0385385  49.6043253  51.7473650
  39.0519214  48.7851715  52.2925806  39.6019840  48.2511759  52.9501390
  39.7689605  49.2972326  51.1590719  39.1507983  50.1200819  50.8000517
  41.2232924  49.8471355  51.3755798  41.9561768  49.0648937  51.5732574
  41.6185999  50.4203939  50.5370092  41.1596870  50.8549166  52.5626707
  40.1484680  51.2480259  52.6675844  41.3504744  50.2623892  53.4574413
  42.0525646  52.0394421  52.3213053  43.0989885  51.7405081  52.2601414
  41.8277740  52.4281311  51.3280821  41.9565487  53.0864143  53.4425354
  40.9593773  53.5180807  53.5286617  42.2360134  52.5329113  54.3389893
  42.8981113  54.2097712  53.2776546  42.5953341  54.8645592  52.5707722
  43.0419159  54.7315407  54.1304016  43.7989187  53.8787985  52.9628563
  39.7565770  48.3053923  49.9499846  40.4932165  48.5416412  48.9724731
  38.9382195  47.2498512  50.0367785  38.3599901  47.2465229  50.8648729
  38.7162280  46.3064671  48.9956665  37.8497744  45.7633591  49.3730116
  38.2557869  46.9732428  47.6938009  39.1926360  47.4284744  47.3725796
  38.0590630  46.1937571  46.9577312  37.1338630  47.9819870  47.8528738
  36.5227628  48.0733919  48.9051867  36.8302250  48.7086773  46.8857431
  36.0323358  49.3038034  47.0569134  37.3842382  48.6547709  46.0429716
  39.7442698  45.1879406  48.7187433  39.6582770  44.5616674  47.6699305
  40.5854416  44.8186970  49.7397757  40.4740953  45.2442837  50.6489372
  41.4783239  43.6746931  49.6053648  41.2487364  43.1619358  48.6713028
  42.9924536  44.1114664  49.7206402  43.0946732  44.6912956  50.6379509
  43.6887217  43.2729483  49.7349644  43.3734751  45.0094414  48.5914230
  43.1002426  46.3976860  48.6378860  42.4636412  46.8706656  49.3709850
  43.6314821  47.2476482  47.6609755  43.3766556  48.2970762  47.6738024
  44.5322132  46.7607117  46.6322422  44.8968410  47.4598312  45.8942175
  44.7796249  45.3881693  46.6541576  45.4901743  44.9620914  45.9613514
  44.2573833  44.5022774  47.5844097  44.5746183  43.4708261  47.6276684
  41.2460136  42.6075983  50.7039022  40.6708097  42.9869032  51.7328548
  41.7341852  41.3113785  50.4626942  42.0132113  41.1494064  49.5056057
  41.8874979  40.1430225  51.3483000  41.5840292  40.4561758  52.3472738
  40.9422970  38.9739752  51.0425615  40.9614134  38.2729697  51.8770266
  39.4754601  39.5060325  51.1485291  39.2758536  39.7056413  52.2013474
  39.3154716  40.4214096  50.5788040  38.7487602  38.7316227  50.9029722
  41.1788225  38.1963253  49.7460938  40.9282541  38.8204074  48.8882828
  42.2031021  37.8467178  49.6167707  40.4569912  36.8670940  49.6343184
  40.8370447  36.3604522  48.7472057  40.4765368  36.2967992  50.5630255
  39.4184351  37.1103907  49.4100046  43.3656120  39.7052693  51.3868761
  44.0432501  39.6549869  50.3638363  43.8755751  39.3459296  52.5853157
  43.2242966  39.3308949  53.3571434  45.1826286  38.8592958  52.8630066
  45.9317303  39.6082520  52.6060677  45.2999544  38.7072420  54.4404650
  44.8855257  39.5505905  54.9928331  44.7361660  37.8246021  54.7424555
  46.7105246  38.6269236  54.8783827  47.6821852  37.7647829  54.3542671
  48.7821770  38.0761933  55.0804377  49.7376919  37.5751710  55.0317955
  48.5627747  39.0666056  55.9385633  49.2720127  39.4992471  56.5129423
  47.2614145  39.5133066  55.7215643  46.7300415  40.2998590  56.2367201
  45.5751228  37.5570273  52.1602201  46.4497662  37.5443697  51.3467264
  44.7944498  36.5308762  52.4534750  44.0768337  36.7360067  53.1339550
  44.9113131  35.1305127  51.9839811  43.9336157  34.6501303  52.0219898
  45.1650667  34.9516630  50.4440546  46.2219954  35.1743865  50.2977753
  44.9587536  33.9118314  50.1905155  44.3398428  35.8568859  49.5260620
  43.3001137  35.8109665  49.8500395  44.5652342  36.9226146  49.5651293
  44.4515705  35.4597878  48.0429554  44.3017721  34.3801498  48.0360556
  43.6826229  35.9745097  47.4668646  45.7551813  35.7640553  47.4436140
  46.3063002  36.4862847  47.8849173  46.2445211  35.3444743  46.2996149
  45.6780529  34.5449448  45.5344296  44.7387028  34.2306685  45.7317877
  46.0914326  34.3697429  44.6297026  47.4647427  35.7615423  46.0031462
  47.8246498  36.5221286  46.5617847  47.9615974  35.3943801  45.2041197
  45.9070253  34.2308116  52.8194141  45.8782911  32.9829383  52.6997948
  46.7893553  34.8315787  53.6506462  46.7823029  35.8368683  53.7478399
  47.7975082  34.0813351  54.4446754  47.4879265  33.0462933  54.5894003
  49.0276766  33.8933372  53.5395956  48.7074280  33.1772733  52.7827692
  49.2663383  34.8775649  53.1365633  50.2274275  33.2894444  54.1552639
  50.1523495  32.4423575  55.0402355  51.3206673  33.6493158  53.7036467
  48.1107998  34.6669126  55.8793879  49.1885662  34.9394226  56.2399197
  47.0778704  34.8579645  56.7030144  46.1674261  34.7095299  56.2917233
  47.1081257  35.2965069  58.0988741  47.7241230  36.1926317  58.1737900
  45.6963873  35.5929232  58.7320089  45.0976896  34.7092104  58.5112953
  45.7636452  35.6906271  60.2611971  44.7254515  35.8722901  60.5391359
  46.1999083  34.7995019  60.7124949  46.4689732  36.4847207  60.5062008
  45.0109863  36.8261743  58.0543995  45.6234407  37.7189589  57.9281425
  44.6342564  36.5308309  57.0751381  43.7181616  37.2849083  58.7565279
  43.0498266  37.6477599  57.9756546  43.2323503  36.3803506  59.1223955
  43.8779640  38.0731773  59.4921923  47.8434753  34.1657615  58.8833141
  47.5928307  33.0059791  58.6676836  48.7556791  34.5922732  59.7575760
  48.9838362  35.5761290  59.7659302  49.3953085  33.7950516  60.7786322
  48.8077211  32.8956866  60.9629917  50.7972002  33.4263587  60.2534103
  51.2804699  34.4007993  60.1826000  51.3755083  32.7463245  60.8788824
  50.8991241  32.7350593  58.8194799  50.6410027  31.6802597  58.9136648
  50.2316284  33.2489800  58.1277800  52.3376322  32.7766919  58.2937908
  53.0298471  32.3518324  59.0207291  52.3741198  32.0320368  57.4986410
  52.8120422  34.0683436  57.6512051  52.8250122  34.8765397  58.3824730
  53.8564873  33.9001250  57.3886395  51.9770861  34.3607950  56.4700508
  52.3489666  35.1735568  55.9997082  51.9622898  33.6008573  55.8049345
  51.0032272  34.4912696  56.7038822  49.4940233  34.6520710  61.9940472
  49.3326664  35.8837748  61.9607878  49.8930788  34.0894079  63.1425714
  49.8971081  32.6273918  63.4078264  50.7602310  32.2073650  62.8913927
  48.9581585  32.1767855  63.0862236  50.1007700  32.5344872  64.8762703
  50.6603670  31.6436338  65.1614618  49.1249132  32.4973989  65.3604412
  50.8876133  33.8140965  65.1519680  51.9230461  33.5174108  64.9847460
  50.8761787  34.2102766  66.1673546  50.3822184  34.8890686  64.2481232
  49.5787477  35.4210258  64.7575951  51.4506388  35.8861279  63.8714743
  51.3645458  37.0505953  64.3354845  52.4155617  35.5793381  62.9993010
  52.3844433  34.6889806  62.5234938  53.5097790  36.4097452  62.3392534
  54.2751074  36.5352249  63.1051779  54.0466642  35.5436420  61.1896515
  53.1923151  35.2836514  60.5646753  54.8321676  35.9925771  60.5817509
  54.6681213  34.1794991  61.6779947  55.8493710  34.1499019  62.0235586
  53.8717842  33.2352543  61.9845152  53.0525398  37.7227068  61.6957092
  53.8665152  38.6287880  61.5061569  51.7862034  37.7934980  61.2962961
  51.2236691  36.9688249  61.4498615  51.2115622  38.9651704  60.6736994
  52.0785761  39.3590331  60.1433611  50.0911331  38.6046219  59.7020102
  49.4582558  37.9985237  60.3502464  49.6919537  39.5276690  59.2816114
  50.6474400  37.7110052  58.6180449  50.7099962  36.4900851  58.7782192
  51.1492300  38.2391119  57.4858236  51.5174198  37.6594663  56.7451859
  51.2454987  39.2366147  57.3600483  50.8868647  40.0972700  61.6174412
  50.5433416  41.1834717  61.1630583  50.8808136  39.8352790  62.9250002
  51.2333965  38.9137602  63.1408596  50.4719877  40.7531738  64.0298796
  50.0354385  41.6394758  63.5694599  49.3828869  40.0483561  64.8169470
  49.8204279  39.1298699  65.2081585  49.1572475  40.6917334  65.6673908
  48.1246471  39.8063183  63.9709711  47.2298861  40.8410645  63.4985781
  47.4662590  41.8836451  63.6520958  46.1240721  40.5443239  62.6987505
  45.5329800  41.3725471  62.3367405  45.8404779  39.2182326  62.3316956
  44.9327517  39.1246367  61.7540455  46.5757799  38.1285763  62.9078484
  46.3580990  37.0991564  62.6643181  47.8130245  38.4574628  63.6035442
  48.4834909  37.7093458  64.0000343  51.6749239  41.1923122  64.8664188
  52.6021814  40.4197264  65.2117348  51.6314650  42.4330759  65.3989983
  50.9959316  43.0971670  64.9804449  52.8068256  43.0360842  66.1032963
  53.3339119  42.2965670  66.7061186  53.8142967  43.4898376  65.0465059
  53.9841461  42.6255560  64.4044161  53.2444334  44.2216969  64.4740248
  55.1919222  44.1406965  65.4520369  55.5174351  43.7624979  66.4211178
  56.3186121  43.7990427  64.4550896  57.2551775  44.2272997  64.8122311
  56.4584064  42.7181387  64.4408226  56.1163187  44.0818071  63.4220266
  55.1191807  45.6424618  65.5877256  56.0497952  45.9569216  66.0601473
  55.0684118  46.1035395  64.6013546  54.2114067  46.0012579  66.0728168
  52.3736191  44.2347097  66.9912910  51.4270353  45.0042391  66.7378235
  53.1204033  44.3996000  68.1183338  53.9471102  43.8476896  68.2973862
  52.8839397  45.5548048  69.0466499  51.8998718  45.9352875  68.7728882
  52.8428936  44.9077463  70.4911280  53.8137627  44.4436359  70.6646681
  52.7215958  45.7116127  71.2172031  51.7878246  43.7082100  70.6446266
  52.1429062  42.8616619  70.0569391  51.8361998  43.4799767  71.7093658
  50.0376272  44.0024996  70.2747297  49.6120358  45.3822279  71.3698339
  50.3933668  46.1405420  71.4206696  48.7275648  45.8846045  70.9781218
  49.4442940  45.1020908  72.4097776  53.9991140  46.6773701  69.0401459
  55.1936197  46.3965940  68.9866018  53.6340094  47.9697657  69.0345383
  52.6508999  48.1643057  69.1600466  54.4875002  49.2054939  68.8130665
  55.1845455  49.0828657  67.9840946  53.7769556  50.0132942  68.6378860
  55.3598547  49.5865917  70.0506067  55.6165409  48.8256407  70.9706926
  55.8747578  50.8463812  70.0034857  55.5657673  51.3565063  69.1883755
  56.8122625  51.5514755  70.8401680  57.2182703  50.7640791  71.4752007
  57.9442692  52.1784210  69.9681473  57.4498892  52.6792336  69.1357565
  58.8358498  53.2152557  70.6810427  59.2221975  52.8448963  71.6306019
  59.5871639  53.5991716  69.9909496  58.2454872  54.1218519  70.8139467
  58.7971497  51.0308981  69.4423580  58.2235336  50.4161835  68.7486744
  59.5834732  51.5368080  68.8821220  59.5965528  50.1836157  70.3453398
  60.3439188  50.8242607  70.8134508  58.9665318  49.8005342  71.1480951
  60.1612234  49.3436861  69.9406624  56.1869431  52.6209068  71.6502285
  55.3317451  53.3648014  71.0937881  56.6218615  52.7883196  72.9267502
  57.1833801  52.0039988  73.2261562  56.3839769  53.8812256  73.9077091
  56.6624832  53.4793091  74.8818779  56.9520283  54.7662973  73.6212492
  54.9536419  54.1946268  73.9670992  54.1298866  53.3789301  74.4597435
  54.4700336  55.4121399  73.6257744  55.1764107  56.0924196  73.3842134
  53.0461645  55.8592129  73.6130524  52.6177120  55.8446407  74.6152067
  53.1136179  57.3440266  73.1946182  53.9147186  57.8217459  73.7586403
  53.3119917  57.3312283  72.1228981  51.9203377  58.2241535  73.4422731
  51.1978912  58.0092525  72.6548815  51.4887524  57.9975224  74.4172049
  52.1473408  59.7780943  73.4706879  52.9529381  59.9636269  74.1811037
  52.4529552  60.0958109  72.4738121  50.9682178  60.5254173  73.8991737
  50.0871229  60.0378799  73.8211823  50.8332014  61.7063856  74.4595480
  51.7938089  62.5354481  74.6483660  52.7359581  62.3260880  74.3506670
  51.6410685  63.5040617  74.8903561  49.6508026  62.0053530  74.8523855
  48.9390326  61.3055134  74.6984053  49.4473028  62.9375315  75.1836443
  52.0825672  55.0485992  72.7010679  50.8387232  55.0606966  72.9485178
  52.6719284  54.3658876  71.6580534  53.6801291  54.3057108  71.6546345
  51.9930458  53.4558249  70.7127714  50.9481287  53.7619543  70.7631540
  52.6312160  53.6303282  69.3158293  53.6776924  53.3438635  69.4203234
  52.0510674  53.0867577  68.5701275  52.6407242  55.1461506  68.8913822
  51.5434265  55.9557199  68.8058567  51.9704485  57.1770525  68.5914993
  51.3421249  58.0317354  68.3886957  53.3051729  57.2356129  68.5312653
  53.8080406  58.0972528  68.3737755  53.7717295  55.8977938  68.6957550
  54.7998762  55.5705643  68.7430954  52.0184946  52.0329428  71.1694860
  51.5693426  51.1349344  70.4814148  52.4914408  51.7073250  72.3509979
  52.8259945  52.4333620  72.9682827  52.6433516  50.3216314  72.8745556
  53.3232307  49.8165798  72.1884155  53.3234549  50.3873014  74.2362213
  54.3337822  50.7849026  74.1400051  52.7156782  50.8730268  74.9996233
  53.7316799  48.7878513  75.0250483  54.8510170  48.6452770  74.3097496
  51.3822842  49.4387007  72.7859735  51.4650297  48.2090235  72.6118135
  50.1527691  50.0265074  73.0100441  50.1204348  50.9915495  73.3062696
  48.9475441  49.2591381  72.8642750  49.0801525  48.2044125  73.1052494
  47.9082108  49.7419262  73.9741516  47.5994682  50.7548237  73.7156487
  47.0376825  49.0900564  73.9010382  48.4747505  49.7468710  75.3488398
  48.5218096  48.7288141  76.0732651  48.9901733  50.9405613  75.7756758
  49.1978979  51.0667181  76.7560053  48.8769150  51.7576361  75.1928711
  48.3155823  49.2709827  71.4553642  47.1435213  48.8584995  71.2516308
  49.1486263  49.5621061  70.3995562  50.0352335  49.9286985  70.7152224
  48.7130880  49.6229887  69.0235376  47.6273012  49.7052240  68.9744663
  49.3077946  50.8584023  68.4123278  49.0004110  51.6817665  69.0570641
  50.3925276  50.9491205  68.3555555  48.6925030  51.2459326  67.0568752
  48.8158178  50.4069185  66.3720798  47.6190567  51.2625170  67.2453833
  49.1266251  52.5713301  66.3761520  50.0620365  52.4210453  65.8371544
  48.3661175  52.8887320  65.6627178  49.1577673  53.7473440  67.3389435
  48.1446457  53.8654852  67.7232981  49.9138832  53.5925293  68.1086349
  49.5283890  54.8652601  66.5079641  48.8787651  54.9438000  65.7385969
  49.3446445  55.7326078  66.9917488  50.4770803  54.9096537  66.1642790
  49.0519714  48.3308458  68.2727575  50.1676559  47.9195356  68.2649708
  48.0347681  47.6172781  67.8001738  47.1389675  48.0618572  67.9415703
  48.0601025  46.3234568  67.0575428  48.9431953  45.7759333  67.3868799
  46.8446493  45.5274057  67.5146151  46.8183994  45.5788755  68.6030817
  45.9139490  45.9601116  67.1476555  46.9280386  44.0339994  67.0862436
  47.9816103  43.7594414  67.1383429  46.1117458  43.1232786  68.0219460
  46.4671564  43.1504059  69.0520144  45.0418234  43.3284140  67.9860020
  46.3010597  42.1167803  67.6488352  46.3766193  43.8361883  65.7230997
  47.0845127  44.3039513  65.0388622  46.3037443  42.7763605  65.4790497
  45.4138136  44.3445778  65.6716013  48.2015562  46.5157986  65.5314350
  47.2599888  46.8413258  64.8369598  49.4585419  46.3187456  65.0374651
  50.2361917  46.0358953  65.6165648  49.6106005  46.3982868  63.5682297
  48.9577627  47.1908379  63.2024765  51.1215782  46.8165398  63.2827282
  51.8374681  46.0942459  63.6750221  51.2555933  46.8765545  62.2026634
  51.4676952  48.2025433  63.8594198  51.7737055  48.4346151  65.2193546
  51.9146967  47.6610851  65.9597397  52.0366383  49.7524929  65.6575394
  52.2225761  49.8800230  66.7137432  51.9889021  50.8738327  64.7657537
  52.1747446  51.9057322  65.0246954  51.7506599  50.5703306  63.4478712
  51.7204475  51.3966894  62.7531672  51.5514278  49.3151236  62.9209232
  51.3698053  49.1931057  61.8633223  49.3207836  45.0691175  62.8014135
  49.4461393  44.0209532  63.3932924  49.0234423  45.1875210  61.4890957
  48.7906885  46.1276722  61.2026596  48.8983202  44.1662836  60.4849243
  49.0448666  43.2094479  60.9860086  47.4922991  44.0602016  59.9652529
  46.7597866  43.8594294  60.7470560  47.2675085  44.9948406  59.4514322
  47.3357344  42.9463434  58.9182329  47.8408670  43.2047176  57.9875422
  47.6607466  41.5242815  59.3673134  47.0912266  41.3827658  60.2858543
  47.4044275  40.8523893  58.5481882  48.7435055  41.5087605  59.4917488
  45.8586121  42.7889585  58.5235071  45.5172586  43.8212490  58.4463644
  45.7208967  42.4680662  57.4909544  45.4132414  42.0870209  59.2285109
  49.9463320  44.4302416  59.3506622  49.9233389  45.4673576  58.6541843
  50.8782005  43.4603643  59.1598845  50.9631062  42.7082491  59.8286295
  52.0457077  43.5594654  58.2609415  51.9745064  44.4775820  57.6777601
  53.3184958  43.5031223  59.1242504  54.1627836  43.4127474  58.4407949
  53.4193516  44.7648859  59.9079609  53.2391405  45.6203747  59.2569876
  52.8187466  44.6910334  60.8145571  54.4291306  44.8318434  60.3128815
  53.4591341  42.2972393  60.0583410  52.6878977  42.4205303  60.8186674
  53.2892799  41.3704777  59.5102882  54.9239397  42.1406555  60.5618715
  55.1142025  41.1332941  60.9321737  55.6445694  42.2424364  59.7504330
  55.0540924  42.8679276  61.3632631  52.1124172  42.4055386  57.2215128
  51.2425852  41.5354109  57.2836590  53.0598879  42.4665642  56.2850094
  53.6268187  43.3017015  56.2498426  53.4590435  41.3698816  55.4546785
  54.2343569  41.7540979  54.7918320  54.1718245  40.3044224  56.2728500
  54.8118782  40.8413601  56.9729376  53.3896303  39.8254204  56.8617725
  55.0944138  39.3696094  55.4522371  55.0269318  38.1262803  55.7024860
  55.8443451  39.8455429  54.5425749  52.3094845  40.8460236  54.5362949
  52.1097231  39.6605086  54.3789530  51.5018559  41.7698336  53.9713955
  51.5451384  42.7675962  54.1220617  50.4007673  41.3275909  53.1154776
  50.2986050  40.2612114  53.3167124  49.0728807  41.9316816  53.5775423
  48.3465433  41.7783117  52.7794123  48.6297703  41.3102388  54.3557215
  49.0896320  43.3549690  54.0136814  49.8256874  44.3029356  53.2846260
  50.2335262  44.0964890  52.3061371  50.0043583  45.5799198  53.7979603
  50.7054424  46.2642431  53.3434439  49.3849516  45.9289169  55.0160265
  49.6040344  46.8800974  55.4782581  48.6071157  45.0287390  55.7135725
  48.0707359  45.3541517  56.5926600  48.4426880  43.7284470  55.1992083
  47.7468491  43.0681038  55.6953526  50.6027269  41.4193058  51.6040468
  49.9035645  42.0937538  50.8486652  51.7732239  40.8975458  51.2179661
  52.5060511  40.6767988  51.8770123  52.1647549  40.9937906  49.8317194
  51.9165325  41.9480085  49.3670082  53.2350683  40.8866692  49.6555042
  51.4439440  39.9672842  48.9156961  51.4145517  40.1345348  47.6795340
  50.7527542  39.0257144  49.4903421  50.8779240  38.8785815  50.4816961
  49.9037886  38.0643272  48.7449884  50.2115393  38.0083132  47.7008390
  49.8912096  36.6696596  49.4162178  49.4390488  36.6705418  50.4080057
  49.2602110  36.0539341  48.7752628  51.1876345  35.8250260  49.4164610
  51.6770363  36.1410213  50.3377247  50.7983160  34.3223310  49.5985556
  50.2242994  34.3145156  50.5251312  50.2014446  34.0096617  48.7417698
  51.6937351  33.7242603  49.7677755  51.9674301  35.8761048  48.0748510
  52.3023510  36.8660283  47.7650499  52.9021454  35.3450966  48.2549667
  51.4221239  35.3434086  47.2957706  48.4407902  38.5500360  48.5585117
  47.6306009  37.8914404  47.9468012  48.0974388  39.6907592  49.1967106
  48.7932062  40.1361275  49.7777939  46.7804050  40.2543259  49.1695499
  46.1847019  39.4480348  49.5974922  46.7123604  41.5416718  50.0385761
  47.3685837  42.3075199  49.6251202  45.7004213  41.9458628  50.0119305
  47.0900393  41.2853909  51.0284090  46.2227917  40.4915428  47.7618551
  46.9150734  40.8677578  46.7797756  44.9281454  40.3664875  47.7331161
  44.4724655  40.0614691  48.5813046  44.1717243  40.3858948  46.4544868
  44.8142624  40.8170652  45.6868029  43.8997698  38.8852715  46.0704517
  44.8229790  38.3120656  46.1554527  43.2117224  38.4657955  46.8044281
  43.3543253  38.6955738  44.6527433  42.2970915  38.9542627  44.5941687
  43.9194489  39.2684269  43.9175034  43.4560204  37.2385192  44.2315292
  44.5154667  36.9870377  44.2808390  42.8208065  36.6816950  44.9204063
  42.7273703  36.8791676  42.8731441  43.0136251  35.8985853  42.4928522
  41.6681719  36.8564105  43.1294298  42.9076099  37.8840113  41.8390274
  42.4223375  37.6641679  40.9809589  42.6968241  38.8461304  42.0626211
  43.8571644  37.9379439  41.4991188  42.9188442  41.1680317  46.4853144
  42.3513126  41.1792994  47.5872612  42.5917435  41.8502903  45.4161072
  43.0432081  41.5894127  44.5511103  41.6496086  42.9851007  45.3764868
  41.7040730  43.4816504  46.3452911  42.2031975  43.9122772  44.3060303
  43.2791662  44.0809822  44.3500519  42.0175219  43.3493423  43.3912992
  41.4204693  45.2667904  44.3652201  40.3574324  45.0968027  44.1944551
  41.4352179  45.7134867  45.3593731  41.8766594  46.2888813  43.3265924
  42.8650284  46.6184807  43.6468840  42.0072079  45.8159065  42.3532677
  41.0290670  47.5330687  43.1926870  40.1124477  47.2363377  42.6829243
  40.7492685  47.9160404  44.1740894  41.6217613  48.5536337  42.2299671
  42.4292660  48.9535284  42.6861715  42.0225525  48.1438780  41.3983631
  40.9806681  49.2478466  41.8733644  40.2691507  42.3613167  45.0279427
  40.0660467  42.1150827  43.8505793  39.4178629  42.0981979  46.0401154
  39.6295738  42.2631741  47.0138025  38.1715322  41.4639187  45.9069300
  38.4506226  40.7128382  45.1679468  37.7160096  40.8968306  47.2823286
  36.9423008  40.2116060  46.9360018  38.4717035  40.3104973  47.8050518
  37.1611166  41.8280125  48.2717657  35.8202744  42.2263432  48.1179953
  35.2363491  41.7404747  47.3502874  35.1466680  43.1890345  48.9271498
  34.0797901  43.3548117  48.9009094  36.0076523  43.8906670  49.8891783
  35.4240417  44.8456812  50.6417561  36.0834932  45.3825188  51.0873318
  37.3307395  43.4670496  50.1197338  37.9070997  43.9312124  50.9063482
  37.9190111  42.4390745  49.3272781  38.9724016  42.2750378  49.5000792
  37.0062137  42.1815777  45.3375101  35.9927201  41.5566826  44.9595070
  37.0767665  43.5027313  45.1677132  37.8075862  44.0245390  45.6300116
  36.1464834  44.1577339  44.2849970  35.8821654  43.5383511  43.4279060
  34.8252130  44.4911575  45.0398350  34.0695763  44.8204184  44.3266058
  34.4014645  43.5906887  45.4844666  35.1523709  45.6430244  46.0590696
  35.9789300  45.3330135  46.6984367  35.3435922  46.5776825  45.5318642
  33.9196563  45.8018255  46.9655609  33.0549693  46.0464573  46.3486528
  33.7550282  44.7835255  47.3177814  34.1125727  46.8303347  47.9413605
  34.9035335  47.4486923  47.8312683  33.3268857  47.0888710  49.0054321
  32.1920681  46.5600634  49.3330717  31.7634487  45.8245659  48.7895298
  31.8774939  46.7095375  50.2811193  33.8175678  47.9515505  49.8157167
  34.7517729  48.2669926  49.5969391  33.3248663  48.2404757  50.6487036
  36.8081021  45.3870392  43.7029266  37.7712703  45.9858131  44.2504692
  36.2795115  45.7197237  42.5107622  35.4570770  45.1788902  42.2844839
  36.3982081  46.9888067  41.8435097  37.4101806  47.0855379  41.4502525
  35.4092264  47.0421886  40.6551313  35.3847861  46.0928965  40.1200151
  34.3962431  46.9418669  41.0448837  35.4510355  48.3558321  39.8455501
  36.4297342  49.1282272  39.7918367  34.4533634  48.5209942  39.1389132
  36.1143661  48.1893778  42.7833939  35.0034356  48.2419443  43.3956575
  36.8677878  49.2916393  42.8428125  37.6564431  49.3821812  42.2183704
  36.4553046  50.5288267  43.5550594  36.1896777  50.1964617  44.5585918
  37.6583529  51.5279293  43.6742544  37.7521586  51.8522167  42.6378489
  37.2235489  52.3501301  44.2426157  38.9179254  51.0328388  44.2563057
  39.0093899  49.9830914  44.8578405  39.9732566  51.7936945  44.0470266
  40.7920694  51.6324234  44.6159172  40.0324440  52.5361347  43.3648396
  35.2232575  51.1813307  42.9815435  34.4778776  51.7611599  43.7421894
  35.0169325  51.2209320  41.6618729  35.5671597  50.6417418  41.0439062
  33.9949489  52.0304585  40.9014320  33.9980412  53.0608368  41.2569904
  34.3802762  52.0737362  39.4398975  35.3260589  52.5284624  39.1452456
  34.4384885  51.0336113  39.1191888  33.3342886  52.7698135  38.4708667
  32.3964930  52.2142649  38.4694314  33.0659819  53.7728643  38.8025331
  34.0945482  53.0065680  37.1831131  34.9901414  53.6120176  37.3225474
  34.3278623  51.9997263  36.8367958  33.1967854  53.7219191  36.1924648
  33.1483769  54.7206211  36.3351440  32.5339890  53.2463551  35.2156901
  32.4303865  51.9784117  34.8625588  32.8684711  51.2492990  35.4071522
  31.8163633  51.6934919  34.1129589  31.7546916  54.1418982  34.6368980
  31.9246554  55.1122141  34.8598480  31.2312031  53.8667488  33.8181496
  32.6559353  51.4461565  40.9905481  31.7438865  52.1160507  41.4308977
  32.4974656  50.2086401  40.5857229  33.3117509  49.6255255  40.4552603
  31.2463832  49.5065355  40.5839682  30.5118847  50.2717304  40.3327847
  31.1379933  48.3852577  39.5741129  30.2074933  47.8877068  39.8474526
  31.1057901  48.6822557  38.1171131  31.3819003  47.8197384  37.5105405
  30.0854397  49.0024185  37.9062057  31.8430758  49.4461346  37.8701305
  32.1426153  47.4299288  39.8222399  32.9784131  47.8090811  39.5406675
  30.8318543  48.9485788  42.0043945  29.6493340  48.9953232  42.3143244
  31.8657470  48.4303379  42.7481318  32.8070426  48.5411835  42.3991632
  31.6694093  47.6111698  43.9750671  32.6159692  47.6485538  44.5142603
  30.5929732  48.2007360  44.9451494  29.6258879  48.3217525  44.4570923
  30.4245591  47.4525976  45.7197618  30.9272075  49.4642973  45.7030821
  30.2089643  49.6772242  46.4948463  31.8423676  49.1806364  46.2228203
  31.2287235  50.6909132  44.9205399  32.2249413  50.5281210  44.5092630
  30.4016805  50.7653236  44.2144489  31.2095189  51.8544865  45.7990694
  31.4324808  51.6525745  46.7632389  30.7076097  53.0465794  45.4508543
  30.5451322  53.2696390  44.1143465  31.0904908  52.7062035  43.4777737
  30.1112342  54.0986490  43.7341118  30.4639935  53.9256620  46.4140272
  30.7078719  53.7399626  47.3763895  29.8535919  54.7015667  46.2007666
  31.4568615  46.1461496  43.6470461  31.2168980  45.3546667  44.5291567
  31.5441489  45.6855440  42.3683453  31.7533875  46.2948370  41.5904713
  31.3286686  44.2467880  41.9201231  30.3925014  43.8494921  42.3123646
  31.1698508  44.1693401  40.3720045  32.0253992  44.6624613  39.9105167
  31.1154938  43.1168318  40.0938511  29.9081993  44.8174000  39.8567629
  29.1064167  44.2034912  40.2670908  29.7896051  45.8508968  40.1822138
  29.8521352  44.9968386  38.3069873  30.6640315  44.4510412  37.4594164
  28.8694167  45.6944942  37.7148056  28.9177895  45.8029079  36.7118073
  28.3306742  46.3410854  38.2731748  32.4158621  43.2584906  42.3210573
  33.5893154  43.5280085  42.0934963  32.0360804  42.1381521  42.8637886
  31.0369396  42.0228958  42.9561949  32.9131460  41.1217880  43.3533621
  33.7453437  41.5880537  43.8807583  32.1626425  40.2495098  44.3463469
  31.4972234  40.7524586  45.0480318  31.4649296  39.7016573  43.7129879
  32.9880428  39.4132042  45.2668762  33.7551713  39.8861647  46.2932539
  34.4054937  38.7852931  46.7679739  35.2653074  38.8668823  47.4164104
  34.0906858  37.6786804  46.1061335  34.6103239  36.8126106  46.1042213
  33.2017565  38.0464721  45.1490736  32.7069354  37.3872638  44.4512224
  33.5932660  40.3440523  42.2236729  32.9027867  40.1044464  41.2037992
  34.8751783  39.9482870  42.4480820  35.2575946  40.2068758  43.3464098
  35.6415868  39.1322875  41.4963913  35.8773828  39.7042704  40.5989885
  36.9851971  38.7465811  42.1722555  37.5960851  38.0794048  41.5641546
  37.9105306  39.9949527  42.2809792  38.0084729  40.4212093  41.2825775
  37.5053883  40.8182859  42.8692722  38.9344168  39.8442841  42.6231146
  36.8321562  38.0492330  43.5247850  36.4137888  38.8071895  44.1870308
  36.0867786  37.2836161  43.3095121  38.1451750  37.4360728  44.0770483
  38.8656306  38.1762147  44.4252396  37.7636838  36.8225956  44.8932695
  38.5845685  36.7168736  43.3858299  34.9970484  37.8586006  40.9223795
  34.1961145  37.3332238  41.6808558  35.2373219  37.3044848  39.7241473
  36.1871076  37.8393006  38.8006639  37.2108388  37.5034142  38.9657497
  36.1309886  38.9271307  38.8405371  35.7433271  37.3573875  37.4454093
  36.5669560  37.2198725  36.7448163  34.9483204  38.0162621  37.0961976
  35.0869536  36.0168290  37.7888131  35.8073163  35.2018571  37.7180529
  34.2781377  35.7326889  37.1156263  34.6497703  36.1644053  39.1413236
  33.5855556  36.3709378  39.0277934  34.9517345  34.9121046  40.0445271
  36.0692501  34.7350359  40.5155993  33.9377093  34.1151094  40.3078461
  33.0000520  34.3838406  40.0457668  34.0972638  32.8544044  41.0358953
  34.6343851  32.9670525  41.9776535  32.7414012  32.2687984  41.4011478
  32.2521138  33.0075955  42.0358706  32.1311069  32.0820904  40.5175257
  32.8463745  31.0255384  42.1157074  33.2850146  30.9432268  43.4416485
  33.5378242  31.8184638  44.0216875  33.4391570  29.6846509  44.0977287
  33.8457775  29.5921063  45.0939703  33.0475140  28.5186648  43.5152054
  33.1409812  27.3511720  44.2515469  33.3031559  26.6548657  43.6108732
  32.6350832  28.5538292  42.1711826  32.4068475  27.6225066  41.6742420
  32.5436497  29.8129940  41.5136909  32.2194695  29.7234750  40.4873896
  35.0141048  31.9157887  40.2918053  34.7255445  31.6926455  39.1190648
  35.9994602  31.2826347  40.9166193  36.0774755  31.4229894  41.9137764
  36.8469262  30.2174187  40.3578854  36.1910844  29.6786880  39.6739697
  38.1868148  30.7356215  39.8529124  38.6772251  31.3233805  40.6288862
  38.7624073  29.8881173  39.4807100  38.0382228  31.7670345  38.6676550
  37.3068905  32.5041556  38.9991760  39.0243077  32.2047544  38.5122871
  37.5499320  31.0079575  37.4027848  38.3426619  30.2944469  37.1778846
  36.6329098  30.4373574  37.5497007  37.4889302  31.9385147  36.2774324
  38.3018970  32.0384049  35.6864953  36.4693952  32.7521181  35.8954573
  35.3700304  32.7683043  36.5246844  35.2141094  32.1904731  37.3382545
  34.6211576  33.2601404  36.0584259  36.5079188  33.4854174  34.7974992
  37.3237944  33.5087371  34.2026043  35.7440090  34.1080308  34.5763731
  37.1503973  29.1362596  41.4241076  36.9331002  29.4040036  42.6386356
  37.5265050  27.9288435  41.0535574  37.7291322  27.7422237  40.0818491
  37.6611614  26.8502617  42.0081282  38.1114340  27.1104217  42.9660797
  36.2760735  26.1634898  42.3219681  36.3982940  25.5090523  43.1850243
  35.6024265  26.9880629  42.5551558  35.6044269  25.6040955  41.0817671
  35.2836061  26.3905168  40.3986025  36.2937546  24.9250889  40.5798864
  34.3074322  24.8263288  41.4727497  33.8974476  23.9011264  40.7556343
  33.5321593  25.2960205  42.3610020  38.6396217  25.8247447  41.4333296
  38.8628578  25.9115148  40.2308846  39.2699933  24.9046278  42.2180700
  38.9371896  24.7927547  43.1650782  40.3304815  23.9390445  41.7960215
  40.5598831  23.3550715  42.6873398  39.9607825  22.9448032  40.7095528
  39.8167968  23.3681583  39.7154999  40.7230902  22.2148538  40.4372168
  38.6555314  22.2070479  41.0281324  38.1930876  22.1027589  42.1775675
  38.0558300  21.6425610  40.0722694  41.6425562  24.6273780  41.3781309
  42.3739433  24.0888834  40.5900049  41.9094276  25.8253431  41.9697428
  41.2398052  26.0581183  42.6891327  43.1466484  26.5921187  41.9587660
  43.3523607  26.7239761  40.8965015  42.9441071  28.0228019  42.5808430
  42.7191639  27.9546309  43.6452007  43.7965059  28.6347127  42.2857571
  41.7131710  28.7452674  41.9877958  41.7297125  28.8046741  40.8995390
  40.8371353  28.1211042  42.1640968  41.4008570  30.1236010  42.5754166
  40.5167150  30.5495596  42.1011209  41.1669827  30.1150990  43.6399984
  42.5261974  31.0823154  42.2234917  43.4364271  30.4836893  42.2585154
  42.3925066  31.4796090  41.2173176  42.6160145  32.2043061  43.1813145
  43.3180189  32.8849387  42.9282665  41.7809057  32.7641249  43.2777309
  42.9026508  31.9392037  44.1128016  44.3056822  25.8094168  42.5396776
  44.0486717  24.7944498  43.1380653  45.5077744  26.3844085  42.4715567
  45.5911112  27.2038794  41.8870735  46.6656828  26.0708666  43.2570028
  46.9240570  25.0122571  43.2306767  47.8214407  26.9354653  42.7893686
  47.9516554  26.7979145  41.7159510  47.6192522  27.9803419  43.0248547
  49.0489197  26.5768456  43.5681868  49.3753338  27.2457886  44.5238781
  49.6649790  25.4296398  43.2073164  50.5084848  25.1973939  43.7119579
  49.4404316  24.8994803  42.3774910  46.3137674  26.4436913  44.7190237
  45.6916618  27.4796724  44.9755907  46.7682552  25.6702256  45.7609415
  47.2515106  24.8004723  45.5874729  46.4992666  26.0706902  47.1423483
  45.4600143  26.3907290  47.0672560  46.4734793  24.9446416  48.1911993
  47.5068903  24.7012115  48.4379959  45.9618759  25.3453827  49.0662813
  45.8146524  23.5689759  47.7883244  46.4038944  23.1377316  46.9790554
  45.9207344  22.5003290  48.9450979  46.9384527  22.1100998  48.9367294
  45.5555534  22.9401326  49.8731709  45.2624607  21.6764188  48.6695147
  44.4206142  23.6905456  47.2583532  43.9875984  22.6905704  47.2838116
  43.9944124  24.4729161  47.8863239  44.3809605  24.1112542  46.2535954
  47.3510361  27.2734404  47.6014614  48.6259079  27.2196770  47.4999619
  46.8235636  28.2265568  48.2543135  45.8548689  27.9938936  48.4204340
  47.4631691  29.5147443  48.7519026  48.3313417  29.7424030  48.1333876
  46.4443779  30.7002354  48.6867714  45.6045389  30.5355644  49.3617964
  47.1344328  31.9305277  49.2471695  47.0665884  31.9040918  50.3347349
  48.1866980  31.9778442  48.9667892  46.5298414  32.8243947  49.0936327
  46.0539293  31.0160875  47.3701143  45.3069258  31.6133809  47.4527550
  47.9946661  29.3360591  50.1921320  47.2866201  28.8751721  51.1003447
  49.2330694  29.7499728  50.4364538  49.8301697  29.8974419  49.6353102
  49.8698235  30.0646544  51.7023849  50.9379339  30.2488542  51.5870190
  49.5215034  31.0406566  52.0403099  49.8424435  29.0183973  52.8018475
  49.8345232  27.7863574  52.5964975  49.9539661  29.5279384  54.0102482
  49.7879124  30.5172396  54.1277742  50.4525232  28.7768030  55.1457453
  51.1712170  28.0380964  54.7909307  51.1850977  29.7109413  56.2139082
  50.4532909  30.2996945  56.7670202  51.9147825  28.9036989  57.1284246
  51.1901569  28.5012078  57.8362560  52.4105263  28.0740142  56.6244841
  52.6756668  29.3757439  57.7499723  51.9794893  30.5349350  55.5233765
  51.4698839  31.3000488  55.2467823  49.3839645  27.9084158  55.8135939
  48.4488058  28.3929133  56.4861822  49.5463800  26.6386533  55.6404352
  50.3315687  26.3435054  55.0778866  48.4331656  25.6668258  55.6842947
  47.6247311  25.9303403  55.0023127  48.9281368  24.3136477  55.1438093
  49.4313765  24.3724990  54.1787243  49.6443892  23.8720632  55.8366966
  48.0898714  23.6429596  54.9551582  47.8029871  25.6221867  57.0593405
  46.6242266  25.5383921  57.2624063  48.6683273  25.7838988  58.1153965
  49.6613312  25.7745957  57.9311180  48.2073975  25.9550333  59.5394278
  47.8035498  25.0120401  59.9079037  49.3466520  26.4071560  60.3724575
  49.9236202  27.1771288  59.8602581  48.9486504  26.7704415  61.3199377
  50.2138853  25.1077819  60.6859207  49.5540857  24.4855857  61.2906027
  50.3756428  24.5701075  59.7516632  51.5824509  25.4208207  61.2941170
  52.2143364  24.5339417  61.3417387  52.1184921  26.0230064  60.5605364
  51.5503693  26.0831499  62.6229048  50.8568811  25.7436347  63.2739878
  52.5175428  26.7928553  63.2107687  53.6171770  27.0407343  62.5439024
  53.8207722  26.6279340  61.6448784  54.3613577  27.4969578  63.0519915
  52.5523138  27.2022533  64.4567490  51.7570162  26.9233036  65.0133324
  53.3212185  27.7213240  64.8560762  47.1057653  26.9989800  59.7047186
  46.2125111  26.8358564  60.5260372  47.0536470  28.1425714  58.9798689
  47.6815033  28.1785107  58.1895494  46.2778044  29.3736744  59.2985010
  45.3905678  29.1849923  59.9029112  47.2437143  30.3206086  59.9672031
  48.0593777  30.5622697  59.2857456  46.6539288  31.2305236  60.0781584
  47.9005337  29.9485636  61.2205124  47.2555113  29.8551965  62.4746895
  46.1941051  30.0149512  62.5942659  47.9644346  29.5262051  63.6130524
  47.3525620  29.5128417  64.5029020  49.2594624  29.0777016  63.5692072
  49.8201704  28.5698223  64.6904707  49.5026684  29.0041542  65.4855490
  49.9609280  29.1495895  62.3285484  51.0121250  28.9093065  62.2682095
  49.2564917  29.5811677  61.1457920  49.7786045  29.6280885  60.2015495
  45.5613327  29.9561501  58.0437040  44.5138693  30.5867290  58.2621288
  45.9549475  29.6167016  56.8305588  46.7788696  29.0833831  56.5921926
  45.1011610  29.9087596  55.6794930  44.9325800  30.9821033  55.5922079
  45.9213591  29.5392418  54.4362926  45.3140497  29.8751211  53.5957813
  46.8855381  30.0475645  54.4448185  46.0338306  28.4573030  54.5060015
  43.7883711  29.0397787  55.6899261  43.8528395  27.9131103  56.1568069
  42.6779270  29.5900035  55.1808357  42.8087664  30.5592966  54.9289370
  41.3167906  29.0281510  55.1939917  40.9532356  28.8563204  56.2071085
  40.2713871  29.9697733  54.6074772  39.3237042  29.7626996  55.1045895
  40.4717970  31.0188365  54.8252106  40.1162386  29.8524547  53.2018185
  39.4056368  30.4067326  52.8710318  41.1834717  27.6284623  54.5706987
  42.0353699  27.2779369  53.7251854  40.1191187  26.9316268  54.8890305
  39.4448018  27.2786450  55.5561018  39.6921659  25.6379557  54.3130207
  40.5740213  25.0037384  54.4036102  38.4657216  25.1466155  55.1082039
  37.8658891  26.0198808  55.3645420  37.5990820  24.1624856  54.2899323
  38.2389855  23.4180975  53.8161087  36.9328213  23.6608648  54.9917698
  37.0666742  24.6632957  53.4813356  38.9868188  24.5208430  56.4685583
  39.5109987  23.5794878  56.3036776  39.6486568  25.2925754  56.8616247
  37.9062605  24.4242954  57.5439262  38.3468986  23.9450145  58.4181309
  37.4717855  25.3772545  57.8459311  37.1108818  23.7844944  57.1616602
  39.3405008  25.7709622  52.7789783  39.6829462  24.9677944  51.9637251
  38.5426903  26.7844725  52.2757292  38.0517602  27.3649025  52.9407024
  38.3398843  27.0720863  50.8297205  37.7082467  26.3145185  50.3657961
  37.5363278  28.3204532  50.6054115  37.9814434  29.0183353  51.3145971
  37.7142811  28.7200189  49.6070242  36.0389805  28.2784486  50.7040834
  35.3394246  27.3600602  50.3840780  35.4285932  29.3400550  51.1693478
  34.4262052  29.2542338  51.2585545  36.0194945  30.0296545  51.6113758
  39.6668053  27.1677136  50.0471687  39.8881269  26.4824820  49.0364075
  40.6818914  27.9081631  50.5332136  40.5496025  28.4340668  51.3852882
  42.0741129  28.1019187  50.0018549  41.9218206  28.6318922  49.0616226
  42.8694391  29.0354681  50.8979416  43.8873053  29.2541122  50.5750751
  42.3831177  30.0066447  50.8062267  42.8255177  28.7754321  51.9555616
  42.7345276  26.8284678  49.8487329  43.5193539  26.6766644  48.9054394
  42.5429869  25.7633781  50.7072210  41.9738531  25.9666896  51.5164518
  43.1349325  24.4440317  50.6798077  44.0045452  24.4805908  50.0236511
  43.5969496  24.0905786  52.0872498  42.9091883  24.4440389  52.8554630
  43.7145901  23.0083680  52.1427822  44.9170971  24.7529006  52.4355078
  46.1510515  24.2692733  52.0094967  46.9925737  25.2764130  52.0940590
  48.0438757  25.2711749  51.8468046  46.3573360  26.3978505  52.4672222
  46.8011761  27.3049641  52.4831343  44.9978590  26.0670376  52.6788139
  44.2163324  26.7922115  52.8512621  42.2802544  23.3399320  49.9987411
  42.7364063  22.1653128  49.7999144  41.0962534  23.7900591  49.5943022
  40.8172989  24.7281933  49.8436832  40.3007650  23.1146836  48.5496140
  40.5045795  22.0452690  48.4956551  38.7740350  23.2228136  48.8294077
  38.5257363  24.1845512  49.2783022  38.2153106  23.2469320  47.8938055
  38.1612825  22.0747685  49.7054005  38.6440253  21.1946297  49.2806482
  38.5264874  22.2350979  51.1905861  38.0020308  23.1463504  51.4780998
  38.2012153  21.3665438  51.7632198  39.5932841  22.4239516  51.3105059
  36.6577744  22.0912218  49.6451139  36.2491298  23.0750465  49.8757648
  36.4059496  21.7826986  48.6304712  36.3474226  21.3321948  50.3632069
  40.6984091  23.6575413  47.1682644  40.3577566  23.1100035  46.0955048
  41.4810705  24.7578478  47.1016884  41.6461849  25.1862645  48.0012989
  41.6238642  25.5609775  45.8401537  42.4729681  26.2350559  45.9530258
  41.8382645  24.9385095  44.9714375  40.3957367  26.3147712  45.3704739
  40.3387070  26.8972468  44.2741919  39.3468618  26.5568042  46.1992693
  39.4769120  26.1447430  47.1121693  38.2654762  27.4941730  45.9971094
  37.8897333  27.3727417  44.9811506  37.0430756  27.2170830  46.9317818
  37.3620844  27.2537494  47.9734135  35.9905744  28.3162975  46.7103767
  35.6735396  28.2717514  45.6684494  35.1195598  28.1362844  47.3404741
  36.4051247  29.2755866  47.0202398  36.4128995  25.7701135  46.6841030
  36.1671615  25.7299995  45.6229210  37.1190071  24.9527049  46.8302584
  35.3290629  25.3196669  47.6108456  34.4510007  25.9595037  47.5230169
  35.0039911  24.2929101  47.4429035  35.6890774  25.4606032  48.6299753
  38.7746882  28.9177561  46.0989428  39.4689608  29.2178702  47.1058321
  38.3235145  29.8375249  45.2406359  37.5561523  29.5925069  44.6313572
  38.5876441  31.3005447  45.4605961  39.6742296  31.3744020  45.4161119
  37.9814219  32.0366311  44.2185354  38.3267879  31.5278363  43.3185625
  36.8920612  32.0045829  44.1993427  38.3182573  33.4900022  44.0957260
  37.8008008  33.9123583  43.2343578  37.9044223  34.0334892  44.9451160
  39.8339152  33.6407876  43.9934444  40.6559563  33.4325862  44.9535322
  40.2249765  33.9229536  42.8127527  38.1619430  31.8025279  46.8399715
  37.0345116  31.6966462  47.2723675  39.1229343  32.4939013  47.4966764
  39.9497557  32.7319217  46.9677067  39.0415454  33.1473851  48.8132381
  38.5809278  32.5678945  49.6133184  40.5385733  33.3572316  49.2610931
  41.1189079  34.0064645  48.6054945  40.3782272  33.8354969  50.2273464
  41.3278341  32.0824218  49.5673037  41.9585466  32.2079945  50.4473829
  40.5030870  31.3940597  49.7518253  42.2241163  31.6257811  48.4555054
  43.2073641  32.3073578  48.2616997  41.8453026  30.6649113  47.6033115
  42.5149679  30.2725887  46.9569874  40.9724045  30.1833224  47.7652311
  38.2884669  34.4756103  48.7995529  38.4449625  35.2114344  47.8266525
  37.6729274  34.9015641  49.8724508  37.5119925  34.1448402  50.5217361
  36.8573451  36.1551857  50.0879097  37.3405337  36.8720841  49.4240665
  35.3920555  35.8741355  49.5469046  35.4476571  35.1042128  48.7773418
  34.8148656  35.4550481  50.3711128  34.6701908  37.0663190  49.3495369
  33.8174438  36.8248057  48.9806271  36.8875098  36.5849543  51.5070152
  37.6480317  36.1449432  52.3980522  36.1316061  37.6169705  51.8365049
  35.4718995  38.0408692  51.1999512  36.1369872  38.2666659  53.1424475
  37.1447802  38.5292554  53.4641600  35.2399588  39.5194149  53.2400751
  34.2216110  39.2367339  52.9733181  35.1422215  39.8912787  54.2600107
  35.7408166  40.6104231  52.2698736  36.7028522  41.0464334  52.5390959
  35.7745314  40.1868439  51.2661076  34.6994352  41.7793322  52.3759651
  34.1767406  41.7522335  53.3320808  35.2187467  42.7188778  52.1871042
  33.5465121  41.6294003  51.4308167  33.5454679  40.7808590  50.8830214
  32.5864887  42.4927378  51.1370993  32.5760818  43.6387682  51.6681290
  33.4281659  43.9382601  52.1201897  31.8406725  44.2918873  51.4385462
  31.5400243  42.1826553  50.4460239  31.4355397  41.3706112  49.8546076
  30.7933974  42.8609324  50.3951883  35.6773829  37.3513579  54.3364573
  36.0469151  37.6530695  55.4869461  34.9432659  36.2677836  54.0313101
  34.5582891  36.2183499  53.0988646  34.7315311  34.9957585  54.8805761
  34.4037294  35.3674173  55.8514118  33.6286426  34.1519380  54.2511654
  33.3135319  33.2955837  54.8473740  32.7979422  34.7924590  53.9549065
  34.3008566  33.5243654  53.0420303  34.8522902  34.2458224  52.4391031
  35.0043964  32.7425671  53.3282471  33.3326912  32.8733468  52.0123577
  32.8400517  32.0143247  52.4678659  32.5672483  33.6007071  51.7419004
  34.0408063  32.3656297  50.8592224  35.0425839  32.4632955  50.9429264
  33.5665846  31.5709305  49.9463606  32.2972441  31.2069964  49.8923492
  31.7739677  31.4118958  50.7315731  32.0518327  30.4526353  49.2672062
  34.2933202  31.1999679  48.9549255  35.2714348  31.4028668  48.8058615
  33.8246202  30.5056286  48.3907366  36.0415840  34.2315626  55.2404881
  36.1355209  33.6246109  56.3032722  37.0277524  34.1986656  54.3714380
  36.9650221  34.7807884  53.5484552  38.2576823  33.3926678  54.3830776
  38.0168653  32.4893689  54.9435711  38.6546588  33.0460167  52.9357624
  38.8184214  33.9501905  52.3494625  39.6177411  32.5389028  52.9941130
  37.6076436  32.1046448  52.2387218  37.5066113  30.9298229  52.6902866
  36.7861581  32.6461816  51.5130377  39.4341397  34.0163469  55.1932812
  40.1381683  33.2635117  55.9123659  39.6024299  35.3823209  55.2004671
  38.8548732  35.8999562  54.7607946  40.3926039  36.1324239  56.1818075
  41.3831186  35.6813478  56.2410736  40.4877186  37.5766635  55.7210350
  39.5569181  37.7945304  55.1973534  40.5793905  38.1977081  56.6121054
  41.6759682  37.9270959  54.8075390  42.3399401  37.0693469  54.2278099
  41.9449139  39.1365886  54.7348690  39.7483969  35.8732414  57.5714207
  40.4551983  35.6083536  58.5223722  38.3879924  36.0857654  57.7759695
  37.8356719  36.3242459  56.9646931  37.7136278  35.8976364  59.0667152
  38.2294273  36.5962505  59.7254944  36.1659288  36.1169219  59.0252447
  35.6767821  35.6484175  58.1712341  35.8659959  35.7249498  59.9971008
  35.8694053  37.6028991  58.8958168  36.7963839  38.1745863  58.9403296
  35.4195142  37.6879382  57.9066372  34.6373105  38.2740760  60.0769711
  35.6723547  38.3025241  61.6547012  35.0572085  38.1335926  62.5385332
  36.5125489  37.6101899  61.7081022  36.0627842  39.3109417  61.7916632
  37.9571509  34.4975567  59.6170378  38.3976603  34.4070673  60.7160044
  37.6930809  33.3889079  58.8781357  37.5030231  33.4567595  57.8884983
  37.9839611  32.0494580  59.2811155  37.4228358  31.7319202  60.1599836
  37.4339271  31.1217332  58.1899023  36.4093304  31.4466548  58.0089903
  37.9675555  31.2867141  57.2538900  37.4754786  29.6232843  58.6111307
  38.3803129  29.3531489  59.1555595  36.5867925  29.2889214  59.1464186
  37.4571609  28.8451886  57.3291969  36.4790559  28.7316179  56.5261364
  38.5759783  28.3659983  57.0410490  39.4730902  31.8592978  59.6375799
  39.7547817  31.5944314  60.8248377  40.4264641  32.1641517  58.6949110
  40.1191092  32.4438620  57.7743721  41.8892574  32.2550774  58.9705563
  42.2381926  31.2302589  59.0974236  42.5841379  32.9387736  57.7701092
  42.2145557  33.9601469  57.6789951  43.6557961  32.9370499  57.9692173
  42.3019123  32.1075583  56.5957928  41.6644716  32.5827575  56.0577774
  42.3324060  33.0304384  60.2702904  43.2839680  32.6756358  60.9366751
  41.7011786  34.1930413  60.6104994  40.9420586  34.5818138  60.0694847
  41.9580507  34.8662710  61.8668938  43.0108118  35.1119733  62.0062447
  41.2558842  36.2534142  61.8038654  41.7535400  36.9134402  61.0933733
  40.3372860  36.1622310  61.2242460  40.8281136  36.9322991  63.1054163
  40.3043509  36.2024403  63.7227297  42.1019506  37.3476195  63.9077806
  42.7630901  38.0702329  63.4294224  41.6811514  37.7610183  64.8243666
  42.6695967  36.4593291  64.1849327  39.9448919  38.1094313  62.8533316
  39.1006184  37.7071619  62.2934389  39.6445513  38.5338402  63.8113403
  40.4560900  38.8123369  62.1955347  41.6212988  33.9754963  63.0753803
  42.4097157  33.8554955  64.0551043  40.4493809  33.3403754  63.0177164
  39.8893046  33.5375595  62.2006893  39.9848676  32.2874570  63.9394331
  39.5631480  32.7970624  64.8057747  39.1866255  31.7371583  63.4413576
  41.0835266  31.3016367  64.3806410  41.2565756  31.1306071  65.5668354
  41.8986797  30.6466532  63.5281944  41.6240358  30.8878469  62.5866556
  42.8863573  29.6269369  63.8429213  42.5179148  28.8242197  64.4816685
  43.4666157  29.1127515  62.5506353  43.7899256  29.9848628  61.9823074
  44.2022610  28.3546710  62.8194094  42.4137211  28.4696603  61.6516352
  41.5202284  27.4867344  62.1483421  41.6529942  27.1305299  63.1592274
  40.6114626  26.9209170  61.2624216  40.0375557  26.0436940  61.5222502
  40.5657816  27.3007107  59.8888636  39.8129535  26.6750407  58.9812994
  39.4087148  27.2392774  58.3181047  41.3978100  28.3670998  59.4105005
  41.4325762  28.5953045  58.3554506  42.3603439  28.8528943  60.2775908
  43.1812096  29.4668341  59.9375105  44.1078091  30.1987100  64.6717405
  44.6916008  29.4026637  65.4281855  44.4113970  31.4907026  64.5399666
  43.7271261  31.9402790  63.9485645  45.3818321  32.2843385  65.3441811
  46.3495398  31.7831635  65.3224707  45.5680466  33.6327291  64.6988773
  44.6530008  34.2230582  64.6508551  46.6817856  34.3522191  65.4675913
  47.5273561  33.6653709  65.5044174  46.8410158  35.1985621  64.7994184
  46.3200045  34.7974873  66.3943863  46.1348534  33.5410118  63.3292580
  46.3706398  34.5606661  63.0246019  47.0794868  33.0009818  63.2649326
  45.3547192  33.1140542  62.6990223  44.9547768  32.5207090  66.7886734
  45.6998396  32.2570229  67.6902962  43.6819792  32.8652430  66.9881535
  43.0940008  32.7093601  66.1818790  42.9695940  32.9839540  68.2545233
  43.5655069  33.5452104  68.9742279  41.6743612  33.9130878  68.0889082
  40.9363127  33.3623433  67.5057554  41.2807989  34.0608001  69.0945864
  42.0021677  35.2696419  67.4561310  42.6046753  35.2951097  66.5481520
  40.6026030  35.9293365  67.1874332  40.1083517  35.2852750  66.4601088
  40.0032139  35.9128070  68.0976820  40.7953215  36.8991733  66.7287636
  42.7189112  36.1990070  68.4069157  42.2866201  36.0077691  69.3890810
  43.7934399  36.0445142  68.5050058  42.5786781  37.2388887  68.1118059
  42.6999235  31.6686273  69.0326309  43.0184269  31.5733361  70.2442455
  42.5483131  30.5787706  68.3139658  42.1335125  30.6780672  67.3984480
  42.7901506  29.2513204  68.8284683  42.3591661  29.0643597  69.8120308
  42.1703386  28.2318997  67.8137493  42.6792336  28.3952498  66.8637800
  42.4006701  27.2463489  68.2183886  40.6571007  28.3980727  67.5300932
  40.1392889  28.1660604  68.4607601  40.4647875  29.4416833  67.2810888
  40.0576115  27.3550320  66.1391401  39.4879198  25.9555006  67.1083498
  39.1408706  25.1678944  66.4395142  40.2407265  25.4709053  67.7300787
  38.6545944  26.1685419  67.7778959  44.2538929  28.9969087  69.2564631
  44.6477938  28.6609268  70.4369020  45.2193308  29.1747570  68.3234978
  44.9724722  29.4915009  67.3967648  46.6310883  29.0262151  68.6046314
  46.7832851  27.9676962  68.8155317  47.4370527  29.3605804  67.3679972
  47.2256231  28.6045551  66.6118050  47.0808411  30.3434825  67.0595932
  48.9447212  29.5450592  67.5853014  49.7808599  28.4258485  67.8353977
  49.3355608  27.4432206  67.7848721  51.1359835  28.7401938  68.2304621
  51.8894005  28.0231905  68.5214376  51.6210794  30.0690818  68.1796885
  52.8324270  30.4029775  68.6203909  53.2449579  31.0275698  68.0193043
  50.7492161  31.1905766  68.0050039  51.0622549  32.2038221  68.2093143
  49.3753576  30.9169602  67.7481747  48.7047577  31.7565560  67.6396418
  47.1474743  29.7249222  69.8961115  47.8150225  29.0699482  70.6678295
  46.8166447  30.9379125  70.1734591  46.4888811  31.5305328  69.4241428
  47.0104122  31.5862322  71.4901924  48.0661201  31.6200566  71.7593431
  46.5934372  33.0708075  71.3740635  45.5065489  33.0832720  71.2927103
  46.8592739  33.4509635  72.3604250  47.1849251  33.9152384  70.2543640
  48.4961271  33.6917377  69.8413610  49.0968990  32.8972173  70.2587461
  49.0045834  34.5103407  68.8428545  50.0258636  34.2885733  68.5704422
  48.3121967  35.5191207  68.2670546  48.7847853  36.2492490  67.6267624
  47.0119667  35.7718205  68.7324810  46.4365053  36.5806365  68.3069706
  46.4133835  34.9432611  69.6094990  45.3968811  35.1494145  69.9105549
  46.2621117  31.0128307  72.6713610  46.8301725  30.9825778  73.7928867
  45.0396729  30.5646086  72.5502062  44.6934414  30.5673981  71.6014099
  44.2879152  29.8353124  73.5637140  44.3354750  30.4289389  74.4766521
  42.8493500  29.7441053  73.0786848  42.4862289  30.7690716  73.0032778
  42.7741957  29.2509103  72.1095610  42.0325708  28.9087558  74.0326357
  41.8335819  27.7189589  73.9446688  41.6483688  29.4676447  75.1762676
  41.2273216  28.8766432  75.8787918  41.7799807  30.4340863  75.4384995
  44.8780918  28.4388590  73.9237022  44.8846531  28.1693411  75.1073647
  45.3511953  27.6900601  72.9540539  45.1715660  27.9152203  71.9859934
  46.4591932  26.7347908  73.1107616  47.2939205  27.2427058  73.5938406
  45.9972906  25.5136776  73.8988638  46.8975973  24.9180746  74.0498972
  45.6452084  25.8359599  74.8788023  44.8505688  24.7256708  73.2935619
  43.9448357  25.2596068  73.5810614  44.9571371  24.7201347  72.2087955
  44.7109079  23.2941628  73.7422752  43.7431049  22.9383707  73.3889008
  45.6083536  22.8781819  73.2843924  44.7158957  23.1843328  75.2647400
  44.7384357  24.0420389  75.7975960  44.4473076  22.0440960  75.9014273
  44.5577145  20.9424925  75.2032137  44.6253538  20.8772755  74.1975927
  44.5651245  20.0759268  75.7219696  44.2515945  22.0261836  77.1710873
  43.9538479  22.8733706  77.6333857  44.0707302  21.1229420  77.5852680
  47.0081377  26.2889719  71.7670679  46.2963438  26.1509085  70.7609797
  48.3753014  26.0366464  71.7247152  48.9456749  26.1770487  72.5463390
  49.1541719  26.0309529  70.4686832  48.7908411  26.8673277  69.8715448
  50.6847715  26.1459661  70.6845570  51.0750484  26.2860107  69.6765041
  51.0060310  27.4398661  71.4130163  50.4098701  28.2468390  70.9870005
  50.8768225  27.2787809  72.4832773  52.0582342  27.6519871  71.2233591
  51.1420488  25.0085020  71.3886833  51.3775206  25.2304935  72.2924948
  48.9735842  24.8004270  69.5492172  48.9997053  24.8423839  68.3525610
  48.4303522  23.7035465  70.1611423  48.4087801  23.7545943  71.1696243
  48.1555319  22.3529243  69.5841265  48.9189529  22.0818257  68.8548851
  48.3338213  21.2589216  70.6682253  48.1769991  20.2180624  70.3851748
  49.3765402  21.3607216  70.9690094  47.5826550  21.5373397  71.8020344
  48.2031918  21.4439583  72.5285387  46.7641640  22.2901082  68.8977814
  45.9665537  21.4546919  69.2779446  46.6137028  23.1083226  67.8819466
  47.3823309  23.7525988  67.7627134  45.7439995  22.7559185  66.7643070
  44.7292662  22.8407550  67.1531677  45.8799696  23.8194513  65.5549812
  46.9380808  24.0513372  65.4336262  45.4496098  23.2570457  64.7263718
  45.1122570  25.1144838  65.6538630  45.2265930  25.7434511  64.7710085
  43.5522938  25.0513530  65.8595276  43.0449820  25.9001279  65.4009247
  43.1629038  24.1019082  65.4920530  43.4614086  25.0726914  66.9455194
  45.8137512  25.9578896  66.7132473  45.6394863  25.5248046  67.6982164
  46.8721581  26.0165906  66.4594316  45.4708004  26.9731498  66.9125795
  45.9726286  21.2671328  66.1928368  47.1542120  20.7981706  66.2145758
  44.9900866  20.6491351  65.5033112  43.6595774  21.1584806  65.0456190
  43.7678480  21.8294716  64.1934729  43.1591415  21.6282821  65.8923435
  42.9554844  19.8987031  64.5849705  43.0651522  19.7681546  63.5083914
  41.9071627  19.9531031  64.8785114  43.4483194  18.7117875  65.3482342
  43.3077240  17.7222788  64.9132490  43.1028557  18.6217713  66.3781166
  44.9289942  19.1502953  65.3632927  45.4539156  18.6954057  66.2033129
  45.7855654  18.7876964  64.0737295  45.7617664  17.6238692  63.5959625
  46.4335299  19.7659707  63.4331083  46.3475609  20.7255197  63.7363863
  47.3840952  19.5760930  62.4129057  47.2681952  18.5720587  62.0047569
  46.9673300  20.5556035  61.2355185  47.7497435  20.5318284  60.4769945
  46.1021090  20.0407791  60.8178425  46.6506624  21.9502139  61.7029810
  47.4712515  22.8890443  62.2165728  48.5377979  22.8002763  62.3614740
  46.7520475  24.1073251  62.3551607  47.1947432  24.9309754  62.7369070
  45.4274559  23.9152217  62.1001434  44.3398428  24.7755170  61.9980431
  44.3787622  25.7935023  62.3566532  43.0359602  24.2617440  61.7003632
  42.1847105  24.9257588  61.6711521  42.8695297  22.8740954  61.4996958
  41.8670702  22.5107884  61.3279772  43.9977503  22.0589876  61.4823008
  43.8354445  21.0566688  61.1143160  45.3106880  22.5522733  61.6828966
  48.9326143  19.7077334  62.8447866  49.8062658  19.3649471  62.0617580
  49.1437435  20.2856660  64.0783453  48.4255409  20.4550624  64.7679758
  50.4650307  20.1973057  64.7174501  51.2339926  20.6892300  64.1217899
  50.3732061  21.0007405  66.0846901  49.7105932  20.5061936  66.7949486
  51.3843679  20.9501553  66.4885426  49.9958801  22.5039291  66.0556269
  48.9161921  22.6527190  66.0710955  50.3495884  22.9685831  66.9759989
  50.5269384  23.2915831  64.8257494  49.7800350  23.8313174  64.0516376
  51.7920685  23.3411098  64.6140575  52.1426010  23.7897992  63.7798452
  52.4135160  22.9633927  65.3149414  50.9218788  18.7481785  65.0318623
  50.1014948  17.8739119  65.2026892  52.2293663  18.4644043  65.0629759
  52.9525232  19.1511965  64.9033976  52.7492380  17.1518528  65.3001595
  53.8363457  17.1883953  65.2297258  52.5685978  16.8172598  66.3216877
  52.4225807  16.0980570  64.2921066  52.6641798  14.9203551  64.5985508
  51.9003963  16.3674855  63.1080818  51.8474150  17.3606908  62.9324770
  51.4426231  15.3473675  62.0426178  50.8022404  14.5840549  62.4846172
  50.6483984  16.0792613  60.9785128  51.2269163  16.9881630  60.8132410
  50.6197166  15.5246770  60.0405836  49.0977955  16.2650108  61.3554573
  49.0998363  16.8617582  62.2675943  48.3870935  16.9832075  60.2580214
  48.4017658  16.5329146  59.2654896  47.3250866  16.9265532  60.4968596
  48.7641335  18.0053246  60.2231550  48.3207226  14.9142981  61.5788937
  48.1408834  14.4469917  60.6107092  48.7341881  14.1964436  62.2872925
  47.3127222  15.1913798  61.8875408  52.7084351  14.6392715  61.4485312
  53.5089922  15.2760613  60.8063078  52.7852869  13.2870936  61.4885235
  52.0745277  12.8202689  62.0334959  53.9052105  12.4777472  60.8485222
  54.8633957  12.9183614  61.1239147  53.9736986  10.9986722  61.3065100
  53.0451822  10.4511714  61.1446238  54.7515011  10.5502868  60.6883860
  54.2532730  10.8535302  62.8087807  55.1705551  11.3869464  63.0580902
  53.4758997  11.2538970  63.4595490  54.5246410   9.3279088  63.0645800
  53.6521387   8.7061614  62.8638887  55.3146696   8.8982904  62.4486399
  54.8048306   8.9941657  64.5033216  53.8376284   9.0158844  65.0054646
  55.1085997   7.9541564  64.6225262  55.7130194   9.9000251  65.1872158
  55.3227329  10.8068740  65.4002905  56.0281229   9.3582457  65.9792280
  56.5814543  10.0459647  64.6926212  53.9476061  12.5275099  59.2856598
  52.9340219  12.2906005  58.6761665  55.1067400  12.7734923  58.6422682
  55.9736347  12.8229868  59.1581583  55.4380131  12.8776944  57.2729397
  54.9505663  12.1190786  56.6605711  54.9016619  14.1310978  56.7192125
  55.3159094  14.9158025  57.3522472  55.3598785  14.2674971  55.7396507
  53.8163996  14.2182612  56.6671276  56.9533396  12.7064061  56.9452953
  57.7745628  13.0972254  57.7850866  57.3407745  12.2083747  55.7364655
  56.5365648  11.9484127  55.1835012  58.7182474  11.8484271  55.2725983
  59.3210840  11.5824568  56.1408997  58.6617899  10.7068264  54.2896223
  58.3106565  10.9646738  53.2904625  59.7039890  10.4171181  54.1554737
  58.1579924   9.8754030  54.7825956  59.5131540  13.0732930  54.7909069
  60.7315159  13.0179751  54.6343279  58.8240147  14.1762745  54.4741297
  57.8314829  14.2308366  54.6530485  59.4198179  15.4582441  54.0474033
  60.4355717  15.5329001  54.4357157  59.6047640  15.5548894  52.4688005
  60.1987267  16.4451003  52.2618437  60.3327227  14.4233477  51.7281294
  60.7104015  14.7326589  50.7535601  61.2850189  14.2723811  52.2365141
  59.7110128  13.5381734  51.8624735  58.3473206  15.7109976  51.8468523
  58.5661745  15.3646255  50.9786701  58.6157227  16.6891837  54.4587278
  57.4161720  16.5750813  54.8022652  59.1767979  17.9132473  54.3879509
  60.1329374  17.9659021  54.0668201  58.5146141  19.2218494  54.7442961
  58.0319452  19.1391337  55.7180977  59.4945049  20.3558898  54.7219610
  59.9560785  20.4170704  53.7364101  58.9338827  21.2888312  54.7804880
  60.5733061  20.2434611  55.8213186  60.1657629  20.4315186  56.8146229
  61.1417961  19.3143904  55.7795477  61.6481304  21.3305449  55.4830933
  62.1235275  21.0817552  54.5343018  61.2215137  22.3027110  55.2361155
  62.7435970  21.4361668  56.5217829  62.2920704  21.5810871  57.5032187
  63.2869625  20.4944682  56.5997028  63.6995697  22.5536990  56.2308168
  63.9145470  22.9357433  57.1407223  64.5046520  22.3037601  55.6745195
  63.1607056  23.2816935  55.7838821  57.4358845  19.4600070  53.7282562
  56.4012861  20.0136280  54.1292810  57.5729322  19.0580058  52.4291945
  58.4181595  18.6495030  52.0566082  56.4567184  19.1401696  51.4158869
  56.0894394  20.1656532  51.3760090  57.0663404  18.9236820  50.0483084
  57.7566195  19.7570574  49.9175358  57.7011156  18.0389118  49.9998808
  56.0072851  18.9518440  48.9528227  55.1525307  18.3144617  49.1791964
  55.7616949  19.9986696  48.7740946  56.5306139  18.4581494  47.5886726
  57.2183323  19.2108059  47.2031260  57.0358515  17.5000751  47.7108669
  55.3658819  18.3718574  46.6457891  54.6155453  17.7041793  47.0692253
  54.9275208  19.3585455  46.4961672  55.7251024  17.8304529  45.3307486
  56.2289810  16.9622111  45.4419470  54.9363804  17.7269983  44.7084045
  56.3287401  18.4561050  44.8166656  55.2639389  18.2069004  51.7205143
  54.1044331  18.6858058  51.8004274  55.5686569  16.9410038  52.0038462
  56.5514040  16.7079496  52.0051765  54.5164347  15.9880829  52.4096966
  53.8301992  15.9623122  51.5632248  54.9648046  14.5640707  52.6013470
  55.7883263  14.4638169  53.3083534  54.0838289  13.9976776  52.9033041
  55.3350592  13.9240289  51.2414980  54.4212675  13.7499988  50.6733418
  56.0313702  14.5442176  50.6770372  55.9304619  12.5281465  51.5441513
  56.1861467  12.0921063  52.6421642  56.3252163  11.9003320  50.5204153
  56.9248819  11.0961652  50.6379700  56.2083912  12.3473489  49.6222973
  53.8912487  16.4608967  53.7531900  52.7806807  16.0898614  53.9891624
  54.6399069  17.1272779  54.6397114  55.5017471  17.5172460  54.2857933
  54.1626263  17.5549924  56.0242319  53.6183834  16.7815423  56.5661526
  55.4048538  18.0091178  56.9262648  55.9664011  17.1321535  57.2482872
  56.1038160  18.6470819  56.3853788  54.9414110  18.7356246  58.2490730
  54.1660357  19.4966781  58.1613445  54.5492458  18.0090761  58.9607143
  56.2022018  19.3203044  58.9467430  57.0018959  18.5864437  59.0469599
  56.5797758  20.1393628  58.3346319  55.9723711  20.0107431  60.2891397
  55.1255322  20.6929803  60.2148628  55.5928135  19.2801976  61.0035181
  57.1306562  20.7738686  60.7644701  57.3541784  21.5275335  60.1303339
  56.8959522  21.2607503  61.6176844  57.9019547  20.1982164  61.0707808
  53.2367849  18.7325275  55.7174969  52.1146345  18.7186992  56.2291622
  53.6324978  19.7553754  54.9466944  54.5867348  19.8074782  54.6198559
  52.7446604  20.8130980  54.4484901  52.4549007  21.3620234  55.3444910
  53.5153675  21.7558098  53.5112906  54.2027617  22.1937108  54.2350483
  54.1123056  21.1816621  52.8026819  52.6747608  22.8297329  52.8270197
  51.9082022  22.5643158  51.6833687  51.7283869  21.5810800  51.2743282
  51.1790371  23.6629486  51.1040306  50.5566502  23.4390140  50.2502823
  51.2480927  24.9939966  51.6051912  50.5887747  25.9614849  50.8785200
  50.4208851  26.7836237  51.3448906  52.1205902  25.2557349  52.6598835
  52.2183895  26.2777090  52.9951477  52.8397655  24.2163777  53.2718706
  53.3397722  24.3744898  54.2160082  51.4434958  20.2892804  53.8300085
  50.3114462  20.5525661  54.2990541  51.5165854  19.4619834  52.8296995
  52.4064493  19.3901145  52.3573875  50.3061104  18.6991930  52.2167444
  49.7225380  19.5614576  51.8941879  50.7048988  17.8241956  51.0191584
  51.5789318  17.2567999  51.3388920  49.8435354  17.2155607  50.7440042
  51.0189533  18.6197972  49.7836876  50.2155685  19.3056226  49.5147705
  51.7769241  19.3434322  50.0835705  51.5499640  17.7803373  48.6725426
  52.1815348  16.7182839  48.8986254  51.3633490  18.1759238  47.5424004
  49.5495272  17.8204763  53.1769562  48.3723116  17.5367939  53.0171442
  50.1352406  17.2398305  54.2156315  51.1445332  17.2776020  54.2146683
  49.3867922  16.5229177  55.2672100  48.5889196  15.9056151  54.8543692
  50.3179455  15.5302989  55.8955765  50.5161762  14.8408997  55.0748825
  51.2205887  15.9465504  56.3428736  49.5905256  14.6832120  56.9612265
  49.3050194  15.2830541  57.8253889  48.7395811  14.2208660  56.4610004
  50.4359198  13.5059261  57.4249935  51.3433504  13.9276338  57.8572464
  49.8636627  13.1053650  58.2617569  50.6132126  12.4614227  56.3938093
  49.6443415  12.3589742  55.9050465  51.3908768  12.8193986  55.7191277
  51.0075855  11.1766994  57.0734549  50.3314781  10.6733251  57.6298761
  51.2096739  10.5302048  56.3242483  51.8990040  11.3652456  57.5092459
  48.6125469  17.3959160  56.2503576  47.5022793  17.0812511  56.6664314
  49.2354059  18.4827936  56.6602659  50.1713467  18.6299264  56.3103247
  48.5818386  19.6035564  57.4206209  48.1941509  19.2174149  58.3633280
  49.6348238  20.6575751  57.7467346  50.2921438  20.6842279  56.8776417
  49.0891790  22.0827675  58.0030441  49.9421740  22.7384925  58.1777430
  48.5493088  22.5372529  57.1723270  48.4230518  22.0831633  58.8658142
  50.5501842  20.1733732  58.8755703  50.0896788  20.3805590  59.8415470
  50.8248043  19.1265440  58.7458277  51.8366289  21.0391355  58.9907980
  52.2470808  21.3080716  58.0175018  51.6080952  21.9637084  59.5209312
  52.6299715  20.6393766  59.6223783  47.4310303  20.1783609  56.6331005
  46.3688278  20.5440402  57.1921301  47.6101494  20.3379941  55.3238726
  48.5483551  20.3474140  54.9499893  46.5686655  20.6835556  54.3215322
  46.0985041  21.6442013  54.5317841  47.2715569  20.9373283  53.0009556
  47.9675961  21.7756772  53.0292511  47.6811028  20.0106382  52.5989342
  46.2967682  21.3169432  52.0030546  46.1527634  22.2657490  52.0281601
  45.4280519  19.6198249  54.2374372  44.2388916  20.0003958  54.2669201
  45.7698679  18.3118391  54.1875648  46.7106295  18.0826807  53.9002514
  44.7812080  17.1233225  54.1241074  44.1956329  17.2925913  53.2204723
  45.6406212  15.7717121  54.0215397  46.4257669  15.9362125  53.2835770
  46.2054348  15.5751729  54.9328327  44.8329735  14.4888341  53.7260866
  44.0552998  14.7802329  53.0201054  45.5652761  13.7895727  53.3225203
  44.2236519  13.7370420  54.8914003  43.1935215  13.1009769  54.5754051
  44.6973276  13.6890256  56.0134363  43.8761187  17.1488035  55.3092051
  42.6632118  17.0428848  55.2266979  44.4926262  17.3709702  56.4615107
  45.5000830  17.3334360  56.5226078  43.8544989  17.4961400  57.7487040
  43.2589912  16.5918291  57.8739643  44.8548317  17.6463532  58.8731003
  45.6769466  16.9389677  58.7643528  45.2808523  18.6495900  58.8840580
  44.2530060  17.4541807  60.3019047  44.8245144  18.0121541  61.0436201
  43.2012415  17.7382267  60.3366518  44.2432594  15.9778190  60.7048559
  44.0503216  15.2611578  59.9065638  45.2517700  15.7193029  61.0276222
  43.2770205  15.6534016  61.8759155  43.3276987  16.4053464  62.6633883
  42.3119640  15.7506192  61.3786030  43.4051800  14.1625106  62.3952913
  42.7263498  14.0637839  63.1366014  43.2712984  13.5588276  61.5967035
  44.2620516  13.9944303  62.9028559  42.8289318  18.6403966  57.7383327
  41.6146326  18.4109163  57.9551649  43.3089972  19.8832333  57.5060654
  44.3061781  20.0177288  57.4185705  42.3562813  20.9930944  57.3328304
  41.9458389  21.2719321  58.3033371  43.1119108  22.3238397  57.0331717
  43.7853289  22.5142097  57.8688526  43.5707235  22.1403265  56.0616159
  42.2001171  23.6234260  56.9283295  41.7108774  23.5655212  55.9560204
  41.4011860  23.4655476  57.6528215  42.9118299  24.9466109  57.1242094
  43.8748312  24.9277973  56.6139364  42.2072315  25.6451178  56.6728544
  43.2483673  25.2756119  58.5899305  42.3405886  25.4909420  59.1535521
  43.8422394  24.4770217  59.0345287  44.1777420  26.4758253  58.6579943
  43.9184761  27.1990228  58.0023527  44.3105030  26.9417524  59.5442152
  45.0656605  26.0926604  58.3666325  41.1641502  20.7165956  56.3667917
  40.0202751  20.9364939  56.8161917  41.4171124  20.2744508  55.1312876
  42.3909426  20.1861691  54.8783922  40.5507803  19.9991536  53.9860010
  40.2038479  21.0063243  53.7550354  41.3080072  19.5078778  52.7263021
  41.9409609  20.3633738  52.4905109  41.9474888  18.6877847  53.0528116
  40.5872488  19.0791655  51.4490461  39.7159266  19.6842432  51.1984921
  41.2494612  19.2179215  50.5944586  40.1323462  17.3236847  51.3681841
  41.7909670  16.5618300  51.1345291  42.5244427  16.9386792  51.8473387
  41.6064644  15.4881942  51.1715889  42.0779896  16.9222033  50.1466799
  39.3175340  19.0943551  54.3574762  38.2311010  19.4193542  53.9307642
  39.5967722  18.1075823  55.1689863  40.5065680  18.1768739  55.6020737
  38.6861515  16.9618344  55.4792118  37.7281094  17.1310663  54.9876690
  39.3226266  15.6956518  54.8242140  38.6213231  14.8638737  54.8906851
  39.5652413  15.8193517  53.7687826  40.5328369  15.2835035  55.4960251
  41.3280582  15.7172740  55.1781082  38.3890653  16.6839671  56.9484949
  38.0288577  15.5383372  57.3388577  38.6756349  17.6489854  57.8498507
  39.4128585  18.2668698  57.5419140  38.2766080  17.6454008  59.2336988
  38.0430341  16.6187143  59.5155859  39.4710660  17.9947829  60.1632977
  39.8761320  18.9204884  59.7545338  39.0709209  18.3262420  61.6141939
  38.4598088  19.2285287  61.6370869  38.4545398  17.5043094  61.9783401
  39.9645233  18.4126461  62.2323465  40.4273701  16.9489789  60.0717497
  40.7516384  16.9624794  59.1682720  36.9972444  18.4856534  59.4723701
  36.9412351  19.6675289  59.1824007  35.8939028  17.8764546  59.9246407
  35.5700541  16.4623559  60.2003002  36.1264896  16.1180639  61.0720491
  35.9947848  15.8048451  59.4417620  34.1220093  16.4095736  60.3327465
  33.8403130  15.6008863  61.0071182  33.7613726  16.3674057  59.3049955
  33.7336826  17.6799595  60.9907913  33.8969707  17.5578928  62.0615530
  32.6961684  18.0043316  60.9104967  34.7515440  18.6512768  60.4701328
  34.2831469  19.1196299  59.6044827  35.1260948  19.6791863  61.5049553
  36.0705638  19.4456339  62.2626209  34.3334532  20.7996821  61.6362429
  33.5300636  20.8192778  61.0244560  34.6389866  21.9935894  62.4563074
  35.6749010  22.3291588  62.4075413  33.6780381  23.1039548  62.0658541
  32.6821256  22.6610351  62.0569563  33.7944293  24.2633510  63.0325747
  34.7764134  24.6987009  63.2177210  33.1575346  25.0908041  62.7198601
  33.3257842  24.0500355  63.9932871  34.0787125  23.6320710  60.6853390
  34.1167903  22.8412652  59.9361610  33.3944941  24.4435406  60.4374123
  35.0944090  24.0193582  60.6049109  34.4334364  21.6258955  63.9562321
  35.2262902  22.0949221  64.8367167  33.3962679  20.7782316  64.2427969
  32.9443574  20.3281689  63.4596491  33.1243443  20.3342438  65.6200552
  33.1072664  21.1072111  66.3883829  31.7820215  19.5441282  65.6567287
  30.9583354  20.1726079  65.3181219  31.8827796  18.6145711  65.0964880
  31.3405681  19.0746725  67.0295525  30.3217769  18.7001741  66.9299650
  31.9251060  18.1916511  67.2877979  31.3280940  20.1295733  68.0655861
  31.9557285  19.8703945  69.1264772  30.5602360  21.0927749  67.9799795
  34.2809200  19.3937528  66.1113453  34.5644236  19.3698442  67.3240805
  34.9905944  18.6530066  65.2188540  34.7832751  18.9116263  64.2647934
  36.1952996  17.8355765  65.5471325  35.9950995  17.4485958  66.5462685
  36.3271403  16.6115975  64.5797586  36.1302781  17.0054960  63.5826683
  37.6350021  15.8950138  64.6998215  38.4834766  16.4083791  64.2474461
  37.8566384  15.6093776  65.7281160  37.5981307  14.9615037  64.1383076
  35.2282667  15.5154037  64.7290182  34.2240167  15.9169686  64.5936298
  35.5151701  14.7417331  64.0168190  35.2678251  15.0475395  65.7127094
  37.4195051  18.7687743  65.6724787  38.1540489  18.7418735  66.6646481
  37.5884748  19.6708465  64.6996260  36.9314289  19.6335554  63.9334631
  38.5022855  20.8119321  64.7892427  39.5064616  20.4371023  64.5911741
  38.1242800  21.7915559  63.5995483  37.6835775  21.2533045  62.7603960
  37.4668503  22.5774980  63.9712811  39.2429113  22.5858331  62.9945803
  40.0043440  21.8655562  62.6953793  38.6930680  23.4005761  61.8349934
  39.5111465  23.7588167  61.2100887  38.1004930  22.7924848  61.1514854
  38.0934310  24.2140675  62.2433519  39.8587537  23.4958386  63.9742231
  40.5846834  24.1243362  63.4583473  39.1306424  24.1146660  64.4986296
  40.5673122  22.9981756  64.6363211  38.5409999  21.4739108  66.1080074
  39.5301223  21.8606091  66.6358900  37.3349762  21.6671753  66.7190981
  36.5341473  21.4860034  66.1309242  37.1389818  22.5003481  67.8672981
  37.9067516  23.2737422  67.8896618  35.9079170  23.4349847  67.6478720
  34.9712896  22.9328036  67.4057007  35.7214475  24.0043926  68.5584259
  36.2726092  24.6041989  66.3607168  36.2043715  23.6152339  65.4650688
  37.1641731  21.7774415  69.2184067  36.7406321  22.3346019  70.2283573
  37.5465012  20.4346395  69.2962551  37.8464770  19.9820638  68.4446144
  37.7507710  19.7142029  70.5550194  36.8708563  19.9300444  71.1610508
  37.8185725  18.2024491  70.2440453  38.6739731  18.1303537  69.5723391
  38.1220818  17.5751090  71.0821533  36.6424632  17.5245810  69.5455122
  35.8282351  17.5655890  70.2690077  36.3764596  18.1765819  68.7134981
  36.8403912  16.1269188  68.9886189  35.9961534  15.9608150  68.3194637
  37.7523327  16.0341239  68.3988285  36.8709207  15.0827825  70.2046061
  37.7928686  15.2064764  70.7727718  36.0874104  15.3911757  70.8967829
  36.6385508  13.7730563  69.6791601  36.4060926  13.1734729  70.4579830
  35.8628726  13.8072872  69.0332079  37.5008106  13.4878254  69.2372847
  38.9811277  20.1475310  71.3277960  40.0718355  20.1883769  70.7030249
  38.8704491  20.5410910  72.5990582  37.9269195  20.4287362  72.9414415
  39.8936987  21.2894678  73.3826971  39.6637058  21.1083484  74.4326496
  40.9172630  20.9315538  73.2717514  39.9204254  22.7681613  73.2128000
  40.8687544  23.3902669  73.7066031  38.8334870  23.3672857  72.6940918
  38.0383492  22.7801371  72.4864531  38.5740685  24.7883487  72.6582527
  39.3359518  25.1808596  73.3317327  38.9189172  25.4418159  71.3261127
  38.2555103  25.0949478  70.5338526  38.7353373  26.5103006  71.4389849
  40.3244162  25.2581215  70.8057165  41.3580179  26.1354876  71.0413265
  41.1592913  26.9394469  71.7345524  42.6481438  25.8579087  70.6474113
  43.4505701  26.5341067  70.9029007  42.9260015  24.6973705  69.9650002
  43.9123869  24.4420028  69.6069098  41.9522762  23.7414360  69.7280645
  42.2025156  22.9288960  69.0620613  40.6307173  24.0750337  70.1083851
  39.8431253  23.3770275  69.8657131  37.1504164  25.0286746  73.1412220
  36.2602258  24.2848420  72.8049517  36.9216609  26.1824822  73.8559628
  37.9898405  26.9569969  74.4770336  38.6621070  27.4123144  73.7498140
  38.6653590  26.3907981  75.1182747  37.3803139  28.0531931  75.3363943
  37.8830051  29.0202332  75.3211451  37.3269010  27.6193810  76.3349199
  35.9100747  28.1259608  74.7402191  35.8269119  28.7997842  73.8874912
  35.1487851  28.5002756  75.4246330  35.5776811  26.7267823  74.2356682
  35.1934075  26.0776281  75.0224495  34.5500398  26.7779088  73.0608130
  34.8829365  26.9086099  71.9025707  33.2906103  26.7907023  73.3808088
  33.0656028  26.5612745  74.3383217  32.1580863  26.9733143  72.4467373
  32.1008396  26.0825825  71.8210936  30.9028268  27.1882224  73.1598663
  30.8502221  26.4390612  73.9498615  30.8320260  28.1863332  73.5921526
  30.0681758  27.0938611  72.4652004  32.3644853  28.1306839  71.4756060
  32.0816827  28.0280137  70.2530909  32.9896498  29.2426801  71.8930435
  33.1607437  29.2034388  72.8876686  33.2262111  30.4876804  71.1083078
  32.2553682  30.8944535  70.8252716  33.8265061  31.5102530  72.0311356
  34.6943951  31.2471557  72.6358271  34.3251181  32.3222828  71.5018988
  32.8311682  32.2552490  72.8446150  33.4029269  33.0117130  73.3821630
  32.1050787  32.8459597  72.2860813  31.9707727  31.3735223  73.8868093
  32.5015330  30.4569101  74.5299578  30.8119702  31.6690159  74.1591835
  34.0065885  30.3165841  69.8249245  33.7405634  30.9367061  68.8188648
  35.0210190  29.4229245  69.8928738  35.1063442  28.9156938  70.7620907
  35.7821083  29.0315890  68.6655664  36.2273669  29.9119997  68.2021809
  36.9826651  28.2505989  69.2234325  36.6269708  27.4564147  69.8798275
  37.4852633  27.8598070  68.3386850  38.0169606  29.1505027  69.9342775
  38.1219029  29.0094614  71.3068962  37.5118375  28.2489276  71.7714596
  38.8433576  29.9392939  72.0831060  38.7619424  29.9410486  73.1600285
  39.5524359  30.9983897  71.4728546  40.1467848  31.6505742  72.0955896
  39.4412136  31.0873818  70.0702477  40.0720119  31.8444777  69.6283150
  38.6840463  30.1925445  69.3074656  38.6369181  30.2457547  68.2298040
  34.9639082  28.2766485  67.5762224  35.0096607  28.4773493  66.3905239
  34.0867162  27.3695207  68.0321836  33.8666821  27.2943974  69.0150547
  33.1663251  26.5960360  67.2054529  33.7201238  26.2110806  66.3491678
  32.5554061  25.3708649  67.9838371  33.3953547  24.7879505  68.3617210
  31.8218637  25.6722164  68.7316370  32.0716858  24.7490525  67.2305346
  31.9839406  27.4541306  66.6562653  31.6632795  27.3036718  65.4468966
  31.5401554  28.4375787  67.4593830  31.8969917  28.4312296  68.4042263
  30.5983496  29.4325590  67.0530415  29.7468805  28.8778543  66.6588306
  30.0944138  30.1848578  68.3419228  30.9619689  30.5226541  68.9087915
  29.5368457  31.0932732  68.1138754  29.2541409  29.2451835  69.2116261
  28.4848881  28.9609027  68.4936142  29.8776197  28.4333634  69.5862246
  28.4946561  30.0060391  70.6296206  27.5200844  28.5427976  71.1659813
  28.1649566  27.8426981  71.6971159  26.8329358  28.7886882  71.9755888
  27.1311188  27.9455638  70.3412867  31.1397052  30.4467058  66.0336685
  30.4566622  30.6315994  64.9911833  32.2885156  31.0546970  66.2149715
  32.8303051  30.8558369  67.0438337  33.0714011  31.8781018  65.2596807
  32.4917555  32.7828026  65.0763035  34.3909717  32.3700166  65.9439039
  34.1333556  32.9969025  66.7975664  34.9441171  31.5247059  66.3532686
  35.3185487  33.2392979  65.1456308  36.0868144  32.6767993  64.0911198
  36.1002803  31.6375184  63.7976599  36.8929338  33.5543442  63.2936144
  37.5572872  33.2034540  62.5177860  36.9825077  34.8871946  63.6470413
  37.7732587  35.6925440  62.9047251  38.1269121  35.2304411  62.1411848
  36.3041353  35.4715014  64.6740341  36.4581871  36.5156865  64.9028301
  35.4737258  34.6273613  65.4826975  34.8591232  35.0349188  66.2717295
  33.3378553  31.3098788  63.8630295  32.8937340  31.9016004  62.8487301
  33.9502573  30.1004887  63.8972664  34.0863180  29.6936798  64.8116493
  34.2393684  29.3201494  62.6780558  34.7080278  30.0267553  61.9931030
  35.2558351  28.1777954  62.8664494  34.9087524  27.5880599  63.7148905
  35.2433681  27.5332379  61.9875336  36.7277789  28.4260845  63.1771708
  36.8028355  28.9586902  64.1252232  37.3770404  27.0413995  63.5182142
  36.7436051  26.3861012  64.1160774  37.8499246  26.5197945  62.6861048
  38.0472827  27.2074032  64.3616104  37.5444317  29.1776752  62.0738077
  37.2485161  30.2256560  62.0260906  38.6077142  29.1832685  62.3135996
  37.5365806  28.6005545  61.1491632  32.9148555  28.8774347  61.8870926
  32.9771423  28.9657640  60.6683636  31.8657446  28.5330725  62.5999689
  31.9577575  28.3816862  63.5943079  30.5340123  28.2098770  62.0920992
  30.7321930  27.4172544  61.3705921  29.5560741  27.6265907  63.1626940
  29.8908281  27.8996658  64.1634274  28.5543323  27.9689026  62.9029846
  29.5173264  26.1163783  63.0207825  28.7948012  25.5018449  62.2646189
  30.4212451  25.3465605  63.6378813  30.2887368  24.3486333  63.5561705
  30.8885241  25.7443047  64.4400930  29.9010420  29.3171549  61.2183428
  29.5048141  29.1129899  60.0457573  29.7287607  30.5009246  61.8509722
  30.1333380  30.5846334  62.7726078  29.3555784  31.7258382  61.2061167
  28.3145189  31.7161679  60.8833122  29.3645334  32.9650092  62.1116638
  28.6852837  32.7555013  62.9379988  30.3085303  33.0548716  62.6491547
  29.0097642  34.2599869  61.3617134  27.6875949  34.5482540  61.0687399
  26.9371963  33.8445544  61.3975334  27.3612905  35.6626439  60.2903795
  26.3376927  35.9550476  60.1083040  28.3711576  36.4560246  59.7624826
  28.0458975  37.5118852  58.9988375  27.1264744  37.4347687  58.7336636
  29.7053504  36.2479329  60.1672411  30.4406834  36.9562960  59.8152256
  30.0706005  35.1452994  61.0274792  31.1028385  34.9182415  61.2495995
  30.2377439  31.9822884  59.9494553  29.6978331  32.0359874  58.8249016
  31.5598059  32.0843029  60.0721121  31.9400048  32.1669006  61.0041666
  32.4494052  32.2734976  58.8892365  32.1936297  33.2527542  58.4845924
  33.8841128  32.4364233  59.2901802  34.2548156  31.5325785  59.7736502
  34.5821452  32.6676989  58.4855938  33.8676429  33.7943125  60.4772139
  33.6755824  33.0591226  61.5760803  32.4479580  31.1976337  57.7544260
  32.6258349  31.4914918  56.5754318  32.2194386  29.9313211  58.1687260
  32.1992850  29.8226142  59.1726589  32.0213938  28.7971234  57.2835398
  32.8445005  28.8344622  56.5699530  32.0537877  27.3538780  58.0267334
  31.4113021  27.3880339  58.9065933  31.7256784  26.5444565  57.3746014
  33.4851885  27.0384240  58.5435343  34.0378118  27.9293561  58.8417864
  33.3650255  26.5383315  59.5045614  34.3001842  26.0767508  57.6540327
  35.1371574  25.7427073  58.2672167  33.6416078  25.2239466  57.4893999
  34.6560621  26.7181659  56.3723135  35.1216626  27.6109314  56.2930107
  34.6117258  26.0832739  55.2287531  34.0339661  24.9504948  55.1134348
  33.9315176  24.3851209  55.9440708  34.1080832  24.5159197  54.2047262
  35.0317097  26.4637589  54.0677881  35.5801702  27.3113060  54.0986538
  34.8092222  26.0239744  53.1862020  30.7554913  28.9613366  56.4096785
  30.8079100  28.6069059  55.2416229  29.6844435  29.4082499  57.0620394
  29.6905971  29.3780231  58.0715704  28.3656216  29.5136762  56.3837910
  28.0874944  28.6271214  55.8139133  27.5879979  29.5892072  57.1438599
  28.2823634  30.6463552  55.2912951  27.2993350  30.7909298  54.6395063
  29.2910171  31.5518546  55.2233362  30.1952910  31.4373755  55.6584024
  29.2529631  32.7093410  54.2882204  28.2701612  33.1531453  54.4470739
  30.2420378  33.7498236  54.7799873  31.1653852  33.2040048  54.9739313
  30.3760171  34.4826388  53.9842892  29.7701240  34.4383430  56.0462999
  29.3413329  33.6842489  56.7062902  31.0127330  35.1106930  56.6356611
  31.2858891  35.9635687  56.0142994  30.8866668  35.4846644  57.6517105
  31.7977762  34.3592143  56.5514755  28.6609983  35.3952241  55.7951307
  27.7973533  34.7895455  55.5205679  28.3778262  35.9915853  56.6624641
  28.7703586  36.1126471  54.9818420  29.4339681  32.4304581  52.7813482
  30.4381847  31.8050051  52.3069811  28.5078740  33.0089188  52.0295191
  27.7789164  33.4294081  52.5880051  28.4859586  33.2692218  50.6085491
  28.6949229  32.2792339  50.2031326  27.1382689  33.7999272  50.0221968
  26.4199805  32.9979062  50.1922703  26.7124963  34.7140431  50.4359722
  27.1981168  34.1690350  48.5175180  27.8233886  35.0537968  48.3978033
  27.6627040  33.3616829  47.9514408  25.7870102  34.4601965  47.9662466
  25.1942945  33.5612345  48.1355286  25.3672862  35.2806759  48.5482645
  25.8806372  34.8744202  46.5137625  26.8229294  35.1135278  46.2398720
  24.8959112  34.8701835  45.5933762  23.6858797  34.5355392  45.8954048
  23.4777856  34.1333103  46.7981863  23.0654693  34.5630145  45.0988913
  25.2306223  34.9923468  44.3585491  26.2062764  35.1041985  44.1225576
  24.5297003  34.8482704  43.6457729  29.6454096  34.1063523  50.1790237
  30.0476956  35.0277400  50.8960485  30.1484394  33.7571144  49.0299892
  29.8391652  32.8623033  48.6781836  31.3497090  34.3147731  48.3276606
  32.2565866  34.0086961  48.8491869  31.5854359  33.6100173  46.9598722
  31.7016435  32.5662470  47.2516537  30.6358719  33.6475205  46.4259911
  32.8483701  34.0322614  46.2016964  34.1022730  33.9723182  46.8644953
  34.1660714  33.4364033  47.7999783  35.2832699  34.3845344  46.1802149
  36.2529254  34.1638088  46.6014767  35.2430129  34.9993420  44.9570704
  36.1690068  35.2701020  44.4716454  33.9661336  35.1439142  44.2954683
  33.8680458  35.6407499  43.3415604  32.8263283  34.6071553  44.9232435
  31.8396568  34.6788526  44.4899511  31.3608384  35.8801365  48.2670307
  32.2829890  36.4621878  48.7540770  30.3307533  36.5409350  47.8788614
  29.5519257  35.9623098  47.5982904  30.2179742  38.0657601  47.7089643
  31.1976147  38.3849168  47.3532343  29.1814923  38.4145117  46.6506004
  28.1863856  38.2831955  47.0755959  29.2238259  39.4854236  46.4519644
  29.3506455  37.8317642  45.2654982  29.0087700  38.5854936  44.5561934
  30.3625035  37.4749517  45.0733280  28.4802294  36.5482211  45.0876141
  28.5572219  35.5484724  45.8357239  27.6177049  36.5846539  44.1568136
  29.8222804  38.8628387  48.9592552  30.0120711  40.1025343  49.0764904
  29.2900848  38.0825257  49.9697304  29.3237567  37.0757532  49.8964357
  28.7093735  38.6147380  51.2394428  28.0011320  39.4141269  51.0215425
  28.0177569  37.4620247  52.0286369  27.4742150  36.8399811  51.3174915
  28.7945485  36.8636394  52.5046921  26.8918824  37.9222250  53.0188274
  26.4745307  37.0468807  53.5165119  27.3102713  38.5807872  53.7799788
  25.7755232  38.6419225  52.2921324  25.5031395  39.6894979  52.8822279
  25.1125360  38.1468415  51.3363075  29.8275948  39.3507051  52.0964813
  30.9590173  38.8637614  52.1786737  29.5030427  40.5028820  52.6869011
  28.5318208  40.7642221  52.5945663  30.2402401  41.0752535  53.8040686
  31.2884927  41.1000252  53.5063171  29.9242330  42.6078129  53.8287497
  30.5966687  43.2202625  54.4294453  29.9087548  42.9646397  52.7989244
  28.9621663  42.7811670  54.3109083  30.0375366  40.3950453  55.1944017
  28.8682985  40.3380871  55.6867743  31.1213565  39.9265289  55.8487797
  32.4433756  39.7454238  55.3620052  32.9184341  40.6924391  55.1059198
  32.4403882  39.1702127  54.4361401  33.2598305  38.9710426  56.3444281
  34.2475009  39.4147277  56.4699411  33.3789062  37.9346037  56.0286474
  32.4111271  39.0364957  57.5991344  32.9525876  39.6934915  58.2797813
  32.3778534  38.0616570  58.0856276  30.9666562  39.4333124  57.2264338
  30.4124999  38.4947205  57.2188377  30.3687572  40.4252958  58.2657528
  30.6485343  41.5830946  58.2879543  29.5624661  39.8644352  59.2195511
  29.2054391  38.9341640  59.0545130  29.0778923  40.6314325  60.3859520
  29.1701412  41.6616678  60.0421381  27.6679921  40.1624155  60.7840729
  27.0507812  40.3455687  59.9045229  27.6483965  39.1065574  61.0540390
  26.9881344  40.9142780  61.9516850  27.5670671  41.9007015  62.5130081
  25.8398271  40.5363894  62.3607492  30.1872516  40.5848932  61.4258385
  30.1341772  39.9594402  62.4737167  31.2007427  41.3993263  61.1751270
  31.1656451  41.7805862  60.2405119  32.3578358  41.6464758  62.0312691
  32.9451442  40.7288122  61.9986486  33.2845020  42.7854109  61.5343285
  32.7547526  43.7334824  61.6272068  34.1595197  42.8918505  62.1755075
  33.7421322  42.7477407  60.1149178  34.9686027  41.9974422  59.8509741
  35.4677987  41.4136314  60.6101656  35.3921342  41.8139553  58.4865713
  36.1655760  41.0904121  58.2752132  34.5950937  42.4109745  57.4632978
  34.9347663  42.2526217  56.1780787  35.8692002  42.0337248  56.2008381
  33.5020781  43.2428265  57.7582026  32.9556584  43.8197470  57.0267725
  33.0692816  43.3670187  59.1142559  32.1543360  43.8473272  59.4282246
  31.8533587  41.8980980  63.4568167  32.3965931  41.4265013  64.4662619
  30.7985950  42.6901054  63.5903788  30.3144836  42.8873634  62.7261877
  30.0337052  43.0421829  64.8460865  30.8064795  43.4069872  65.5227232
  29.0779352  44.2425060  64.5286512  29.6472692  45.0109529  64.0057278
  28.1753469  43.9818192  63.9759541  28.7611198  44.9554157  65.8360147
  27.8886628  44.5302963  66.3321924  29.5720696  44.8242807  66.5524387
  28.4736300  46.7585135  65.8326149  26.7299914  46.6868448  65.2810526
  26.2563300  47.6497841  65.4720783  26.7713642  46.4536095  64.2171001
  26.1764026  45.9176254  65.8195114  29.3197131  41.8917036  65.5828428
  29.2016721  41.9339657  66.8124819  28.9738059  40.8041143  64.9029970
  29.0951943  40.7782984  63.9006472  28.4494543  39.5563865  65.5599356
  27.6364565  39.7710156  66.2535286  27.8094101  38.5887361  64.5199728
  26.8300200  38.9767241  64.2400408  28.3959055  38.5822797  63.6012316
  27.6960731  37.1357417  65.0465345  26.6394401  36.8260598  65.9399319
  25.8356023  37.5214148  66.1315632  26.6029692  35.6181526  66.5854597
  25.8134341  35.3790164  67.2824907  27.5478435  34.6476769  66.3106108
  27.6508427  33.4625435  66.9808769  26.9873524  33.3057475  67.6567459
  28.5722518  34.9075365  65.3531742  29.2671752  34.1324043  65.0656796
  28.6138487  36.1236596  64.6967793  29.4290471  36.4041877  64.0462732
  29.5881319  38.8541698  66.2905931  29.4412541  38.5100341  67.4692488
  30.8078933  38.6670256  65.7085323  30.8552051  39.0113163  64.7601986
  32.0103836  38.0449963  66.2587833  31.6381454  37.0698500  66.5728378
  33.1486940  37.8874326  65.2123880  33.3427310  38.9004493  64.8599100
  34.0712905  37.5977969  65.7154083  32.9559231  36.9064426  64.0404701
  33.9275503  36.6314030  63.6301136  32.3530579  35.5501008  64.4511080
  31.3042593  35.6603193  64.7267389  32.3891807  34.8297811  63.6338329
  32.9189920  35.2709317  65.3398609  32.1452212  37.5915098  62.9429579
  32.5183439  38.5997915  62.7633858  32.3078179  37.0070624  62.0373726
  31.0799646  37.5961185  63.1738472  32.4090719  38.8332343  67.5546646
  32.7033901  38.2132721  68.5933256  32.3668170  40.1331377  67.5316286
  32.3392081  40.5661821  66.6195917  32.6007462  40.9849691  68.6875343
  33.5892177  40.7914305  69.1041517  32.6230216  42.4552298  68.2594824
  31.6745424  42.5996399  67.7421522  32.7454352  43.0519390  69.1633940
  33.7444210  42.8448248  67.2187853  34.6972036  42.7732420  67.7433634
  33.7065029  42.2362232  66.3153076  33.5169816  44.2941523  66.6808033
  32.4944162  44.2561769  66.3052797  33.4932733  44.9698019  67.5358105
  34.3984008  44.7125864  65.5661058  33.9486361  44.7977972  64.6658039
  35.6476402  45.0981617  65.7394695  36.2714124  45.1330280  66.8387032
  35.7916427  44.8817921  67.6912260  37.2633362  45.2771282  66.9628859
  36.2255573  45.6396294  64.7334862  35.8180094  45.6655025  63.8097239
  37.0540667  46.1231661  65.0494957  31.5930271  40.7740593  69.8261881
  32.0869565  40.5006647  70.9348869  30.2383947  40.7672167  69.6042442
  29.9181056  40.9816265  68.6706781  29.1745687  40.4296827  70.5422020
  29.3802810  41.1026525  71.3746071  27.7473259  40.7996607  70.0697565
  27.6188302  41.8667507  69.8883581  27.4483037  40.3194094  69.1380644
  26.5632725  40.3761387  71.0224438  25.6115961  40.7714796  70.6673193
  26.6379952  39.2893553  71.0601473  26.7647648  40.9348059  72.4397898
  27.6137948  41.7480087  72.6510715  25.8778954  40.6670189  73.4209108
  26.0131383  41.0376167  74.3506765  25.0423288  40.1328468  73.2296228
  29.3870163  39.0062857  71.0959721  29.3844700  38.8724995  72.3229885
  29.7340083  38.0624104  70.2627850  29.8634529  38.2447076  69.2778397
  30.0055575  36.7221427  70.6851816  29.1240501  36.3151336  71.1805487
  30.1752400  35.8844113  69.3844557  29.2663836  35.8424020  68.7841940
  30.8822775  36.3765669  68.7166357  30.7315111  34.4226360  69.6183634
  31.5825891  34.4767213  70.2972126  29.6903157  33.5321927  70.2415133
  29.1981244  33.9974189  71.0955715  28.9953732  33.2176352  69.4629192
  30.1864696  32.6289082  70.5964947  31.3155437  33.7755466  68.3172131
  30.7539129  34.1157889  67.4472094  32.2462082  34.2406487  67.9921913
  31.4881968  32.7040052  68.4176636  31.1465931  36.4454603  71.6460752
  30.9805393  35.7645154  72.6440001  32.2797441  37.1177268  71.4153433
  32.3638463  37.5382423  70.5009031  33.4250331  37.2187853  72.3817301
  33.5974026  36.2152553  72.7707243  34.6330261  37.6334357  71.5783167
  34.4427419  38.6161184  71.1467743  35.4477119  37.8648806  72.2644806
  35.1724648  36.7255259  70.4893446  35.5267096  35.3797078  70.7479191
  35.3018737  35.0140858  71.7389631  36.2140894  34.5758629  69.7715378
  36.5988851  33.5981607  70.0214005  36.5814424  35.1412201  68.5338545
  37.0251584  34.5263004  67.7648354  36.2250400  36.4856148  68.2420158
  36.6060567  36.8339419  67.2933865  35.4987812  37.2346497  69.2117786
  35.1496172  38.2018042  68.8814783  33.1595778  38.1128263  73.6587572
  33.5485983  37.7337337  74.7302008  32.4638510  39.2599130  73.4468985
  32.1747398  39.4717741  72.5026369  31.9941664  40.2341461  74.4408083
  32.8255486  40.5144501  75.0875950  31.5952778  41.5943909  73.7986755
  32.2689748  42.1214199  73.1230497  30.6989241  41.4554691  73.1942272
  31.2652278  42.6807642  74.7395515  30.4755521  42.4874353  75.4655933
  32.0994997  43.0272007  75.3495264  30.8903885  43.9579153  74.0332937
  30.7043147  44.7189140  74.7911596  31.8133497  44.2590714  73.5377693
  29.6943259  43.8456726  73.0694008  29.2248344  42.9609680  72.9391050
  29.0251374  44.7974825  72.5717831  29.4472146  46.0268593  72.4580908
  30.4331994  46.1819267  72.6126528  28.7891102  46.7475128  72.1979761
  27.7812815  44.5540047  72.2201347  27.3760653  43.6292171  72.1941996
  27.0851803  45.2703857  72.0706654  30.9383059  39.6901894  75.5181456
  31.0481930  40.0188351  76.6948891  29.9142623  38.8882637  75.0765514
  29.8688769  38.6233974  74.1029549  29.0644097  38.0283165  75.9367323
  28.4478450  38.7696505  76.4450359  28.2361102  37.0355463  75.1926231
  28.8996720  36.4429450  74.5628548  27.5538039  35.9801650  76.1739445
  26.6197133  35.6266189  75.7373953  28.2532215  35.1718473  76.3873339
  27.2612286  36.4952636  77.0889139  27.2401166  37.8687429  74.3497038
  26.3842916  38.0185628  75.0078964  27.5695705  38.8268661  73.9477587
  26.7723346  36.9211030  73.2562828  27.6754165  36.7436957  72.6722717
  26.2781167  35.9884739  73.5284090  25.9845424  37.4522257  72.7220583
  29.9736619  37.3108125  76.8920851  29.8630357  37.5651932  78.0631113
  30.8805656  36.4760780  76.4140844  30.9944534  36.3985515  75.4135227
  31.6041303  35.6840277  77.3899889  30.9378099  35.2191639  78.1166363
  32.5112987  34.7174335  76.6018581  31.8955517  33.9645982  76.1097240
  32.9010606  35.2993965  75.7666874  33.6228228  33.9942551  77.3777151
  34.3114734  34.7342658  77.7854443  33.0614829  33.1226540  78.4453106
  33.8994455  32.6229382  78.9313173  32.5621676  33.8468957  79.0889454
  32.3182559  32.4059343  78.0959892  34.3427372  33.1268477  76.3517761
  33.6630726  32.5165319  75.7570696  34.8926330  33.6726499  75.5850840
  35.0925970  32.5402188  76.8825054  32.4379492  36.5545630  78.2833052
  32.5297499  36.3745952  79.4969988  33.0128980  37.5827861  77.7142811
  32.8802752  37.8102016  76.7391920  33.6608052  38.6362934  78.4207964
  34.5388389  38.2082343  78.9044523  34.2178226  39.7749186  77.4189949
  34.1335702  39.4057894  76.3968658  33.4017253  40.4974699  77.4203968
  35.5593944  40.3918982  77.7306461  36.4836884  40.5722427  76.6938210
  36.2171602  40.2762985  75.6899405  37.7623725  41.0868263  76.9645166
  38.5171318  41.2569618  76.2109995  38.0912948  41.5043116  78.2647228
  38.9738607  42.0809841  78.4990883  37.0986438  41.3639784  79.2865467
  37.3310614  41.7374563  80.2729130  35.9010458  40.8134317  78.9958143
  35.1254296  40.8372784  79.7469807  32.8624582  39.1198111  79.6192741
  33.3985949  39.0944934  80.7524490  31.5594125  39.3928504  79.4388008
  31.1320853  39.3403673  78.5251617  30.5873418  39.9037290  80.4601002
  31.0304236  40.6051207  81.1670780  29.2859030  40.4525137  79.7963142
  29.5035315  41.2795067  79.1204309  28.7797499  39.6514773  79.2575645
  28.3698416  41.1357927  80.8069706  28.2406306  40.4690599  81.6595268
  28.7608695  42.0484638  81.2566662  26.9509697  41.3528919  80.1799393
  26.9619346  41.8789434  79.2253447  26.6207933  40.3798199  79.8163223
  25.9300566  41.8935776  81.0675526  26.2621355  42.2610474  81.9477749
  24.6171117  41.9096231  80.8616257  23.9700699  41.3279867  79.8960924
  24.3704414  40.5498552  79.3917990  22.9680562  41.4314032  79.9693966
  23.8032579  42.5528240  81.6187286  24.2072964  43.0028677  82.4276257
  22.8332400  42.7514267  81.4194107  30.1972818  38.7388039  81.3605690
  30.1184916  38.9312363  82.5722504  30.1329947  37.4794698  80.8855152
  30.3443289  37.3379564  79.9080658  29.9858856  36.2338853  81.7519474
  29.0722370  36.3349080  82.3377228  29.8829651  35.0096035  80.8803654
  30.6567979  34.9902153  80.1129627  29.8998165  33.6978364  81.7046165
  30.9179902  33.3859611  81.9373322  29.3300009  33.9448595  82.6003742
  29.4618964  32.9084587  81.0937023  28.6654425  34.9540424  80.1848125
  28.6671948  34.3826127  79.4134045  31.0926723  36.0867047  82.7568340
  30.8868408  35.8243752  83.9472294  32.3566198  36.1368108  82.3165512
  32.4325442  36.4789057  81.3692856  33.5820985  36.0093522  83.1632614
  33.3644009  35.1762533  83.8315868  34.7681427  35.5704618  82.3672867
  35.1509356  36.2887359  81.6422653  35.5706000  35.3698134  83.0771542
  34.6292162  34.3455386  81.4444637  33.8523626  34.5815325  80.7172108
  35.8730865  34.0836763  80.6280422  35.9282112  34.9029994  79.9112701
  36.7495298  33.9816380  81.2679958  35.7251954  33.2050967  80.0000858
  34.2108631  33.0542469  82.1139145  35.0918770  32.6760721  82.6324654
  33.3701015  33.2668257  82.7742386  33.8992143  32.3625612  81.3312626
  33.7554479  37.2801352  84.0529633  34.2112184  37.1881461  85.2203178
  33.2695174  38.3700657  83.5424232  32.9196239  38.2274985  82.6057529
  32.8306603  39.5994663  84.2564392  32.1600223  40.1478338  83.5949039
  32.0114064  39.1536021  85.4891205  31.4190221  38.2928705  85.1787567
  32.7794266  38.7944412  86.1741447  31.2361550  40.2866793  86.1922073
  31.4842606  41.5087748  86.1233997  30.1764703  39.9232817  86.8965626
  29.5372319  40.5928373  87.3005104  30.0747156  38.9367080  87.0874023
  34.0051699  40.4502964  84.5373917  34.5914388  40.4730892  85.6002522
  34.2751384  41.2625885  83.5482216  33.7984514  41.1269617  82.6681805
  35.3885603  42.2274113  83.6289406  35.2986193  42.8642130  84.5090008
  36.7172074  41.5692425  83.8219547  36.7415762  40.6443691  84.3982506
  37.0776963  41.2428904  82.8464317  37.8011823  42.4198961  84.4517422
  38.9456415  42.7765799  83.7472630  39.5847273  43.5736752  84.5746040
  40.5964804  43.9302969  84.4497871  38.8657689  43.7540102  85.7246017
  39.1953897  44.2229700  86.5561867  37.7775192  42.9326010  85.6890297
  36.9746614  42.9341745  86.4114094  35.3410149  43.2477427  82.4725056
  34.2700148  43.7253284  82.1539021  36.4793944  43.7395620  81.9826412
  37.3302984  43.2817125  82.2766399  36.5485835  44.9283838  81.0518742
  35.6510091  44.9289179  80.4334354  36.7783332  46.3271713  81.7831039
  37.2211337  46.0491180  82.7395058  37.3814583  47.0504570  81.2342834
  35.4416013  46.9851875  82.2303104  35.7433653  47.9209852  82.7007580
  34.7944570  47.1570539  81.3702106  34.7552991  46.2902832  83.4085274
  35.3471637  45.5571842  84.1557884  33.4667182  46.3625717  83.6357784
  33.0925775  45.8188581  84.4003010  32.7945614  46.6092062  82.9234028
  37.6803255  44.7414541  79.9850941  38.6812377  44.1163874  80.3216076
  37.5447106  45.3251600  78.8021803  36.6268516  45.7259989  78.6719418
  38.5862184  45.5161810  77.7531481  39.1931224  44.6107721  77.7518177
  37.7472186  45.7312584  76.4532185  36.8896341  46.3602448  76.6920280
  38.3819032  46.2387991  75.7268047  37.1885395  44.5395184  75.7658243
  35.8141446  44.1573811  76.0901356  35.3752732  44.5270348  77.0050907
  35.2229428  43.0853081  75.3857040  34.3057060  42.6455879  75.7486439
  35.9076881  42.5432777  74.2531157  35.3409290  41.4617062  73.5927534
  35.9865737  41.0099268  73.0444479  37.1309161  43.0531454  73.8769770
  37.6723289  42.6382446  73.0396414  37.8281116  43.9622688  74.6266031
  38.8093233  44.2991018  74.3263245  39.3341398  46.7319441  78.2158661
  38.8579297  47.8815269  78.0133677  40.5786324  46.5580225  78.5642815
  40.9155798  45.6258774  78.7583876  41.4086485  47.6742315  79.0866137
  41.0460377  48.6953688  78.9687586  41.2863159  47.4674225  80.5820084
  41.8120623  48.2904148  81.0661221  40.2206707  47.4930429  80.8097076
  41.9050884  46.2054539  81.2030220  42.3350811  45.1786757  80.5792999
  41.9391680  46.0884476  82.4525356  42.8886652  47.6742649  78.6456490
  43.6875916  48.4438419  79.1665411  43.2793856  46.7553854  77.6819181
  42.5092173  46.3155937  77.1986771  44.6077776  46.4361286  77.1090508
  44.4587374  45.6144810  76.4084959  45.1597881  47.6031017  76.2916183
  45.4456234  48.3792877  77.0015049  46.0370541  47.2862244  75.7276154
  44.2424965  48.2713079  75.2791691  43.9208317  47.6342583  74.0793705
  44.3844509  46.7420578  73.6851025  43.0051947  48.2444239  73.2052755
  42.7851152  47.8687477  72.2169256  42.2714615  49.3981647  73.6396265
  41.5391541  50.0524044  72.7557039  40.9372616  50.6592035  73.1928730
  42.5706720  49.9650383  74.8675156  42.0489645  50.8461237  75.2108955
  43.6018610  49.4560337  75.6744719  43.7779379  49.8185921  76.6764498
  45.6673288  45.9132910  78.1623459  46.8641901  46.0885286  77.8585577
  45.2881813  45.2896881  79.2838669  44.3087578  45.3194284  79.5287275
  46.2108183  44.6465540  80.2162647  47.1645451  45.1712894  80.2725220
  45.7413387  44.6996021  81.6322613  46.4443111  44.1481352  82.2566128
  45.7043076  46.0820198  82.2308922  44.8213434  46.5689611  81.8169212
  45.5933475  45.9946203  83.3117008  46.6054773  46.6137409  81.9254971
  44.4630384  44.2028427  81.9371414  43.8498592  44.7488451  81.4396572
  46.5489864  43.2623100  79.7087097  46.1126804  42.2250748  80.2140427
  47.0812368  43.1932211  78.5004520  46.9695044  43.9951372  77.8966713
  47.6368475  41.9914627  77.9563141  46.6921854  41.4645863  77.8217268
  48.3897209  42.3720741  76.6645193  49.2321396  42.9900885  76.9751453
  48.6967373  41.4616776  76.1497259  47.5610542  43.0885458  75.6027746
  46.4490652  42.5080252  75.0429344  46.0931063  41.5301085  75.3316879
  45.7162094  43.2595873  74.1345024  44.8331165  42.7704668  73.7506914
  46.1324930  44.4775200  73.6330557  45.5701160  45.0034046  72.8757000
  47.2716761  45.0794792  74.2348528  47.6936674  46.0043001  73.8701200
  48.0000639  44.3822241  75.1998806  48.8881540  44.8380566  75.6120920
  48.5781860  41.3119698  78.9225149  49.2424583  41.9523859  79.7442532
  48.7936354  39.9991751  78.7335014  48.2658052  39.5722437  77.9856920
  49.6126938  39.1539001  79.5998907  49.1958189  39.0703940  80.6035519
  49.5171690  37.7115655  78.9964485  49.7103834  37.7674580  77.9251671
  50.3396225  37.1294188  79.4121122  48.1943560  37.0159626  79.3373060
  47.9989243  35.8733296  78.9020014  47.3136902  37.6022506  80.0091553
  51.0266304  39.7394228  79.8196507  51.4659929  39.9482703  80.9343815
  51.7553425  40.1992559  78.7398291  51.3300133  40.1430368  77.8254795
  53.0744219  40.8044767  78.9279461  53.6137152  40.0065756  79.4384527
  53.7658834  41.0348749  77.5694990  54.7227716  41.5080214  77.7899408
  53.9314461  40.0779724  77.0744944  53.0345583  41.8708181  76.5294027
  53.2373333  43.1622028  76.2544870  53.9581966  43.7784529  76.7712069
  52.2360992  43.5902548  75.4178715  52.2124720  44.5548391  75.1193428
  51.4626169  42.6008797  74.9219131  50.3720856  42.4992323  74.0296078
  50.0535440  43.3114100  73.3929777  49.9116802  41.2133455  73.7212372
  49.2602873  41.1451340  72.8624916  50.3059196  40.1000309  74.5066977
  49.9282217  39.1056705  74.3196154  51.2628794  40.2637053  75.4905605
  51.5670824  39.3730617  76.0202885  51.9210911  41.5111542  75.6799126
  53.0430841  42.0991611  79.7763300  53.9673567  42.3160267  80.6224155
  51.9925070  42.9131174  79.7750092  51.1376810  42.5677776  79.3625689
  51.9763517  44.2070961  80.5955124  52.9923630  44.5822334  80.4726219
  50.9154654  45.1861858  80.0486279  50.9476852  46.1834097  80.4874992
  50.9175730  45.3756809  78.5550213  51.7475939  45.9431362  78.1341171
  50.8724260  44.4184685  78.0355883  50.0628757  46.0297203  78.3822966
  49.6651220  44.5541668  80.3129768  49.6533346  43.6669445  79.9465132
  51.7706585  43.9165592  82.1176147  52.2348166  44.6885490  82.9715157
  51.1281252  42.7862740  82.4452209  50.6479979  42.2739792  81.7191792
  50.9338570  42.1978283  83.7930965  50.8864117  42.9319191  84.5974350
  49.5800352  41.4185858  83.7225723  49.6073055  40.6369972  82.9633141
  49.4993353  40.9596920  84.7079754  48.4878159  42.4178696  83.4274864
  48.4961176  42.6945972  82.3732281  47.5574398  41.9068718  83.6752319
  48.1133175  43.8661289  84.3872452  47.0382500  43.2940006  85.7508087
  46.3404369  42.5275755  85.4135323  47.6935577  42.8957081  86.5254307
  46.4536381  44.0892601  86.2133026  52.1424818  41.2947845  84.2545414
  52.2784615  41.0349989  85.3811741  52.9296255  40.7909679  83.2687664
  52.6844931  41.0467768  82.3229408  54.1635990  39.9547696  83.5309601
  54.0017080  39.3013239  84.3882275  54.5484734  39.1902804  82.2246552
  53.6290693  38.8211870  81.7701530  54.9322367  39.9279714  81.5199280
  55.6392479  38.0777812  82.3008823  56.6157484  38.5474324  82.4191093
  55.5370522  37.1463895  83.4204292  54.5738173  36.6388011  83.3691406
  56.4110327  36.4952993  83.4018898  55.3179789  37.6818442  84.3442249
  55.7315111  37.1561074  81.0975266  56.6451931  36.5762734  81.2282181
  54.8707724  36.4964747  80.9874344  55.8633661  37.7216339  80.1750946
  55.3837729  40.6787491  84.1252899  56.3542604  40.1246262  84.5873451
  55.3900576  42.0543718  83.9811039  54.6241236  42.6142788  83.6347675
  56.3790560  42.8665638  84.6400928  57.3418856  42.4106598  84.4093990
  56.3509989  44.2774439  84.1054726  55.4785109  44.8457956  84.4277191
  57.2128725  44.8631001  84.4252872  56.4005566  44.3318844  82.5793076
  55.4524231  43.8987970  82.2606087  56.3946486  45.3923368  82.3273087
  57.5402880  43.6015081  81.8642902  58.4804869  44.1405582  81.9806957
  57.7450132  42.6063347  82.2590256  57.2956657  43.5877132  80.3194523
  58.0754471  42.9954576  79.8406219  56.4149046  42.9863024  80.0943470
  57.1796274  44.9089432  79.6750689  57.0247841  44.7081137  78.6974239
  56.4243412  45.4691935  80.0435352  58.0255747  45.4605532  79.6892262
  56.1726761  43.1007433  86.1028099  55.0134516  43.1999254  86.5741253
  57.2621155  43.0746126  86.8446159  58.1412363  42.9722834  86.3580227
  57.3987532  43.4319687  88.2439232  56.3906527  43.6070013  88.6196899
  57.8542948  42.1652842  89.0202522  57.1782446  41.3672972  88.7132072
  58.8672638  41.8370581  88.7873077  57.6972914  42.4105692  90.4877472
  58.2263613  41.5991640  90.9875488  58.0855274  43.3627939  90.8491993
  56.1743164  42.4324322  90.8773041  55.4595852  41.3921356  90.8002090
  55.6572723  43.5124111  91.3982105  54.7402859  43.4177828  91.8108559
  56.2038612  44.3551922  91.5033150  58.3199692  44.7521448  88.4309006
  59.3947792  44.7472382  87.8118324  57.9060078  45.6887579  89.1130352
  70.5053568  65.7573557  66.3034105  69.3041325  65.4712725  67.2146797
  69.0462494  66.7717123  68.1183863  70.3011608  67.3811483  68.7856388
  71.4391041  67.1689510  68.0819368  71.6899872  66.5337229  66.9472170
  71.4961433  62.6089239  64.4417620  72.0124578  62.3534012  65.6576490
  71.8611622  63.5628605  66.6733742  70.9367561  64.4192886  65.7803059
  70.9004021  63.9747906  64.4787884  72.1016359  60.4418993  63.6123037
  72.6016331  60.0754976  64.9098635  72.5962639  61.0697222  65.9132862
  71.6111708  61.7453098  63.3479786  70.5355883  64.5561790  63.4581900
  73.1260157  60.8534956  67.2189188  72.7878523  66.6118574  66.4558554
  70.2537537  67.9626274  69.8738909  70.2698421  66.4155960  65.4562187
  72.2580242  67.5721312  68.5217047  72.0798063  59.7461605  62.7787161
  73.0435038  59.0969849  65.0731611  71.2532568  62.0884848  62.3817873
  72.8318691  64.0367699  66.8657112  71.4024067  63.2656145  67.6247072
  73.2448006  61.6458702  67.8361368  73.2247782  59.9610043  67.6843643
  69.5737791  64.6719170  67.9173183  68.4462261  65.2564621  66.5641165
  68.4197903  66.5527534  68.9930248  68.6448812  67.5431108  67.4481392
  59.4442081  18.4716618  61.2438202  54.9660158  72.9212570  79.3478060
  43.6878872  53.3628941  44.5267010  47.7938604  63.1812763  68.7620974
  54.4315052  22.5790286  62.3447561  45.0893450  46.6393614  33.6172962
   5.6497938   5.7289647  69.8476748   6.0942537   6.4822101  70.2366786
   4.7179348   5.9149122  69.9629931 112.4344272  93.7033139  30.8065371
 112.7843017  94.0310107  29.9780230 112.8811377  94.2207657  31.4765601
   2.5036109  83.2344304  37.8628973   2.2914947  82.6306139  37.1511130
   1.7535318  83.8275681  37.9053549  88.1833953 101.4825164   0.7444529
  87.5334424 101.8078385   1.3673167  88.3669013 100.5889855   1.0345606
  71.9536346  98.1026898  30.0087122  72.1416348  98.5470973  29.1820387
  72.7007479  98.3128939  30.5689578  87.8803128  92.2366367  40.0861983
  88.0809230  92.8788672  40.7670168  87.9303664  92.7311931  39.2681841
  15.3818572  88.5345255  11.3230090  15.1555503  89.2411958  11.9276862
  14.5394672  88.2258497  10.9893374  26.9796307  24.3173122  41.0489707
  27.2521002  24.6795987  40.2059130  26.2189276  23.7745094  40.8418040
   8.2105047   3.6968374  24.1431193   8.4562904   3.4130477  23.2626109
   8.5579474   4.5859384  24.2139105  27.7265293   5.1473188   5.0959162
  27.4436743   4.5808219   5.8137660  28.6372311   4.8980521   4.9386839
  23.2613528  82.3988734  24.5586447  22.6192630  81.9005857  25.0642638
  22.7555621  82.7853070  23.8437418  66.9110775  84.0178490  88.5096550
  67.3766041  84.5546913  87.8683186  67.5444794  83.8838005  89.2146873
  19.1376288  16.1772489  25.7039599  18.3204109  16.5262841  25.3482012
  18.8684351  15.6720685  26.4711337  34.5204449  24.4003677  89.0833759
  34.0080905  23.9333439  89.7433853  33.8895226  24.6103978  88.3948612
  82.9869175  17.1849763  87.4271965  82.9123592  16.8127370  86.5485001
  83.7651443  17.7408159  87.3866081  32.5631583  89.8287903  16.3328223
  31.8270934  89.8098956  16.9444518  32.5321639  90.7045685  15.9477477
  26.3033641  86.1502801  25.4203562  26.0871948  85.8073412  26.2874655
  26.0990108  85.4323946  24.8210959  58.8063223   0.7029008  12.5128989
  59.6754915   0.5323219  12.1500163  58.8857824   0.4791450  13.4401755
  25.4938567 102.2136269   4.8978285  25.8800567 102.9633294   4.4450335
  24.7789729 101.9314776   4.3272547  83.2280034 100.0430785  21.5800528
  84.1760796 100.1004468  21.6987662  83.1006402  99.2601167  21.0443549
  32.0713551   6.9430351   2.0474200  31.9222862   6.3788986   1.2886290
  32.2118837   7.8134631   1.6748194  33.3400280  15.0920677  42.3517947
  33.9685423  15.5013418  41.7570643  33.8809569  14.6811437  43.0261569
 111.7679155  13.7049102   2.4863104 111.5862501  13.6601972   1.5475707
 112.0116675  12.8108215   2.7259402   3.0834544  60.3317623  29.4757800
   2.4482311  59.8030789  28.9928584   3.9344180  60.0482713  29.1415362
   2.1792472  63.4052293  24.2825083   2.4319423  62.4913929  24.4139628
   1.3677896  63.5033719  24.7806506  19.8972285 107.6998339  21.2011866
  19.4321883 107.7938567  22.0325236  20.0217403 106.7559825  21.1018042
 115.9063548  86.7705975  40.5543761 115.1428622  86.2155090  40.7130579
 116.2151212  86.5107976  39.6863894   3.9918483  88.8378511  33.9278178
   3.9236320  89.1106282  33.0128531   3.2613433  88.2319389  34.0522055
  12.0890964  98.5269938  13.4096674  12.5715030  98.7338792  12.6092200
  11.2475646  98.9706050  13.3035807  85.0116557  87.5021420   6.3872294
  84.2131728  87.0137177   6.5874819  85.1115626  88.1089412   7.1207480
  20.3538097 101.7608796  22.2742514  20.3566230 101.6817199  23.2281641
  19.5435584 101.3309203  22.0006232  44.4788820   1.9329309  44.7151713
  43.6551554   1.4539718  44.8063235  44.6541769   1.9310331  43.7741618
  11.4294989   2.3199796  41.1030344  12.3740418   2.2488832  40.9651236
  11.2291987   3.2379770  40.9203105  35.7554752   2.3036002   5.8462386
  36.1800081   2.5365400   6.6719107  36.0218079   1.3980722   5.6871085
  19.8359359 110.0368796  25.2187781  19.5550311 110.1496230  26.1268572
  20.6338084 109.5114432  25.2783541  91.5770930 107.8296052  34.0009551
  92.1576709 107.2574912  33.4991126  91.7578381 107.6116763  34.9153285
  59.5157146  24.2754388  89.1897964  58.6926937  24.7580028  89.2672634
  59.5932770  23.7998748  90.0168705  35.9605724  12.0425653   3.7819151
  36.0168059  11.2280654   4.2815833  36.8089754  12.1142911   3.3445410
   4.3851627  95.9135638  21.9382052   4.8140109  96.7689286  21.9124751
   5.0898135  95.2983580  22.1412329  10.9841979  39.2266582   3.5883193
  10.5057395  38.5446320   4.0596537  10.3710426  39.5303963   2.9189925
  52.9717302  21.4559698  82.0509624  53.5182810  20.6701541  82.0524406
  53.2851410  21.9671154  82.7971077  98.4944761   3.3771276  10.9655241
  98.2546079   3.6658859  10.0850062  99.1271055   4.0289878  11.2673335
  63.3671267   8.9648580  13.5904555  64.1640360   9.1863393  14.0722422
  62.8033240   8.5450506  14.2401652 107.1620655  32.9595375  84.9266148
 106.2089252  32.8757453  84.9536228 107.4693108  32.1040201  84.6267414
  55.3366560  93.3301221  20.0869517  56.1749894  92.8694068  20.1211314
  54.9552912  93.1981979  20.9549288  24.9478019  59.8330314  35.1304011
  24.3035186  59.1614158  34.9066500  24.4462074  60.6479691  35.1531939
   8.3535827  59.4967238  30.9137873   8.0077232  59.1799365  31.7482047
   8.5219253  60.4272614  31.0620837  20.0435127  67.9795216  44.6567683
  19.7812045  68.8692091  44.8931555  20.8954013  68.0855022  44.2333464
  28.0974448 103.2245265  16.8565993  28.9226402 103.4677373  16.4369349
  27.5263847 103.9800940  16.7178874 104.5649815  72.2443628  78.8176346
 104.1442871  72.0799732  79.6615648 103.8379765  72.3817110  78.2103205
  48.2391722   3.2341909  27.9355864  48.2086546   2.3294734  27.6244883
  49.1703589   3.4558343  27.9366259  52.9320145  37.8155017  86.1316490
  53.2231808  38.5336518  86.6935349  52.3246765  38.2247448  85.5152988
  40.0825847  97.6443492  23.5516886  39.1748203  97.9455052  23.5129313
  40.5443061  98.3358727  24.0258555   3.0415118  89.4850241  53.6581950
   2.3715270  89.7052370  54.3053870   3.1054652  90.2637063  53.1052069
  13.0463488  12.8757810   7.3658423  12.9003794  13.3025884   6.5215926
  13.4603006  13.5488414   7.9060893  97.8754062  86.0189591  42.5509600
  97.9238242  86.7510281  43.1657462  96.9656438  85.7253252  42.5993495
 116.7673797  94.4693862  24.2782931 116.9841880  93.5373984  24.3032984
 116.2682933  94.5775567  23.4686999   3.8226951  70.6879388  19.5731215
   3.2210983  71.1664103  19.0027003   4.6728385  70.7604657  19.1392760
  85.7429332 102.4604951  21.1452155  86.1531085 101.8579303  20.5248026
  86.3532466 103.1955109  21.2043719  93.2587403  93.2671510  34.1661410
  92.9661435  92.5147520  33.6518340  93.6342400  93.8666330  33.5212760
   1.7463029  90.0228558  70.0716738   1.1959375  90.0048910  69.2887263
   1.7833341  89.1106735  70.3593974  16.6512740 104.8318206  36.4935355
  16.4662803 105.7657157  36.5927653  16.1161197 104.5595370  35.7480769
  48.7654478  22.5426435  26.4861159  48.1204302  21.8383168  26.5502505
  48.8511641  22.7041005  25.5465369  37.3127521 106.9105349  58.6642508
  37.0777763 107.5866614  58.0287413  37.3786605 107.3773633  59.4972949
 101.1220998  90.5148946  20.2452139 101.5214890  90.7053839  21.0939936
 101.7573232  89.9520980  19.8025183  50.3600008   6.1281251   5.5316119
  49.8212320   6.8091678   5.9342913  51.2586195   6.3697099   5.7560114
   0.3220666  87.3889242  18.2337145   0.9170783  87.6960693  18.9177184
   0.3319514  88.0854188  17.5771861   1.4838041  82.9947649  17.7724032
   1.9214071  82.1466790  17.8464942   0.9633363  82.9266129  16.9719653
  16.6366447  99.3566714  49.6115927  16.1698879  99.9982558  49.0761141
  16.4105857  99.5869981  50.5127482   0.4865278 100.1922236  26.2275462
   0.3298343  99.2526398  26.1334376   1.4398635 100.2748881  26.2510256
  39.1815169  14.1888618   5.8445887  39.8769028  14.8429822   5.7753138
  39.4516260  13.4883403   5.2508311  78.3938932  52.3597908  92.9789352
  77.4919224  52.2253609  93.2698154  78.5811996  53.2735491  93.1938648
  17.6580489  89.4171749  31.4279131  16.7805732  89.7244416  31.6556506
  18.1803382  89.5804845  32.2132639   1.5725023  12.0912790  22.0119147
   0.7042248  12.1016073  22.4146800   1.9042475  12.9806661  22.1350626
  51.5570528  24.2665290  39.0702490  52.1803553  24.6212339  38.4362845
  50.7986529  24.0127801  38.5442500  76.3143176 104.4787370  18.5255389
  75.8517307 103.7227832  18.8871722  75.6286735 105.0045214  18.1136183
  52.1747971  33.1615329  90.7090664  51.9632626  33.1339312  91.6421890
  51.7698526  33.9701867  90.3954983  26.4788497 109.9609719  22.6433234
  26.2571681 109.5888100  21.7897563  27.4299587 110.0660764  22.6190619
  15.3370822  95.7584630  29.0325217  15.6432212  94.8587237  29.1464476
  15.6073631  96.2067138  29.8339228  33.8767273   5.4143667   9.3326621
  34.7010739   5.3003787   8.8597064  33.8347895   6.3524770   9.5182089
  70.5906374  28.1255960  46.5791468  70.1341040  28.9667939  46.5653471
  70.4356272  27.7546644  45.7104640  94.7262830  69.8693000  27.4861006
  94.9407262  70.1300774  28.3817820  95.3798026  69.2051004  27.2670607
  11.8978179  85.7213317  46.9611983  11.1464275  86.0227762  46.4505248
  12.1900714  84.9282370  46.5119605  10.1801551  83.7387882  23.3754019
  10.7198489  84.4542943  23.0392127  10.7784427  83.2195388  23.9126734
  37.2538304  50.4254293  88.6523533  37.9011703  50.2093983  87.9811573
  37.2167993  51.3819075  88.6503601  10.0281871  83.1331716  52.1992449
  10.0986732  84.0451346  51.9171290  10.7635082  82.6930414  51.7728476
  25.6102307   0.2442169  28.1291441  25.7962162   0.8405160  28.8544421
  25.6943161   0.7870244  27.3452239 115.6454677  55.2263254   6.6519217
 114.7725123  55.2958345   6.2654643 115.8799952  54.3039716   6.5494971
  51.0490192  92.3365031   7.3213534  50.7115520  92.6796852   6.4939551
  51.8058646  91.8070589   7.0701460   9.7107661  76.9478141  18.5035471
   9.4746268  76.8291817  17.5835471   9.7759879  76.0581814  18.8507132
  10.5436546  10.0058364  30.2847056  10.8108933  10.9248924  30.2973704
   9.7113783   9.9918746  30.7573084 107.6361531  93.5803924  28.0176978
 108.0085915  94.4605718  28.0706553 107.4176234  93.3579503  28.9226870
  95.3736895  93.0326424  25.5425410  94.9828404  93.7632690  26.0217623
  94.6426267  92.4381004  25.3743319  92.9567212 109.3143760  47.7657561
  92.4913854 109.0085326  48.5443167  92.7921027 108.6390982  47.1076254
  38.3916361  16.7035531  21.6308360  38.5344345  16.4896583  20.7088332
  39.1919930  17.1551179  21.8986945  94.5607919 106.2056027  59.1021304
  93.6258096 106.3877497  59.0079646  94.7850341 105.6956301  58.3237509
  97.0361871  94.5114289  61.4655928  97.2994536  94.0832578  60.6509833
  97.4372024  95.3794013  61.4204173  73.8855982  21.5591502  83.1565094
  73.0368328  21.8258572  83.5096264  74.3998909  22.3661327  83.1339359
  44.8362125  66.2609349  47.2621684  45.4597915  66.5910099  46.6153101
  45.2162517  66.5032826  48.1066088 102.1690053  74.5363699  46.4198451
 102.8196401  75.0471447  46.9015269 101.7205638  75.1781140  45.8691172
  32.7042068  79.4305549  26.1637263  32.3057903  79.2131339  27.0064692
  32.5786269  78.6460124  25.6299071  51.1535723  19.6407127  25.1686053
  52.0878107  19.5942878  24.9654345  51.0550005  19.1166543  25.9635119
 109.1237325 103.7796508  28.2273631 109.5150298 104.0722571  27.4042563
 109.8238772 103.8758622  28.8729434  18.8190121  28.3196068  84.6562958
  19.7208161  28.6076856  84.5148754  18.3451790  28.6278844  83.8838482
 101.7104262  90.9414445  36.2675719 102.0304316  91.0032759  35.3675608
 102.3910350  91.3618456  36.7931799  51.1279089   6.8291520  10.0279479
  50.1871855   6.9983625   9.9766020  51.2027723   5.8760642   9.9804739
  39.4844992  10.0977086  22.1762137  39.7464878  10.9420490  22.5432066
  39.2516071   9.5672559  22.9381995 103.3198530   8.6138009  52.3896746
 103.7134630   9.0275525  53.1578593 103.7423975   7.7565622  52.3364405
  58.9902479   7.1485900  49.2704539  58.1525499   7.3988961  48.8808016
  59.5035727   6.8092298  48.5372691 111.1015415  66.8416643  85.8163738
 111.9586945  66.5226030  86.0987186 111.1165714  66.7569494  84.8630428
 104.9735451  69.2037296  74.0880537 105.6424332  68.5199976  74.1244602
 105.1247025  69.6423292  73.2507849  35.5843592  50.4759550  92.4966240
  35.0108480  50.8691263  93.1544495  34.9963593  49.9634743  91.9417858
  30.5819953  86.7455636  43.0678038  30.8017982  87.2713791  42.2987513
  30.3230727  87.3863707  43.7300448  35.2460540  75.5071483  20.5353884
  34.6230472  76.1962019  20.7662730  36.0423148  75.9772573  20.2880148
 104.1752518   4.2220163  36.4254050 103.2925880   4.5912647  36.3971858
 104.2221320   3.7778949  37.2720389  39.7766650  96.2500916  14.2877821
  40.3376735  95.8445893  14.9488883  39.2252887  96.8572579  14.7813086
  72.6435454   9.2400264  50.7915167  72.7636606  10.1696348  50.9855227
  71.9472487   8.9594459  51.3853793 103.6333960  87.6181446  15.6883769
 104.1914481  88.3738170  15.5046134 103.1560964  87.4687610  14.8722224
  72.4468310   7.9397249   4.5760302  71.8351633   7.2079515   4.4948153
  73.2736952   7.5998353   4.2339663 117.0043343  86.7182289  27.9705481
 116.3492888  87.4087106  27.8686480 116.6354913  85.9675847  27.5050120
  34.1259129  38.4957933   0.9548621  35.0576336  38.4164190   0.7503371
  34.0201504  39.4027566   1.2420420  49.7071726   9.8356056  21.0848765
  48.8694079   9.3982171  21.2367873  49.4985659  10.7693528  21.1138014
  40.8820088   8.9264678  41.1465125  40.3500063   9.5650386  41.6213183
  41.7646868   9.0409898  41.4986472  21.4486278  85.6932579  47.4243121
  20.9839500  86.5226517  47.3128848  21.5800536  85.3706966  46.5327315
 113.9155275   4.9750232  37.1399741 113.6600477   4.2816543  36.5315394
 113.8794214   4.5619296  38.0026965  73.4565050   8.8322686  16.7973475
  74.3093664   8.4124421  16.9096617  73.5391409   9.6687364  17.2553019
   1.3443262   5.1954793  47.0303778   0.8649594   5.9006690  46.5954642
   1.3507206   5.4446840  47.9545455  78.4216261  69.1843843  89.5850658
  79.1094828  69.5762539  90.1231480  78.6664152  69.4039917  88.6861324
  38.2398541   8.1106853   0.8989672  38.8100083   7.4788093   1.3370184
  37.3609764   7.7420091   0.9877162  41.8259508   2.3947429   2.0977454
  42.1878321   2.0673703   2.9212145  40.9096796   2.1181964   2.1120600
  48.0612135  45.1252508  89.1931915  48.8576269  44.6348190  89.3967533
  48.0894375  45.2445269  88.2438755  11.0873855  90.2079640  51.7531256
  11.8983043  90.1183663  51.2525038  10.7640136  91.0810791  51.5310053
  68.2185841  45.1490450  84.8477077  68.6015701  44.7574139  84.0627384
  68.7417269  44.7998285  85.5692387   9.2188705  78.3519707  34.5007185
   9.8209441  78.8516866  33.9493327   9.6495498  77.5054370  34.6195750
   0.8067364  71.2267542  53.8373709   1.4945072  71.7881680  54.1951656
   0.9940666  71.1865854  52.8995419   9.6296561  94.5122252  34.2086176
  10.4067672  95.0705419  34.1840605   9.0672553  94.9135290  34.8711066
  60.1819229  13.1223798  91.8042088  60.5579329  13.5530818  92.5718975
  60.1552010  13.8062370  91.1349869   9.7533191 100.4717599  39.9504904
   9.5186103  99.9082242  39.2132048   8.9301360 100.6075297  40.4197173
  17.6925433  61.7959474  37.8366236  17.8899158  61.5447317  36.9343047
  18.4114326  62.3765449  38.0863051 116.5673942 104.0492545  23.9347605
 116.5524930 104.2270337  24.8751788 116.5017003 103.0965052  23.8700442
  24.6162856  97.4662076  25.0084738  23.9886249  97.7874671  25.6558280
  24.1041339  97.3698388  24.2055754  49.8445494   6.6836261  22.0570139
  48.9388544   6.8235873  22.3333411  50.3679354   7.1599960  22.7015166
  11.5061439 108.9324723  36.9816355  10.8551658 109.3426142  36.4122061
  11.0128463 108.6691199  37.7585177  42.6107485  34.4003248  19.3907885
  42.0925028  33.5962056  19.4230513  42.0734675  35.0499009  19.8442320
   9.0849269 100.9841357  44.4501833   8.8146747 101.7371522  44.9756865
   9.9922431 101.1726247  44.2104296  10.4667724 107.7958022  47.7007727
   9.7917331 107.4704991  47.1051840  10.8621848 108.5326920  47.2350649
 107.3794049 105.3578006  15.9973387 106.8629378 104.6449910  16.3733725
 107.6757687 105.0190507  15.1525645  81.0324449 108.8324843  60.3242640
  81.4084023 107.9767381  60.1179175  80.8282536 109.2163144  59.4714980
  24.3181593   1.5858697   4.0939002  24.7621567   1.4168691   4.9248938
  23.9540226   0.7378005   3.8400988  30.2332527   2.3341417  31.3622145
  30.1656086   1.5118789  30.8768897  30.4173405   2.0663976  32.2625784
  85.9023840   6.7537164  29.3216471  85.9512503   7.1041250  28.4322314
  86.7819864   6.4187478  29.4957785  25.3812659  71.4566456   4.5321040
  26.0232700  70.9303759   4.0555624  24.5592559  71.3145433   4.0627055
  87.2997016  96.6087638  27.2986941  86.3511294  96.5080987  27.2192339
  87.5230950  96.1444197  28.1053595  22.1547092  98.7382756   2.4867777
  22.4858249  98.1933652   1.7728667  22.0388187  98.1310855   3.2176165
  14.3252719  99.7078286  43.4185557  14.4981349  98.8111602  43.7054877
  14.8698867 100.2508603  43.9884142  60.0284083   5.1885366  13.6772208
  59.8153860   4.3173312  14.0116648  59.3262083   5.7496928  14.0062289
  77.3961401  38.4145188  86.5082455  76.4718008  38.5315704  86.2888622
  77.8646612  38.6611366  85.7108116   7.6554549 109.8563348  11.6418795
   8.1698478 109.2446385  12.1686224   6.7459167 109.6061288  11.8042902
  33.4572376  85.5558024  13.1631903  33.2798064  86.0878263  13.9388899
  32.5959361  85.2461515  12.8830008 113.9184922  67.4385021  38.9729552
 114.3388814  66.7830621  39.5296435 113.3928508  67.9636656  39.5763926
 107.9831284 105.5414544  55.2108435 107.3583573 105.1381932  54.6081118
 107.8906793 106.4818202  55.0578837  40.1463301   9.4459628  10.5767302
  40.8513672   8.7998199  10.5361704  39.3674357   8.9368057  10.8010535
   1.3449109 100.7573806   9.9395232   1.3477767 101.1938201  10.7914309
   1.4809287  99.8322068  10.1439242  63.1785090  38.8980054  37.6584677
  63.4847147  39.1178464  36.7786173  63.5071928  38.0122327  37.8121047
  39.3972571   0.7299709  24.7207121  38.5116322   0.8852386  25.0490336
  39.9463923   0.7277393  25.5047278  18.8296396  27.2921800  23.1875853
  19.6223766  26.7897462  22.9995303  18.1158478  26.7446851  22.8604941
  30.2711804  35.9087705  24.9207263  30.7394344  36.1065912  24.1096644
  29.6738894  35.1987790  24.6853880  23.1854756  14.7711372  27.0117430
  23.3779747  14.5721816  27.9280333  22.4488098  14.2006492  26.7924265
  22.0996631 108.5824595  25.7927184  22.2994292 107.9837809  26.5123705
  21.9209636 108.0094634  25.0470786  14.1359676  95.0097881  32.7914290
  14.2363704  94.0764962  32.9788260  14.0065158  95.4138003  33.6494784
  50.4723913  11.6598748  52.4002604  51.2540133  11.2364244  52.0453028
  50.7601435  12.5449991  52.6238398  19.9513752   9.5121288  52.9867320
  18.9988310   9.5880746  52.9308180  20.2211697   9.2331170  52.1117453
  42.1792204  19.3796157  39.6103529  42.6579935  18.5635614  39.7554926
  41.2897761  19.1920709  39.9102835  74.5376986 108.2946311  51.1299376
  73.8242001 107.7208005  51.4089922  74.8462624 107.9112397  50.3089480
  85.8895558  76.0861812  29.0887980  86.8298215  76.0385261  28.9159827
  85.7704753  76.9237934  29.5365290  14.9990923  10.7237767  25.1586966
  14.9227459   9.7911119  25.3600363  14.1850598  11.1068010  25.4856162
  69.6720297  10.0570630   8.3123831  70.1991923  10.8556508   8.3365206
  69.9721892   9.5490550   9.0660815  39.7191174  19.4366311   1.3773779
  40.5523092  18.9762067   1.4775424  39.2720968  18.9717531   0.6700663
  81.1247826 103.6454201  72.8457451  80.3516006 103.0875874  72.7606583
  81.8640614 103.0517769  72.7142334  52.6966078  16.6272878  45.5221800
  52.3153669  15.7986402  45.2319579  51.9738371  17.0867919  45.9495978
  20.3716815  55.5657955   7.4028067  19.7850955  55.0853380   6.8185858
  19.9334586  56.4047797   7.5452570 104.5352048  94.1265116  37.3778491
 104.4908065  93.1990515  37.6103930 103.6238021  94.3812905  37.2340827
  43.1742919 103.3708821  21.4122252  43.1290687 104.0906201  22.0416407
  43.2174171 102.5822078  21.9529299  79.4752009  31.0177373  12.0546107
  78.9917738  31.7846441  12.3618273  79.2787058  30.9697103  11.1190276
  14.3962920  96.6390715  60.8019022  13.7169803  96.2426339  61.3474326
  13.9134467  97.1127044  60.1245837   7.7040065 108.4651385  19.1689829
   7.4859775 107.5337945  19.2050318   7.4542297 108.8030587  20.0290160
  12.8756393 102.0897733  22.4337344  13.0196727 102.1052991  23.3799128
  12.5996936 101.1921941  22.2481684   7.9002155  94.5728503   7.6958136
   8.8089336  94.3604694   7.9087786   7.6886619  95.3150187   8.2620863
  79.6259278  92.6835666   7.2706084  79.3130511  93.5403262   6.9802527
  80.3267878  92.4638997   6.6567950  50.5635435  22.5605153  28.3369689
  49.9789030  22.4178266  27.5926070  50.0236876  22.3731994  29.1048865
  37.8891814  88.0232344  33.8608031  37.0690597  87.5884281  33.6271815
  37.6836932  88.5088692  34.6596579  86.6879637  23.4622764  56.0229163
  86.3870604  24.2056321  55.5003218  86.4166720  22.6924896  55.5228476
  88.7378485  10.8480024  12.7424769  88.7016375  11.7147779  12.3379759
  88.0964167  10.3298473  12.2563605  70.2966101  10.3544759  25.6642489
  70.6451113  10.3789710  26.5554099  69.8269255  11.1829376  25.5678896
   4.2512477  90.7153426  50.6745867   5.0557388  90.7682453  50.1586108
   4.5383228  90.8395944  51.5792326  29.7787316  19.7768974  12.2329192
  29.4885618  20.3149986  11.4963774  28.9682514  19.4846772  12.6499991
  83.9421255  11.0339116  31.0528616  83.1407148  11.0185527  31.5760474
  83.9883406  10.1623296  30.6598715  41.5242750   4.7179174   3.7366919
  41.8227465   4.0445565   3.1253485  42.3058874   5.2396488   3.9186434
  40.0039447 106.8678914  13.5998683  39.4164241 107.1988879  14.2791991
  40.7700790 106.5519820  14.0788989  96.4931697  89.6921883   6.5030722
  97.1176738  90.2939640   6.0979895  96.2112922  90.1404892   7.3004488
  17.8910793  57.4189830   0.7443194  17.6181377  57.7174859  -0.1232191
  17.0972789  57.0496757   1.1312632 108.9333028  67.7931712  41.5330653
 108.0018825  67.8544305  41.3210825 109.3240708  67.3620640  40.7730155
 105.7868099  21.2802529  73.1837749 106.0770798  21.0071254  72.3134995
 105.8725452  22.2335792  73.1766129  73.1112528  12.9354262  63.0571127
  72.7612638  12.4449432  63.8008642  73.5789108  12.2814500  62.5376511
 111.0333413  82.5996123  13.4951357 111.7306775  83.0075775  14.0084700
 110.3801125  82.3377953  14.1439681  61.0331821  34.4807100  85.3267097
  60.2012873  34.9421978  85.2208042  61.4260483  34.8712492  86.1073303
  67.3997211  17.5927460  90.9334183  66.7470026  17.1972477  90.3556824
  67.3121595  17.1134162  91.7573166  51.2739528  48.6534987  10.2377944
  50.3834117  48.5316627   9.9086718  51.1859763  48.6065529  11.1897902
   3.1063712  83.7173138   4.8122935   2.3480571  83.7556301   4.2294364
   2.9933322  84.4629823   5.4017214  31.7771209 105.0198613  21.4434771
  32.6470149 105.3065024  21.1653285  31.2035430 105.2521048  20.7132010
 105.7266730  66.3443540  11.0689883 105.1675719  66.3684521  11.8455653
 105.7845038  67.2572671  10.7870726 113.9235848  42.8280018  18.9281039
 114.2792481  43.2244788  18.1327776 113.8186807  43.5608993  19.5348029
 104.4122237  97.5586520  11.4467196 105.0833434  97.1013223  11.9533591
 103.9234418  96.8602811  11.0112814  86.8111229  13.3599067  94.3107319
  86.1330605  13.8055491  93.8029194  87.3984432  12.9887855  93.6522961
 114.4719714  88.3580623  17.2984461 114.2498607  87.8480874  18.0774359
 113.6313981  88.6867414  16.9796423   2.3794139  72.5443123  23.5703616
   1.7270339  72.6936482  24.2547087   3.2131446  72.5041972  24.0388922
  11.9681323  74.4868158  26.4427332  11.9197524  73.5905181  26.7752127
  11.8640769  75.0363658  27.2195200   7.9141772  81.7454539  15.1054434
   7.8620113  80.8473836  14.7783713   8.8512481  81.9399391  15.1229338
 102.0019311  84.1333400  22.0348887 102.5904197  83.9922415  21.2932734
 101.9716472  85.0843750  22.1390490   3.1261695  44.4231497   1.6133456
   3.6569560  43.7892912   1.1309485   3.7583411  45.0585280   1.9493250
  85.5503243  76.6528188  42.6344161  85.2171201  76.7386065  41.7411952
  86.4719886  76.9033943  42.5713305  47.1272356   9.9074744  24.4341616
  47.3318464   9.1493129  23.8868479  47.7809794   9.8818969  25.1328806
 102.1191186  76.1881457  22.7475981 102.3984021  75.3855191  22.3071246
 101.3148326  75.9429036  23.2049994  19.1824020  70.8578990  44.5099978
  20.0023998  70.6243895  44.0749030  19.4133342  70.9242020  45.4365592
 112.3106355  67.2712050  24.4541602 112.8250426  67.9485153  24.8933272
 112.4352044  67.4432789  23.5208277  99.1670102  84.3090068   6.1541991
  98.5324496  84.9442826   5.8225493  99.3240565  83.7198053   5.4163603
  88.6926574  81.8529616   2.6428656  89.1119260  81.0509358   2.3310999
  87.7844447  81.7778598   2.3500494   9.2500365  56.5243220   3.0392508
   9.3105376  56.8547004   2.1429209  10.0583137  56.0275996   3.1664996
  94.8873043  28.0009270  92.6764107  94.2286110  28.2527614  92.0291519
  94.5188141  27.2284651  93.1050682  13.5018028  84.3794285  11.3981490
  12.9732097  85.0793539  11.7814688  13.1138385  84.2311917  10.5357413
 104.9677104  97.6360522   4.3220000 105.3748197  98.2663356   4.9163394
 104.0441102  97.8867255   4.3030791  71.8808651  22.9639935  87.6933575
  71.7300653  22.8844070  88.6352539  72.6638937  23.5098171  87.6214409
 116.0369873  38.4448314  85.0243092 115.5974102  37.6732850  84.6669388
 115.3547955  38.9035273  85.5146599 100.1803416  49.5239477  11.2365012
 100.5750674  50.2084912  10.6962924 100.3565759  48.7121408  10.7609515
 112.7849692  93.5312496  21.6607432 112.4549884  92.7765547  21.1731200
 112.2582883  94.2670284  21.3485484  79.7068548   5.0359893  77.8601599
  80.0319481   5.9362036  77.8730059  79.5175552   4.8628372  76.9379807
  93.3742714  29.2076540  85.9044552  93.5579109  30.0502849  85.4891491
  94.0929317  28.6408591  85.6242752  88.1392002  24.8919177  88.0882454
  88.8979530  25.2973771  88.5079193  88.4607983  24.0452194  87.7785492
 111.4547986  78.0696903  42.3161368 110.9800166  77.8762470  43.1244616
 111.6650123  79.0014063  42.3789458 108.3305615  64.4407974  29.6124415
 108.9597958  64.8512743  30.2055792 108.1761807  63.5745148  29.9892096
   7.2801936 100.2857362  11.6398959   6.5937770 100.0090800  12.2469668
   6.8348277 100.8672581  11.0236887 114.8984498  81.4852534  19.8827223
 115.3837079  81.0141478  20.5600886 115.5758256  81.8787084  19.3326430
  92.4151230   1.9190605  79.9504900  92.0166683   1.6586110  79.1200495
  92.5052643   1.1013165  80.4397774  82.4087620   7.9304069  64.7158480
  82.0451736   7.5480312  63.9172077  82.8260899   7.1952695  65.1648951
 104.3612212  63.9127026  24.8980860 104.6277064  64.7986500  25.1436762
 103.4144801  63.9739428  24.7709517   7.6065410  89.1257988  43.3898215
   6.6878284  89.2087184  43.1342558   7.8683818  88.2639252  43.0660204
  89.1685981  53.0168500   5.5957846  89.4350118  52.5982641   6.4143424
  88.8368863  52.2989245   5.0565390 107.8308743  80.7086430   2.8206782
 108.0192727  80.3796206   3.6995844 107.0427627  80.2364836   2.5520091
  64.8921204  21.5970445  87.8649426  64.6158648  21.7441607  86.9603539
  64.4804049  22.3057437  88.3593750  90.5353564  85.1449953  30.1249461
  90.7143992  84.5420419  30.8464961  90.6935710  84.6274219  29.3354468
  74.7007507  96.2762509  32.5658183  74.3066591  97.1164094  32.3311667
  75.4597825  96.1980019  31.9879107  59.4188452  30.6705070  76.2899876
  58.9294195  31.4442706  76.5692472  59.5750237  30.8100891  75.3559875
   0.1548970  57.1087448  15.7503657   0.9050143  57.0233060  15.1619296
  -0.5796229  56.7442280  15.2565531  90.4452008  68.2448695   6.2052016
  89.7034186  67.6681386   6.0225062  90.8170861  67.9061030   7.0195536
   4.3430007  71.8767808   5.9554533   4.4159473  71.5294717   5.0664763
   5.2156127  71.7591618   6.3308959 108.1749076  90.3681312   6.0307173
 109.1264695  90.4312239   5.9483580 108.0136985  89.4500814   6.2484984
  97.1568775  24.4508672  77.1263313  97.7072430  23.6753225  77.0174122
  97.7270508  25.1837468  76.8939114  67.8842497  25.9339166  63.4542274
  67.8736115  25.0953245  62.9928303  68.8077068  26.1850882  63.4733200
 105.8363885 104.1771518  26.6387038 105.3617019 103.4180747  26.9773917
 106.4188212 104.4339286  27.3535971  23.2965165  90.6261837  85.7344341
  23.2278663  91.3080441  85.0661564  22.8225690  90.9798931  86.4870930
  66.9955826  20.3874612  89.8548412  67.3399496  19.5859969  90.2489185
  66.2622690  20.6352901  90.4179287  51.7734098  40.2318478  89.5796585
  51.1178017  39.6263814  89.9258041  51.2745953  40.8366346  89.0304375
  63.3856583   4.3468973  78.7519550  64.0358639   3.8729173  78.2334900
  63.8621330   5.0984442  79.1046333  65.3396302 102.6816165  90.0744915
  66.2168485 102.3289638  90.2240562  64.8078328 102.3065816  90.7764721
  29.9294216   4.7295427  15.2101378  30.6027014   4.9467277  14.5653491
  30.1052410   5.3152036  15.9465556  95.2573556  67.9835187   3.4367518
  94.3209809  68.0440734   3.6258749  95.6051177  68.8440476   3.6708216
  57.4306011  27.5692725  54.0803242  56.5194178  27.3342633  53.9049625
  57.8334475  27.6292539  53.2140970   1.1474288 107.8960429  55.3699355
   1.7927325 107.8145991  54.6676592   1.0393298 107.0042573  55.7004790
  85.9430981  32.1792388  94.2298603  85.2568913  31.5155292  94.2994785
  86.5024948  31.8715096  93.5166931  12.2887386  68.6955343   9.4663386
  12.5636161  69.6055768   9.3545584  12.9872192  68.1826876   9.0597109
 108.5745734  62.7134339  20.1318888 108.3350295  61.8428354  19.8142199
 108.9259976  62.5600622  21.0089259  49.4058192  67.9723416  45.2020888
  50.3023971  67.7665649  44.9374537  49.3584884  67.7012490  46.1188750
   1.0661758  92.0541893  18.8717989   0.4266608  91.3632093  19.0444331
   1.8278897  91.5931974  18.5203700  13.3582080 110.2989732  33.6916880
  12.6923049 109.6130906  33.6429266  13.6201156 110.3135072  34.6122412
  81.1513329  20.5727148  92.5927830  80.9380722  20.1130533  93.4048557
  80.9044933  21.4822149  92.7604580   4.7976840  77.8881918   7.1142439
   4.3024791  78.1743322   7.8817896   4.3030608  78.2294856   6.3691954
  91.1313600  96.2688456  13.6455111  91.3976973  95.8049928  12.8517012
  90.9747142  97.1678124  13.3564620 102.8480214  89.2003833  18.5977988
 102.6644248  88.2774530  18.4225134 103.7901133  89.2888199  18.4533076
  51.8264484  27.9746127  92.7710819  52.3835230  28.6148620  93.2137775
  51.3569021  28.4825540  92.1094513  60.8390284  18.2156932  88.3483315
  60.5964947  18.8316810  87.6569748  61.1658287  17.4471760  87.8805542
  69.8913527  16.0505486  89.4648838  70.1850939  15.1401377  89.4980335
  69.9685049  16.3601291  90.3673458 110.8396882  45.0504671  53.9615969
 111.7669887  45.0234102  54.1974215 110.3827447  45.1463072  54.7972064
   7.2833884  91.9924079  14.9902300   6.8736327  92.6372276  15.5668978
   7.3545707  91.2026392  15.5263571  22.8318752  94.9138747  51.4002375
  22.9431785  95.7620631  51.8296675  23.6676753  94.7562228  50.9611277
  62.9847383  21.4841676  73.8665581  62.3018694  21.0951924  74.4130230
  63.5272408  21.9812655  74.4787788  62.2030163  20.1268935  80.8756161
  62.3525190  21.0450244  81.1012650  62.8041315  19.6406221  81.4399147
  28.5073167  96.5110325  73.3112097  29.1048032  96.9978916  73.8788462
  28.4113675  97.0628749  72.5350046   2.7458919  73.4011076   2.9329352
   2.1523631  73.2355700   3.6654334   2.2903407  73.0446635   2.1702723
  38.4823728  26.7892671  86.2762070  38.9470911  26.0273242  86.6222000
  38.4819293  26.6592550  85.3278732   1.7321027  65.9112511   3.3820872
   1.9570888  65.3352855   4.1127543   2.5765765  66.1941562   3.0312972
  57.5226021  31.9799495  86.4265919  57.6944017  32.6282239  87.1095657
  58.3055401  31.4293718  86.4165592  83.9763993  44.6282779  46.9066004
  83.3183307  43.9643119  47.1123271  84.7230548  44.1303860  46.5736727
  22.3147071  67.1231399  27.1593623  22.9407562  67.6147805  26.6277747
  22.4518169  66.2099050  26.9074969  33.2650912 105.1106892  33.6653094
  32.7405894 104.5565711  34.2433123  33.3155788 105.9512959  34.1203455
   5.1955444   8.1012630   9.5018248   5.3633625   7.5472354  10.2641444
   4.6473343   7.5631856   8.9307169  95.5361241 103.4219323  10.1148085
  95.9395665 103.3518182   9.2496161  96.2548846 103.6739836  10.6945281
  81.4916897  21.4714885  71.0122585  82.2350407  22.0306373  70.7863951
  81.6542435  20.6547379  70.5403185 111.8120164  70.9153579  23.4882884
 110.9036845  71.0658119  23.7500720 111.7796630  70.1192628  22.9577975
 105.3046513  26.7423749  91.4557362 105.9677124  26.0913157  91.6853046
 105.2997875  26.7520690  90.4986000  36.5626080   1.4127301  21.6969542
  35.9305699   2.1310710  21.6697649  37.3601038   1.8085574  22.0484595
  65.4508352  39.0815997  93.1423473  64.6809483  39.0348339  92.5755024
  66.0052872  38.3567500  92.8535461  30.2795375  88.1424032  38.9954714
  30.4625571  87.8666387  38.0973105  31.1400378  88.1871186  39.4123415
  73.4323883  30.8654189  90.3164005  72.7452660  31.4174390  90.6897259
  74.2460966  31.3289142  90.5145931  84.9755478  31.7710352  83.7207413
  84.9158573  31.9115472  82.7758026  84.4156170  32.4487209  84.0995026
 107.8355569  87.6210533  42.5419955 106.9957751  87.1617685  42.5342230
 107.9607219  87.9066740  41.6370158   4.5037807  80.9373365  43.4326224
   4.3436778  80.0385652  43.7203936   3.7036575  81.1869059  42.9702811
 113.4855098  90.3815637   6.8188338 114.0406054  91.0642038   6.4418654
 113.8824529  89.5612417   6.5260176  82.5773048  57.4475765  83.0671406
  82.2640610  56.8171263  82.4185753  82.4612331  57.0043373  83.9075470
 105.7548112  85.4177247   1.1193709 106.4049548  86.0675989   0.8525233
 104.9145049  85.8656917   1.0221915  37.0243419  88.4013544  16.4186625
  36.6652644  88.2466565  15.5449538  36.2863601  88.2546054  17.0103411
  74.1960317 101.2641781  87.5065231  74.6930867 102.0722162  87.6339626
  73.8835031 101.3151669  86.6032219  23.8913901   1.1128282  41.7785220
  23.9039452   1.5047740  42.6517062  22.9619200   1.0427999  41.5607600
   7.3891700  84.8572408   0.8328108   6.9276107  85.2597223   0.0971369
   6.9805206  85.2389727   1.6096739   9.7893966 100.0712977  12.8270773
  10.0435508 100.8463345  13.3280234   8.8865722 100.2441035  12.5601058
  37.7993549  87.9631220   8.1725935  38.4050048  88.5555158   8.6181120
  37.3043597  88.5282694   7.5794463 105.9294796  21.4662290  83.9415073
 106.0390854  20.5838609  83.5870457 105.5948830  21.3284969  84.8276806
  65.9218389  93.0261182  85.8296871  66.3186532  93.0243896  84.9586201
  65.6810361  93.9400314  85.9813690 113.9674270   3.4099721  48.1710295
 114.2124760   3.9913463  48.8908820 113.6360872   2.6219796  48.6017375
  12.7953685  74.5225797  50.3344111  13.3586372  75.2925168  50.2559237
  13.3596385  73.7875484  50.0944952   7.2919715  70.4470871  20.2290682
   7.9733241  70.6112848  20.8810095   6.6394389  71.1292158  20.3875880
   9.0669883  63.0170892  39.6575312   8.6089862  63.1121628  40.4926543
   9.9414409  63.3697502  39.8224310  17.8866447  69.5971523   8.4900717
  18.7021602  69.8908625   8.8961558  17.4842418  70.3981291   8.1543116
  95.0168675  78.4158335  22.2008185  94.8568314  79.3503938  22.0695929
  95.8247012  78.2410632  21.7180209   6.0304034  98.1395303   1.5595011
   6.5488017  98.8948832   1.2821249   5.2825702  98.5187875   2.0211749
   8.1332935  96.5951930   3.8798575   7.6479018  96.2841330   3.1157450
   8.7812007  95.9107075   4.0469698   6.2886871  65.9983598   4.1995005
   6.3212169  66.9542824   4.2367320   5.4879916  65.8047543   3.7120299
  86.0600490  62.9624943  15.7498126  86.5701264  62.6816271  16.5095286
  85.1550931  62.7481513  15.9763960  89.7180176  32.7427149  86.8634415
  89.4796467  32.0969582  86.1983109  90.3094864  33.3446741  86.4117336
  11.8382991  95.5488978  47.2286372  11.0534633  95.4300366  46.6937403
  11.7742217  94.8714290  47.9018073 101.1519623  10.9130418  73.2949352
 101.4226723  10.2037644  72.7119493 100.5906296  10.4886818  73.9438200
  39.0818864  99.9209737  78.4215927  39.2937022 100.7522266  77.9968786
  39.6330482  99.9044906  79.2040157  18.9646972  74.6273778  13.7606291
  18.5952438  74.9656342  12.9449610  19.8165763  75.0576185  13.8342623
 103.2766789 107.7827035  51.6756300 103.3048600 106.9075213  52.0622782
 104.0081901 107.7955304  51.0584120   3.5378516  91.2258826  18.0700163
   4.1157974  91.9431983  18.3301405   3.9127029  90.4518543  18.4902529
  12.6715625  80.5057393  20.8254389  12.4406780  80.1737581  19.9578433
  11.9207538  81.0396324  21.0852007  14.8106731  88.1992088   0.5281405
  13.8560642  88.1981717   0.5985884  14.9992431  87.5832997  -0.1799055
 116.5648574  88.2100163   0.8598475 116.1529416  89.0730320   0.9018187
 117.5027007  88.3886371   0.9289794  28.4857524  72.4950836  15.7543139
  28.3997310  71.7263411  15.1905207  27.5872291  72.7105163  16.0042910
   6.1332763  95.7828437  45.4921202   5.2049506  95.6403504  45.3073458
   6.5525592  95.7759867  44.6316676  23.9060653 102.0128547  27.8859477
  23.1479610 102.0297013  27.3017935  23.5643829 101.6705714  28.7119727
  21.6479076  78.2014118  82.2377352  20.7462085  78.5225449  82.2314982
  21.5709651  77.2759686  82.4698214  31.4045024  17.6420212  88.2080555
  30.4520249  17.7109110  88.2734203  31.5673304  16.7114162  88.0541229
 108.9151114  96.4016877  21.8355898 108.8901061  97.1462069  21.2344985
 108.2612533  95.7935057  21.4908843  26.4661277  75.3215514  55.3854804
  26.5330566  76.2617312  55.2187018  27.2748626  74.9564503  55.0264887
  95.0527352  71.1828969  47.9557089  95.1579875  70.5911659  47.2107176
  94.6625585  71.9726072  47.5810675  66.5720797  29.2032909  86.6470146
  66.0337114  28.7745976  87.3123074  66.1631489  28.9618587  85.8159256
  14.4834102  89.2830501  14.1803412  13.7962592  89.0214358  14.7932105
  14.8158038  88.4579931  13.8267474  73.1321526   1.4645255  86.1379433
  72.8497219   0.6008169  86.4387226  72.7397394   2.0754780  86.7616272
   2.1762622 100.9593306   4.2138056   1.5370858 100.3503238   3.8439612
   2.3323787 100.6336079   5.1002364  94.0531558  76.2534676   5.4044585
  93.7210149  76.3378821   6.2982039  95.0053519  76.2497030   5.5021529
  19.1133846  79.9147425   4.4426970  18.7253726  80.7419883   4.7279124
  18.8070548  79.2730079   5.0834517  58.4237082  15.4624795  31.3289885
  59.2681009  15.2399205  30.9369521  57.8628904  15.6776332  30.5837111
  54.7167492  33.4855318  89.4084644  53.9154482  33.3751845  89.9202919
  54.4112778  33.6206937  88.5114384  23.6505950  90.3333984  16.4004187
  22.7120555  90.4876219  16.5080599  23.7149680  89.4108020  16.1536364
  69.0556765   0.9686392  89.1022778  68.8900042   0.0511308  89.3189907
  68.1843710   1.3545071  89.0119457  62.3072386  44.3570757  79.8009014
  62.4409962  44.8064470  78.9663935  61.7408705  43.6160040  79.5857859
  68.0114031  42.4962330  94.2963123  68.0343294  42.0107937  93.4716606
  67.0792437  42.5974607  94.4888210  28.2197077  12.3150586  45.8323245
  28.7371475  13.1057405  45.9849886  28.2741673  12.1719074  44.8874621
  29.5048965  87.1197329  50.4304938  29.2369521  87.9067527  50.9048705
  30.0781120  86.6557585  51.0407214  19.8024619  88.4749113   5.9245352
  19.6643317  89.0625583   6.6673808  19.1238940  88.7203084   5.2955966
  64.2612726  11.8609285   5.5924754  63.5821135  11.2041282   5.4388766
  64.6615202  11.6019916   6.4225153  96.0061282  90.8922110  39.3298392
  96.0539884  90.1389466  39.9185042  95.0978583  91.1877809  39.3924384
 114.0976590  87.9916106   5.5907206 114.1411752  88.2399140   4.6673064
 113.5444135  87.2105847   5.6029086  79.8866796  15.4433966  77.5276279
  79.5348740  14.5665252  77.3741293  79.1130877  15.9942305  77.6475096
  85.1316833  45.0468731  93.3448315  84.4462585  44.8610592  92.7030373
  85.7281685  44.3009758  93.2809639  76.5450144   9.7495544  88.1477928
  76.4767551   8.8120973  88.3287525  77.4846363   9.9082547  88.0574703
  13.4797794  11.3780832  14.7606043  13.7248261  11.9917297  14.0680651
  13.8093693  10.5317640  14.4583659  94.1241378  64.2960398  19.1236262
  94.5910043  65.1262830  19.0289359  93.4638757  64.4677590  19.7950415
 116.6767281  84.3016754  36.9640879 116.5880984  84.2866574  36.0111193
 115.8395738  83.9690457  37.2877650   3.5034240  98.4811936  26.7347006
   4.0035022  97.8310595  27.2281317   4.0810741  98.7306987  26.0133891
  31.6914541   6.8599462   4.9268012  31.8620712   6.8702411   3.9849810
  31.1769039   6.0653161   5.0683264  88.6773032 105.4281817  35.3624968
  88.3337706 106.1179267  35.9303622  88.1808013 105.5181800  34.5490984
 105.6075305  53.9147585   8.1338458 105.6701869  54.0463874   9.0798811
 104.8295230  54.4083179   7.8743605  34.3136657  89.9070202  13.8858561
  34.8335326  90.6214104  14.2541270  33.5498107  89.8462520  14.4595007
 114.0037173 105.5646716  24.7904448 113.3541173 106.1463509  24.3955950
 114.6331042 106.1548100  25.2049784  82.0529747  66.1852646  80.6958008
  81.8338776  66.1296606  79.7656727  81.5681076  66.9480610  81.0108948
  13.9230121  75.7758270   8.4240298  12.9945243  75.6383668   8.6117987
  14.3582500  75.0070260   8.7924628  67.5353384  24.9296021  82.1374321
  68.3407354  24.5140028  81.8294621  67.5370169  24.7834945  83.0834198
  17.9535735  80.5782734  51.8752722  18.4697021  80.5157362  51.0715823
  17.2972072  81.2490259  51.6868262  75.6857491  44.1366005  88.9726353
  75.3234196  43.6420012  89.7076988  75.6250763  45.0517464  89.2466068
  47.6066154  92.7764617  23.3001761  47.6765013  91.9729934  23.8157134
  46.7534852  93.1398807  23.5375075 115.6967449  45.8995485  95.0805855
 114.8248100  45.7018423  94.7387314 116.2886429  45.7054090  94.3538094
  78.2030010  32.3131204  91.8902016  78.6592245  31.6633391  92.4248695
  78.5333824  33.1552887  92.2029781  81.3496494  14.7858143  86.1568451
  80.8431149  15.4377389  86.6412544  81.3659954  14.0201700  86.7310905
  39.9034197   4.0965175   6.2157492  39.0356476   3.8527059   5.8936362
  40.5116493   3.6605930   5.6188731 109.8445338  82.6172291   2.7247958
 109.1226930  81.9938646   2.8059916 109.4327706  83.4752045   2.8275733
  46.7951930  90.2011929  -0.0040765  46.8682636  89.9846826   0.9254508
  45.9442867  89.8494492  -0.2657552  27.6439536  59.3205432   7.9534297
  28.0500663  58.5399403   7.5766520  27.9723037  59.3513463   8.8520197
  93.7259549 102.5891696  24.6841578  93.2416028 102.0048533  25.2674346
  93.1448335 103.3396350  24.5603423 113.1888455 103.7218581  13.0916743
 113.7153262 104.3185340  12.5596671 113.3479470 102.8580390  12.7112250
  71.2705564  86.2329102  94.2184162  71.0006046  86.2718964  95.1359367
  70.5574942  86.6566944  93.7407398   3.3892501  84.7234879   7.8112940
   3.2238162  85.6578551   7.6855044   4.2455257  84.5756827   7.4098353
  47.1806128  26.4085054   5.1430182  46.9810660  25.4861116   4.9829916
  47.9210264  26.3916730   5.7494215  14.1696227  98.9667331   6.5164618
  13.7912715  99.7710381   6.1612372  15.0723327  98.9657269   6.1981158
  43.8729251  96.7330752  23.6517481  43.3602775  95.9464608  23.8379340
  43.2405341  97.4495564  23.7062411  80.6159496  65.4084206  75.4021502
  80.2572441  65.0377655  76.2084866  80.8460140  66.3082266  75.6337929
  65.3414822  31.3574433  84.5477962  65.5850840  30.4735446  84.2728233
  65.4197788  31.8855524  83.7533092  70.8922863  20.8225012  75.6574297
  71.2075710  21.7177343  75.5333900  71.6769171  20.3206778  75.8782530
  17.5505144   4.0294742  33.6324267  17.6730044   3.4772491  32.8602366
  17.2991402   4.8828506  33.2791667  94.0355110  33.8137770  81.6767025
  94.8120689  34.0562987  82.1810532  93.9120865  34.5384932  81.0636902
 111.6864366  99.5314275  19.7446970 111.7101830 100.2608691  19.1253523
 112.6012868  99.3977748  19.9925189  15.7369197 107.0793877  51.2184386
  14.9504150 106.9084655  50.7003359  15.7433665 106.3871775  51.8795256
  83.5902423  92.8332530   9.5309023  84.2842597  93.3547841   9.1276888
  83.5048407  92.0678483   8.9624838   7.4379189  11.9435405   1.5570406
   8.0356581  12.3786878   2.1649794   7.9084618  11.1573648   1.2800078
 114.1349715  55.6117856  17.3170332 114.9296826  55.1250375  17.0985178
 113.6187095  55.0028239  17.8451113   9.6813423   1.9104003  29.4434695
   9.4408495   1.0620832  29.0709738  10.4095394   2.2125673  28.9006476
  91.1786556  39.5630980  78.0832672  91.0225487  38.7196875  77.6583910
  91.5266800  39.3361115  78.9455843  78.1164742   6.1501122  63.6294603
  78.4372663   6.8387014  64.2118406  78.8612747   5.5578649  63.5257959
  76.8819952  43.6138439  83.6695862  77.2890186  44.3254948  83.1755066
  76.0379124  43.9684105  83.9489460  47.3318291  61.2220669  93.0521965
  46.7430496  61.3488293  93.7961769  46.8367147  61.5414047  92.2978020
   1.2455982  39.8907161  88.6806297   1.1928791  40.4760551  89.4361687
   0.6514782  39.1709876  88.8933372 117.1272487  81.1856352   2.3937659
 117.1750945  81.1284099   1.4394717 116.2939328  80.7709823   2.6170973
  16.6653789  94.6582661  19.3479018  17.4339736  95.1577578  19.0722041
  16.4591563  94.1019927  18.5967211  42.8294068 109.2978086  85.8417511
  41.9874555 109.6689010  85.5778599  43.0922490 108.7502575  85.1019382
  58.1684446  16.3370395  58.5599327  57.2653675  16.0417163  58.4438753
  58.1575966  16.8222857  59.3849468  21.2612880  62.2632418  14.6266894
  20.5097545  62.7874414  14.3498473  22.0135463  62.6851259  14.2115359
  35.7249988  73.7524603  13.0799250  35.0439895  73.7993012  13.7509398
  35.7531036  72.8285478  12.8312735  68.2503986  31.9404554  74.8506498
  67.9202175  31.0896087  74.5620775  68.1156921  32.5172114  74.0986967
  65.3924990  33.3768463  66.5072823  65.1956129  34.1649771  67.0135641
  65.5288076  33.6936069  65.6143570 114.2478341 101.7361842  11.3506274
 114.7696036 101.6235553  10.5560832 113.4411210 101.2506686  11.1782412
  69.6046352   9.0105170  85.1168346  70.0303888   8.1539297  85.1518059
  70.3173923   9.6374542  85.2399540  12.7217925 102.6357423   0.0527529
  12.7174056 103.3252965   0.7166247  13.5119975 102.8028498  -0.4609437
   1.4642585  73.0511843  41.0320906   2.3508037  72.8173695  40.7571272
   1.0463346  73.3820592  40.2370505  75.5886215 100.2240525  33.5043578
  75.3915113 101.1558972  33.5994772  76.5448064 100.1800690  33.5064749
   3.0193771  79.3416916   5.3316073   2.3547710  80.0065361   5.5119471
   3.1915153  79.4233738   4.3935637  31.1263240  61.4231650  34.0660147
  32.0161880  61.5961067  33.7586741  30.6671012  62.2550236  33.9504389
   4.5613254  94.9386416  25.8057074   4.5024074  94.3716942  25.0367217
   3.7368167  94.7975765  26.2710242  67.1303272  34.7227764  94.0173054
  66.5016079  34.7200847  94.7390556  66.5890121  34.7052360  93.2280540
  15.7906306  86.4042412  14.0127902  16.1676849  85.8692990  13.3142905
  16.4096511  86.3218818  14.7382311  76.3971519  34.1058969  70.1074934
  76.8700790  33.3177900  70.3748131  77.0844412  34.7318316  69.8793077
 110.8879823  88.5209451  38.4923796 110.1408166  88.1194816  38.0487589
 111.0318202  87.9722915  39.2634348  68.8065952 101.1492453  20.7642226
  68.1149215 100.6206618  20.3662066  69.5614094 101.0291777  20.1879649
 109.3439216  78.3530603  40.5173163 108.4373778  78.6247407  40.6608538
 109.7969741  78.5940347  41.3253455  30.4371227  66.0689734   6.0204558
  30.1642764  65.5320845   5.2764563  29.6699012  66.0934554   6.5922980
  83.3831406  42.9751825  88.2382107  83.1734085  43.8036966  87.8071594
  82.5667000  42.7131414  88.6636448  50.9512789   5.5918311  49.2835669
  51.6621191   6.2150192  49.1333155  50.6745798   5.3279876  48.4060339
 106.4869976  50.3886127  86.7195988 106.5353203  50.0656796  85.8198166
 106.0941315  51.2579536  86.6412830 113.6691093  59.2705441  75.8574772
 113.0820274  58.6015606  75.5052996 113.9479923  59.7718811  75.0912380
  36.3034976  87.4994908  13.9255194  35.7013763  88.2024442  13.6815123
  36.2816108  86.8966280  13.1823401 113.7597531  82.3899852   9.2120318
 114.4216842  83.0310450   8.9529566 114.2431659  81.5684377   9.2992167
  20.4656012   4.1624975  38.2562785  20.1617844   3.3124971  38.5747485
  20.3906710   4.1021728  37.3039202  97.9906577  76.6409980  40.7073264
  98.0109185  76.1861406  39.8653464  98.7244433  77.2542535  40.6659750
   7.8423370  88.0545030  30.3978304   7.5935710  87.1303592  30.4152922
   8.5143531  88.1088434  29.7183661  81.3884241  11.6543197   2.0390849
  80.8506853  10.8630466   2.0700125  80.8912737  12.2604512   1.4898352
  77.1128828  14.5162343  22.1031909  77.4150259  14.8895883  21.2752108
  76.1779863  14.3608236  21.9688563  82.6117039  51.0401917  91.4904118
  82.5832558  50.4160500  90.7652378  82.0974541  50.6258869  92.1833229
  24.6493781  89.2656146  13.6276965  25.1600803  90.0749861  13.6461310
  24.2987025  89.2238842  12.7380232  88.2472897  63.0186796  94.1518593
  88.6670589  62.1881247  93.9277935  88.8161850  63.6858416  93.7678242
  13.4856857  98.2430611  24.2107825  13.2768882  97.3391829  24.4466643
  13.0341209  98.3838521  23.3786253  76.5983963  41.1692333  84.6673012
  76.7874146  42.0054388  84.2415524  77.4169588  40.6772566  84.6029186
  78.2013893  45.9547043  91.4071465  78.8767195  46.2625504  92.0116234
  77.4874783  45.6629038  91.9740772 104.5775604  73.4224939  75.1053619
 105.4409122  73.0407143  74.9469233 104.0000248  72.9730177  74.4883919
 105.9884262  37.6553798  88.3443451 106.1965656  36.8169403  87.9321194
 105.6546211  37.4202943  89.2101002   6.4374030 108.1984959   3.8717608
   6.3958324 108.0397950   4.8148016   7.3457683 108.4544335   3.7117629
  36.2517626  14.1412401  25.3148226  36.4105971  15.0745248  25.4561953
  37.1250660  13.7498187  25.2959494  41.6335661  29.7391080  17.8574042
  42.2406275  29.7892236  18.5957770  41.5721781  30.6387567  17.5363211
  20.5103744 102.9528914   9.2716078  20.1563132 102.1415339   9.6357207
  21.4493907 102.7876626   9.1868739  24.5079864 102.7770577  36.4935832
  23.6757148 102.6088963  36.9354872  24.2643703 103.2408057  35.6924490
  97.6168221  50.7046105   8.4751181  97.0265168  50.2317558   9.0617899
  97.6794261  51.5813939   8.8540225 102.7289599  75.5773102   5.0776534
 103.4905690  75.0083445   4.9660067 103.0997104  76.4407335   5.2600722
   2.5262035  42.7349709   7.2870211   2.0895351  43.1466494   6.5413146
   3.2440246  42.2351812   6.8982081  99.4925213  73.5005379  70.5630255
 100.4491425  73.4673977  70.5629349  99.2843056  74.4075680  70.7870245
  12.8228915  98.2166873  27.3601775  12.0111335  98.4956275  27.7838187
  13.1711066  99.0140734  26.9612269   9.0865368  61.7171717  85.8351421
   8.7592835  61.0929203  85.1874924   8.9382119  62.5750160  85.4372215
  92.1934670  92.0513640   0.7210974  91.8846435  91.7558752   1.5775733
  91.9351214  91.3531981   0.1193861  17.8847564 101.9348679  31.7354922
  18.4460510 102.6723586  31.9748549  17.1328796 102.0053445  32.3236613
  20.5851997  80.2584658  53.1552367  19.8002399  80.5207692  52.6743369
  21.1603606  81.0222374  53.1097369  84.0728855  59.4576454  87.7064514
  84.9051189  58.9926529  87.6204777  84.3210030  60.3772831  87.8009892
  21.0877956  98.7288485  12.4552111  20.7647861  98.4881221  13.3235125
  21.6994251  98.0295144  12.2248225  97.1022224  82.6168633  75.1729488
  97.4247837  82.7960968  74.2897320  96.3679028  82.0168686  75.0425816
  17.7077544 105.1683007  10.4517416  18.5587943 105.3353272  10.8567862
  17.2486270 104.6110783  11.0801844   0.9355844  89.2648683  23.5089163
   1.1131967  88.3828388  23.1822543   0.1654018  89.1626344  24.0680270
 115.9570044 107.4135314  23.1295924 116.8310517 107.6365529  22.8093867
 115.9260100 106.4574538  23.0950694  60.6989825  75.1118301  26.2146334
  60.4485191  74.8258291  27.0930914  61.6357291  74.9229549  26.1592440
  22.3300231  71.4159869   3.4948687  21.4130176  71.6097008   3.3004336
  22.6037276  70.8244835   2.7938418  25.4955638  75.6631909  65.0205378
  25.3126205  75.9165941  64.1157965  26.3050521  76.1247264  65.2395205
  45.9520114  79.1348062  43.2469325  46.8100417  79.5225440  43.4192328
  45.8796466  79.1278182  42.2924952  18.4247459  84.9551998   2.1868758
  18.2471431  84.9066196   1.2475543  19.1458953  85.5800901   2.2622828
  38.4552508 108.7147073  92.8494167  38.3732921 109.2562221  92.0643806
  37.5524360 108.5288965  93.1075382  74.7017431  59.9223280  91.4408207
  75.0729227  59.3194008  90.7966614  74.3461037  60.6414557  90.9187031
  21.4178622 107.9731761   3.6374430  21.1241592 107.1498881   3.2473425
  22.3725188 107.9047452   3.6508135  41.4343722  -0.1775552  30.9733157
  42.3756964  -0.0547505  31.0960059  41.1050589   0.6950187  30.7579093
  63.1698591   2.7533006  13.4034972  62.6250631   3.2212972  12.7707152
  64.0681059   2.9394483  13.1301360  43.1884254  99.7445975  14.8720889
  43.3734763  98.8059340  14.8421244  42.3610366  99.8407803  14.4005064
 115.0185794 108.6018859  17.5364642 114.7147960 109.0241824  18.3399634
 115.9239119 108.3538495  17.7237753  10.2188647 101.8517028  19.1066126
   9.3002189 101.7175446  18.8735346  10.6692851 101.0825501  18.7576727
  67.0557196   0.2717637  19.2819361  66.6868956   1.0673522  19.6656470
  66.3325960  -0.3553391  19.2896132  64.7987349  10.9590148   8.7794261
  65.1975805  11.8264102   8.7102942  65.0349886  10.6559467   9.6561007
   5.2012027  88.9718686  42.3392729   5.3326667  89.5031033  41.5539412
   4.7075713  88.2108055  42.0337443  33.1269992 107.4928342  10.7702593
  32.2742522 107.3511182  11.1813311  33.1319297 108.4227429  10.5433611
  29.9834091  24.5920038   9.1159300  29.9006350  24.7314119  10.0593047
  30.2283699  25.4493093   8.7677149  83.3713913  40.4429960  83.9018726
  84.1071415  40.9708500  83.5915852  83.4059620  40.5209064  84.8552704
 113.0230445  88.8000189   9.9204783 113.7008113  89.3032871   9.4692759
 112.3927182  88.5787450   9.2349486 104.9584103  39.6629167  80.5113411
 104.6913433  39.8340559  81.4144611 105.8474541  40.0129890  80.4540539
   0.8493674 106.6247712  20.2336936   0.3282846 106.0092603  20.7492976
   0.5399526 107.4883042  20.5071978  46.6768820   4.9637031  22.6628069
  47.2368033   4.2215442  22.8906683  46.5116293   4.8602056  21.7256693
 108.0678272  35.0432634  89.8395729 108.6556244  35.7144928  90.1862431
 108.6010456  34.2488027  89.8124027 107.8436202 107.0793734   6.3538508
 108.3630532 106.9088755   7.1395640 107.3499841 107.8729735   6.5606074
   8.7600864  59.8592518  39.7732691   8.7860168  59.8637961  40.7301001
   9.4738162  60.4409157  39.5115618  48.6007864   0.2931833  80.5842165
  48.5525400   1.2476491  80.6380610  49.4955523   0.0831270  80.8516078
 103.8686752  44.6638823  89.9966240 103.3388329  44.6669102  90.7938004
 103.2443237  44.8423386  89.2933750  88.4092522  22.1726799  95.4944992
  88.4055996  21.2174678  95.5560398  87.7590084  22.3717833  94.8208809
  14.9860317   0.8593702  44.5594363  15.2212746   1.7101859  44.9295764
  15.2330286   0.2277564  45.2349333   7.1260876  39.3533134  73.4930277
   6.2191433  39.5160985  73.7522554   7.3400826  38.5081053  73.8880730
 105.8320236  32.5732255  91.6802216 106.5675163  32.0243859  91.4080715
 105.9720612  32.7142954  92.6165581  66.9283945   4.4964694  30.4438452
  66.8238051   4.0584802  29.5991854  67.2689802   5.3634738  30.2235274
  21.4894659   0.4424190  15.6451659  21.7832596  -0.3493643  16.0957198
  21.0916550   0.1234006  14.8351054  56.7449362   7.0917892  22.4368910
  56.6113073   6.1544894  22.2960429  57.6926214   7.2107457  22.3738532
  80.0541973  59.0461874  73.8531494  80.7690430  58.5659313  74.2709780
  79.4818354  58.3648062  73.5005045  24.7442610  34.1960096  32.5918250
  25.1863367  33.7478303  31.8707613  23.8242705  33.9483022  32.4997000
 113.5276794  85.0015736  94.1556358 113.2726860  85.2025509  93.2551861
 113.2201004  85.7515430  94.6647358   9.3259758   2.7539283  87.3205948
  10.0839562   2.2827393  86.9746494   9.6740193   3.2627422  88.0528545
  72.5416453   0.2519416   5.7652621  71.6462977   0.0123643   5.5261092
  73.0659086   0.0124740   5.0010447  18.2008327  97.5606929  14.4013361
  18.1280673  96.6435014  14.6653418  17.4431861  97.7077876  13.8351397
  37.2938026  76.9419418  32.8028731  38.2067931  76.6820679  32.6798491
  36.8138755  76.4553176  32.1327261  48.3584083 102.6590977  39.5824866
  48.2410014 102.6963149  40.5317263  48.5197032 103.5668908  39.3253283
  31.5474857 102.7565966  60.9035544  31.1135162 103.5017453  60.4880290
  32.4330486 103.0685387  61.0898356   4.5947707 102.2763167   0.0789790
   4.5705856 101.7234193  -0.7020135   4.4975723 101.6644965   0.8086733
 102.9210091  49.9227190  95.1989174 103.5405922  50.6004906  95.4690552
 103.4721279  49.1867495  94.9327374  67.0239067  64.5265818  95.4539680
  67.0437860  63.5779476  95.5801678  66.3907909  64.6611786  94.7487831
  82.9405499  23.4470201  76.9671822  82.3732376  22.7256775  77.2393084
  83.8274860  23.0941319  77.0383072  45.5250037  97.0417319  35.1516013
  46.3022483  96.4832841  35.1675086  45.7751716  97.7848016  34.6025137
 112.6046199  75.3069530  46.8259863 112.6272363  75.2884684  45.8692317
 112.2245616  76.1589633  47.0401625  29.2476333  80.5839859   0.0585036
  29.0145744  80.5529605   0.9863810  30.0851978  81.0468732   0.0372748
  96.8443555  91.9829856  15.6500010  96.3435382  91.3688455  16.1868815
  96.1968202  92.6195036  15.3470568 113.6755628 106.0799704   4.6612601
 112.8441352 106.3163386   4.2500548 114.3198937 106.6526423   4.2451815
  98.0985338  28.5319089   7.4817900  98.4737475  29.3320798   7.8494505
  97.7505953  28.7994050   6.6311316  16.8424065  20.5079459  20.1869158
  17.4514849  19.8260927  20.4703478  17.4021036  21.2525176  19.9665026
  12.4049456  11.4833879  11.2130599  12.7563889  10.6356572  10.9408907
  13.1570465  11.9476413  11.5805487  32.3756564  99.3305741   4.1924052
  31.5758479  99.3782292   3.6686949  32.5176395  98.3937417   4.3280844
  23.0728114  96.4952670  19.2430548  23.8350261  96.9069634  19.6502070
  23.3746207  96.2424956  18.3705668 113.3660144  75.2228795   4.8405413
 113.4784144  75.2336536   5.7910494 112.4249906  75.3389917   4.7093062
 117.0641232  77.9325294  69.4773865 116.3755703  77.5463724  70.0186920
 116.6771030  78.7390900  69.1369390  68.4937174   8.9051580  11.6979651
  68.5572989   8.6243247  12.6108317  68.9293654   8.2112741  11.2030177
  48.3816416   6.0771179  12.9273085  49.3315870   5.9945964  12.8434233
  48.1183512   5.3090572  13.4342532  24.9314100   7.7517223  38.2916407
  24.1855414   7.1582126  38.2041411  24.5379812   8.6207008  38.3711962
  86.1250019  16.6301417  74.7221041  85.8843231  17.3755825  75.2722168
  85.3020477  16.3551617  74.3179226  67.1444702  51.7040300  81.0959911
  67.9994297  51.6063023  81.5151882  67.0142603  52.6503897  81.0352802
  28.9945567  64.3911873  14.6065287  29.8304237  64.6743242  14.2358641
  29.2369903  63.8240658  15.3385405  98.3311939  58.0977440  91.3337135
  98.1798458  58.6574888  90.5721378  99.0955162  57.5724649  91.0967922
  18.1111301 106.8963061  23.6601595  17.3672927 106.8489753  24.2607550
  18.8805068 106.8607531  24.2285113  49.8584349  21.1545800  42.5790934
  50.7236082  20.9956741  42.2016577  50.0129492  21.7998504  43.2690100
  54.0976317  15.0598811  10.5948500  54.5353586  14.2539310  10.3208594
  53.3776934  14.7639512  11.1519293 110.2927083  62.2609965   3.7016539
 109.3476504  62.1324764   3.6205439 110.4976577  62.9420553   3.0610423
  37.6356567  98.8568936  29.3487410  37.7154506  98.5553418  30.2536921
  37.6276363  98.0535184  28.8283972  24.1323531  99.4860850  42.8538947
  24.5264686  99.9234067  42.0991377  24.7868694  99.5689307  43.5474162
  93.3283329  55.2331829  91.3167763  94.1259003  54.7046757  91.3449478
  92.7942657  54.8247004  90.6354904  83.3963490   5.2689767  79.2345190
  83.3420849   4.7949958  80.0643539  82.7857780   5.9992170  79.3354130
  81.2138367  85.3711700  91.5141964  81.2842655  85.3656864  90.5596066
  81.9479084  84.8336601  91.8116093  90.8395004  76.4566660  90.5766392
  90.4808331  75.6266451  90.2625465  91.6317272  76.2099504  91.0538673
  92.9830742  27.9591608  82.1665764  92.8045559  27.6657701  83.0600452
  92.1211052  28.1671405  81.8060493 116.6904563  97.0737706  18.1014971
 117.3436421  96.6609679  17.5365405 116.1741990  96.3439618  18.4436755
  78.5226233  36.7106199   6.4777045  78.3844454  36.8858289   7.4085383
  79.2508680  37.2812127   6.2321143  11.1004872  90.6342506  62.7694464
  11.5252251  91.4215755  63.1099653  11.5957207  89.9102116  63.1525183
  35.8925975  68.0516134  17.7020506  35.1162780  68.1921695  17.1600298
  36.4715255  68.7824474  17.4853568   8.0155147  64.0720181  11.9300417
   7.7861274  63.1560127  12.0867304   7.1736396  64.5251088  11.8832068
  22.9984344  92.1542106  26.9876627  23.3195270  92.5520740  27.7968840
  22.5245822  92.8588806  26.5459208  48.6991675   0.6802987  27.3988680
  48.6425097  -0.2220631  27.0846037  49.3572409   0.6511735  28.0933718
  95.8543652 103.4644852   3.6395697  96.7596692 103.1753312   3.5253577
  95.6049746 103.8143788   2.7842192 114.3115252  50.7099189  21.3481287
 114.4444293  50.5924322  22.2887473 114.4829101  49.8464207  20.9723238
  26.6812671 101.6037045  11.1941199  26.0347141 102.3049889  11.1141448
  27.0299781 101.4973508  10.3090624 115.9384173 102.4799739   7.3037104
 116.4907330 102.8655396   7.9838042 115.3586167 103.1921349   7.0337348
  10.5904544 106.8424474   5.2417140  11.5025771 107.1294175   5.1980452
  10.4285014 106.7002164   6.1743407  16.8177379 107.4525605  48.5502581
  15.8665050 107.4626265  48.4440760  16.9539989 107.2076712  49.4655089
  65.9658034  16.5754937  14.8428587  66.2554438  17.4876212  14.8239188
  66.3234026  16.1939430  14.0411238   5.6186259  97.5503455  30.7250456
   5.5285323  96.7566739  31.2524848   6.2694228  98.0751286  31.1912016
 112.6125831  95.5879222  33.0728869 112.9113406  94.7987901  33.5248236
 112.8708762  96.3066731  33.6498694  33.1875784  24.3599748  23.3233122
  32.3936541  24.0444040  22.8916411  33.0554945  25.3043126  23.4069876
  23.6501373  87.6484762  44.6711497  24.1678298  87.3509894  45.4192976
  22.9326499  88.1486617  45.0600771  18.8826639  16.8515729  15.5193476
  19.0980417  16.8355130  16.4518599  18.0743010  16.3434696  15.4514460
  14.5862145  66.5652275  80.7641888  13.7728352  66.8268776  80.3327084
  14.4959969  65.6210423  80.8930397  38.2790024   2.5326871   1.0623316
  38.7443621   1.6962861   1.0729746  37.4249012   2.3267507   0.6824259
  84.4246101  28.9385509  91.7645931  84.7054195  28.2135105  91.2063026
  84.5957661  28.6346483  92.6559925 101.1851692  68.3768940  86.5223312
 100.4650974  68.0720282  85.9702587 101.9307899  67.8349209  86.2643719
   2.0270980 109.3375836  36.7960314   1.2090743 109.1172372  36.3504843
   2.1285785 108.6566315  37.4610476  76.9758272  25.3591442  79.2501831
  77.8801775  25.3112793  79.5601559  77.0358467  25.8023643  78.4039068
  49.2849428   1.0082101  51.8940215  49.0052492   1.7239332  52.4647574
  50.2252085   0.9276485  52.0541243  14.8559917 106.0027514  21.8084864
  15.0161803 106.4745961  22.6257567  14.5773090 106.6796790  21.1917738
 116.3541985  87.8214550  88.4617805 116.7176723  88.1645775  87.6454544
 116.3592911  86.8713570  88.3455467  99.0847397  30.1717067  93.5842037
  98.7155056  31.0525632  93.5210419 100.0255680  30.3133321  93.6891556
  16.9656224  41.8434763  93.1618023  17.8232617  42.2494078  93.2879066
  16.7325253  41.5028858  94.0254593  25.1932109  96.5215121  14.4512133
  26.1019958  96.7940436  14.5779948  25.2496207  95.7616864  13.8718085
  13.0460990 109.3655549   3.3636813  13.5287727 109.8155843   2.6703314
  12.3707641 109.9897252   3.6293368  42.1117766  42.4364995   3.1299357
  41.3492949  42.8702401   2.7468829  42.7529890  42.4080037   2.4198107
  29.3905700 103.1138240  19.0695624  30.3050674 103.3381186  18.8974719
  28.9699901 103.1472407  18.2103686 104.9692917  56.0528708  65.2982855
 105.1795197  55.1289892  65.1623392 104.5904922  56.3372231  64.4664860
  25.6875403  19.9629640  23.6795764  26.6199667  19.9029540  23.4717135
  25.5633862  20.8683967  23.9642004  75.4564667  54.6818399  94.3372345
  75.8228397  54.9730301  93.5022449  74.9751139  55.4413128  94.6654510
  39.5188601  44.1901826  32.5743060  40.0809652  43.9292859  31.8447737
  40.1014597  44.6636533  33.1681304  87.6064093   6.1911201   5.3233580
  87.3050005   5.5065822   5.9206824  87.5633890   5.7882499   4.4561343
  78.2095701  43.2531022  26.1194758  78.4260733  43.9858102  25.5428557
  78.8381464  43.3201265  26.8382506  83.2635576  20.2963828   9.1661314
  83.2285387  20.0368833   8.2454447  82.3544771  20.4895114   9.3952899
  48.9514697  70.3071438  43.9772944  49.1730369  69.6135281  44.5986132
  49.2689384  71.1097656  44.3911032  92.7718813   8.2682895   9.8752455
  93.4601576   8.8633918  10.1725153  93.2410032   7.4877309   9.5804743
  46.2195761  10.7327937  51.6192584  46.7126543   9.9131774  51.6557650
  46.6168863  11.2816428  52.2953848  45.4530222  20.7616042  36.6696028
  44.6121390  20.8701944  37.1138720  45.3588755  19.9479770  36.1742453
  46.5620596  30.4858350  12.9013590  46.0751612  30.5238866  12.0781188
  47.1979696  29.7823381  12.7712206  35.3281195  15.6751346  35.0406603
  34.5303709  15.3388452  35.4490046  35.1956207  16.6222619  35.0003676
  20.8332694  97.4727212  17.8632979  20.6944335  98.3390723  18.2459120
  21.7223895  97.2345744  18.1259493  61.8885119   7.4894618  45.5476622
  61.1703379   8.0929660  45.3572993  62.6424963   7.8628682  45.0912528
  96.8262959  39.5031834  62.9645538  96.6449547  40.0523281  62.2018051
  97.7191925  39.1875029  62.8255606  83.7868386  77.4252163  93.9438915
  83.7161141  77.9726254  94.7259235  83.1305200  76.7401325  94.0709209
 104.8978979   2.8284787  60.2707819 104.3008597   2.3127364  60.8128027
 104.9507887   3.6760091  60.7125144  84.0233231  85.8361053  78.5553885
  83.3774090  86.3447189  78.0651331  84.8502922  86.2958145  78.4104061
  46.7817766  32.3401212  14.8906378  47.4407179  31.8405580  15.3727774
  46.5694315  31.7907285  14.1361098  95.5942518   9.5100831  16.0393767
  96.3306124   8.9687681  15.7547907  94.8468668   9.1786289  15.5415968
 108.4436512  93.0340767  73.1484270 107.5375652  93.2611370  72.9394197
 108.9662075  93.7042999  72.7080107  75.7688791  14.9879693  27.2067599
  75.5637438  15.0288343  28.1408267  76.4874537  15.6098127  27.0919280
  15.9241146  69.9905872  53.8379288  16.6546864  70.6081295  53.8042402
  15.1547760  70.5177355  53.6223841  62.5940800  63.7208319  91.8379784
  63.1718683  64.2317390  92.4048710  62.5109482  62.8758144  92.2798729
   2.3870690  39.0979337  11.2708716   1.6121418  39.3877172  10.7894663
   2.2373993  38.1654405  11.4267115 103.2624149  46.5252733  86.2742710
 103.0130291  47.1008348  85.5512428 104.2172909  46.4796352  86.2256622
 112.2492188 109.5180236  31.4105658 112.0320100 110.2491437  30.8321909
 112.7409953 108.9120780  30.8562903  49.2512877   9.8582219  59.0836386
  48.3105070   9.8255777  58.9101557  49.3322069   9.6291160  60.0094847
  24.6679146  12.8933858  53.1402068  23.9902384  12.2875022  52.8403811
  24.6323187  12.8390025  54.0951972   7.5274700  30.3934073  82.5141430
   8.3925385  30.0572348  82.2798920   7.6838440  31.3043547  82.7630424
  80.3270132   5.9174346   4.1763072  80.7851774   5.0957917   4.3529944
  80.2985365   5.9752082   3.2212691  11.1059613  67.0869303  64.3122101
  11.1024899  66.3378763  64.9081469  10.5189080  67.7220392  64.7223806
  66.8251021   9.6951627  20.7682375  67.7787382   9.6935319  20.6857638
  66.6562731  10.1620769  21.5865950  59.0344126  35.2731466  36.6868166
  59.5573980  36.0431814  36.9098811  58.4337027  35.1696157  37.4248271
 110.9402466  46.6876554  86.2037659 111.6579914  46.1391544  85.8871937
 110.7094765  46.3130331  87.0538425  58.8716013  42.9156827  11.9311289
  58.5842116  42.8384065  12.8408865  59.5538027  42.2507047  11.8381552
  41.0259307  89.4688760  16.3520865  41.8954814  89.1693388  16.6173701
  41.1815131  90.3159152  15.9342913  29.5709545  48.6620569   9.6099333
  29.9452908  49.1648626   8.8865428  28.6328394  48.6339044   9.4218401
  90.7163126  15.1296758  35.6912665  91.2196333  14.3180608  35.6266455
  89.8070032  14.8582172  35.5659728  85.1721954  69.6678734  75.6722355
  84.7470570  70.0448036  76.4425707  84.7795582  70.1301765  74.9317312
 100.9669876  84.2508888  62.4393797 101.1635399  83.8081646  61.6137981
 100.0115108  84.2395878  62.4956608  47.2244246  11.7742156  11.5020899
  46.6434080  11.0167789  11.4318232  47.0060808  12.3148059  10.7429366
  81.7933828  11.9751214  44.7241930  82.5258143  11.3595247  44.7529368
  81.6892321  12.2659301  45.6301741  85.4026396  17.5946664  61.4315466
  86.2127478  18.0467939  61.1958746  84.9458487  18.2067823  62.0085101
  41.6901458 106.9902001   2.2421507  40.9514583 107.2575913   1.6952662
  41.9904865 107.8012715   2.6522593  98.0401516  35.8974242  59.3366051
  97.4621773  35.8904099  58.5736322  98.0461979  34.9898863  59.6408558
 116.6331100  49.2405128  70.9023476 115.8732700  48.7167406  70.6483221
 116.2847710  49.8845577  71.5188646  41.0123504  95.5662690  16.4869837
  41.5439571  95.5149136  17.2813277  40.2715266  94.9843226  16.6565184
  70.3066141  16.8658590  23.0382971  69.4949228  17.1101283  22.5936274
  70.9623987  16.8381357  22.3415904  72.1087820  18.9784335   6.0064559
  72.4054701  18.1506871   5.6282477  71.2678415  18.7684106   6.4125971
  59.4540960  25.0686788  50.4562239  59.3318445  24.3446111  51.0702376
  58.7261183  24.9858712  49.8402552 107.3764801  86.9520760  74.1350555
 107.6716232  87.8573227  74.0368795 107.6342297  86.5261173  73.3175230
  42.4063856  13.3281230   4.8929839  41.8094713  12.8161859   4.3472342
  41.8645556  14.0359496   5.2417330 116.0926723  91.1303806  81.0421562
 115.5047989  91.4039135  81.7463112 115.6049442  90.4540634  80.5721092
  93.6284351 102.6237106  67.2327852  93.3105850 102.4293232  66.3510752
  92.9522324 102.2747993  67.8135014  23.1985725  89.3411742  30.1636843
  22.4000610  89.1011844  29.6935706  23.4552062  88.5418378  30.6234984
 110.4056835  39.0782714  90.5705738 110.6102467  38.1431842  90.5688095
 109.4497871  39.1143990  90.5362034  24.2759497  37.1104287  32.5030188
  24.2998440  36.1535978  32.5145392  24.2890770  37.3391675  31.5736441
  32.4402470  63.4578276  75.6144142  32.7863354  62.9824829  76.3697290
  33.0055088  63.1965733  74.8874664  58.0867846  13.2514476  27.3046069
  58.8353140  12.8979587  26.8240027  58.4478361  13.5128497  28.1516890
  55.5460341   7.5456476   1.1045508  55.1931841   8.2394552   0.5474619
  55.1737005   6.7392825   0.7476573  86.6887362   0.5771064  23.4192137
  85.8214361   0.9322547  23.2245783  86.9503386   1.0144710  24.2294745
  34.5253784  11.0099983  32.8079085  33.6083395  11.1038923  32.5501208
  34.5685036  10.1527499  33.2315783  42.1182806  31.9098520  11.7120223
  42.7654726  32.4248838  11.2302451  41.3096029  32.4174737  11.6442256
 116.8513775  97.6384926  88.1815529 116.7724419  97.9398823  89.0866375
 116.5825272  96.7202854  88.2105637  77.5418837  17.1886777  29.1549448
  77.6180823  16.9536399  28.2301764  77.4942476  18.1446885  29.1559462
  71.1667425  24.2081498  15.9033732  70.8815748  24.7599077  15.1750330
  71.6590483  23.4996938  15.4886965  50.5458052  26.7839002  15.5583052
  50.5831320  27.6844358  15.2359919  51.1561091  26.7678785  16.2955336
 103.3957958  67.7068377  94.1943741 103.1065083  67.3447084  93.3568764
 103.3607864  66.9666338  94.8002720  99.6447659  23.5311484  78.9237452
  99.3514538  23.9806318  79.7163105  99.4294357  22.6110888  79.0765810
  16.7691768  95.9107743  24.2713313  16.6525043  95.2159558  23.6233763
  15.8786166  96.1761246  24.5009570  48.7594492  15.1346969   4.7682719
  49.1645414  15.9516763   4.4772582  47.9452688  15.4082679   5.1907496
  34.8689712  88.9247762  18.1263117  34.2198623  89.3517028  17.5671820
  34.3672717  88.2826148  18.6284594 110.9475517  74.5156765  90.1372719
 111.6782665  74.5278597  90.7554340 110.7618999  75.4392576  89.9676514
  16.2361778  96.7032157  31.3565402  16.1710132  97.6567851  31.4084582
  15.7278121  96.3873826  32.1035723  55.3283293   7.7125501  20.1911311
  55.8192427   7.7177381  21.0128455  55.2636606   8.6352824  19.9449305
   5.0282443 109.5231686  31.1007933   5.4053081 108.7015210  30.7862429
   5.7102454 110.1758490  30.9423213  33.0829013  77.5122629  24.0835051
  33.3966125  77.8749858  23.2551054  33.7828124  76.9245253  24.3679575
 106.5906590 100.4686509  14.4634680 107.3724622 100.1232110  14.0325598
 106.2128848 101.0736523  13.8251166  74.9145109  33.7140035  53.2367186
  75.6601126  33.2887792  52.8130488  74.1468413  33.2995843  52.8427939
  95.6328106  77.4793863  87.3868370  95.0815010  77.9279947  86.7457104
  95.0486660  76.8457413  87.8033638  83.3076651  16.1509609  32.0944075
  82.8035147  16.6975879  31.4916949  82.6546271  15.7910728  32.6946311
  18.4166283  82.7358627  87.9399014  18.6042733  83.5834980  87.5367451
  18.6055512  82.8655910  88.8692570  41.8601937  63.0630636  91.7974186
  41.8582291  63.5062408  92.6458359  42.1632428  62.1760321  91.9912434
   0.9717429  94.5102106  36.7895369   1.3630546  93.6428343  36.6858058
   0.2155555  94.5035587  36.2027125  78.2752401  57.8903817  24.9816565
  78.3758623  58.3758497  25.8004527  78.1865866  58.5676050  24.3110327
  47.8634722  47.3860406  28.9017539  47.5664885  46.8580102  28.1606631
  47.3972113  48.2165288  28.8062243  92.0588779  10.5586362  70.9539795
  91.5875626  10.7507384  71.7646503  91.7817783  11.2452698  70.3473663
  68.9459801  35.6345105  85.4124451  69.2261410  35.6265020  86.3276863
  69.5210743  36.2735009  84.9915028  89.6006745  52.7471861  18.3952288
  90.5204600  52.5083916  18.5101370  89.5961970  53.3215803  17.6295332
 106.6085815  16.5380466  78.5913324 106.0640430  16.1948943  77.8828478
 106.0666847  17.2090697  79.0064240   7.8731090  92.8040575  77.4356937
   8.2412797  92.5243031  76.5975904   7.2497159  93.4929632  77.2054386
  73.8426590  32.8106308  93.9745998  74.5301056  32.7286458  94.6356010
  73.7112474  31.9184232  93.6537743  32.4860347  67.1089898  11.5607600
  33.0688441  66.7691813  12.2397952  32.7205909  68.0338798  11.4846472
  63.4461164   7.6070797  86.6891670  62.7118063   7.6682884  86.0782051
  64.1791201   7.3044646  86.1531067  33.3660012 108.8615092  86.2055111
  32.4456769 109.1228239  86.2362385  33.5699206 108.5968610  87.1025085
  73.9075184  15.5697739  66.1930990  73.1136990  15.0370872  66.1449051
  74.0605259  15.6873214  67.1306467  24.7829848 102.4594729  60.5593824
  24.3589192 101.7872279  60.0260067  25.4444438 102.8411316  59.9822855
  30.7115234  62.0476840   4.0705828  30.7613338  61.1480127   4.3936114
  30.5040324  61.9570993   3.1405501  43.9156389  18.1377673  92.8016949
  44.6222639  17.9585731  92.1813774  43.5401249  18.9664304  92.5041389
  80.5328941   6.2169522  74.9420547  79.8888683   5.8305609  74.3486214
  80.1905823   7.0906496  75.1310110  97.7423668  29.7953725  89.2300987
  98.5871506  29.4566631  88.9337158  97.7949238  29.7673392  90.1854515
  50.5164862   8.4687990  93.2929611  50.8556509   7.6714909  93.6997795
  49.9341059   8.8452607  93.9527702  43.3159047 108.3286410  78.3012581
  43.1204301 109.2556312  78.4380436  44.2605191 108.3030283  78.1487036
  46.1784029  12.9310453  82.3367977  46.0489035  12.5068009  83.1850243
  45.7159996  13.7656426  82.4133492  79.2067194  25.3304815  51.2699938
  79.5138264  25.9213924  51.9575548  78.4517717  25.7786250  50.8886051
  29.0539056 107.1158015  59.3425560  28.9366180 108.0573483  59.2162037
  28.6796361 106.9415768  60.2061510   9.0256656  57.7082716   8.7004714
   8.4312022  57.0145832   8.4147505   9.7480739  57.2450453   9.1244654
  48.9748240  15.6843030  66.1340046  49.2645597  16.5450847  65.8317804
  48.0619240  15.6262636  65.8520937  77.2529507   2.9979903  59.5564938
  78.1564140   3.0951247  59.2555809  76.8699980   3.8687199  59.4496775
 106.8562603  13.2639301  88.5808182 106.2852955  13.9683998  88.2743073
 107.4811268  13.6977398  89.1618347  67.7751541   8.1564456  67.9698133
  67.5694132   9.0889090  68.0362606  68.1519270   7.9330665  68.8209152
 101.1103535  36.4119959  92.3987484 100.6859875  35.5540085  92.3961449
 101.9159126  36.2822890  91.8982601  72.6510477   5.3010571  75.6589413
  73.1881523   5.1492709  74.8813105  72.2552919   4.4499320  75.8465481
  30.9340156  97.5906382  16.4915995  31.0607112  97.7859507  15.5631403
  30.6350196  96.6814576  16.5064673   9.4382649 105.2295153  89.8341274
   9.2826110 105.4463851  90.7533455   8.6725122 105.5731850  89.3739700
  99.0635109  16.5132082  85.3346157  98.2756329  16.5181363  84.7910690
  99.6501923  15.8939457  84.9003887  49.2728883 103.5378872  92.1817207
  49.7507268 103.1151717  92.8953171  49.5720368 103.0862164  91.3925838
  97.9185009  24.4702291  60.4001427  97.9423046  25.3423476  60.0063467
  98.1049347  23.8745713  59.6744251  69.9642563  16.5058970  71.4534521
  69.4139481  16.9851506  70.8340073  69.4598532  15.7199967  71.6636276
  70.3624898  93.3340262  85.2619648  70.0733834  93.0615114  86.1328125
  69.6072656  93.7901627  84.8907280  73.2078695   2.8547227  68.6973667
  73.6892891   2.4876304  67.9559422  72.4132729   2.3239654  68.7534285
  84.4595593  64.4909136  12.7088885  85.4017657  64.3838583  12.8393225
  84.1133183  63.5985981  12.7199606  61.4806509  24.1471863  74.0554857
  62.0513821  23.4472227  73.7383842  61.6736364  24.2082429  74.9910402
  93.9727306  25.4816937  93.5881138  93.0226326  25.5421424  93.6876488
  94.1889954  24.5980310  93.8857746 114.3201083  47.7472798   3.1856780
 113.6874360  48.2459269   2.6686530 115.0299806  47.5534575   2.5735144
  32.0125831  61.0821442  12.6475100  31.1180461  60.7419579  12.6301150
  32.4598087  60.5465422  13.3027606  61.4742899  34.4168854  70.6450796
  60.7884741  33.9139295  70.2058506  61.1269379  35.3077412  70.6892920
  62.5180894 108.9540630  79.6626472  62.8310948 108.8150858  80.5564880
  61.6622907 108.5259443  79.6392775 104.2145223  65.1192610  15.6243186
 103.3419293  65.4541753  15.8308272 104.1512650  64.1762994  15.7761530
 107.9822558  37.9765962  17.6095919 107.8035182  38.0323075  18.5483031
 107.8002948  37.0641146  17.3848681 103.2295197  80.7576929   7.7042632
 103.8303107  81.3604008   8.1424670 102.3817176  81.2010942   7.7335791
 110.8511752  41.5619968  44.9750189 110.4298085  42.3210643  44.5719103
 111.7508763  41.5863560  44.6491580  89.9718857   3.4668475  95.2676582
  90.3774166   3.5656628  94.4062614  89.2990303   2.7980560  95.1403141
  94.2655087  22.8883886  75.8414030  94.4238472  22.5427103  76.7198515
  95.0624371  22.6788640  75.3543282 104.3059063   7.2726965  72.5087833
 104.5815086   6.3560641  72.5010300 104.8375797   7.6768661  73.1944942
  -0.0032669  52.4265051  59.7730827  -0.3799205  52.7842045  58.9690876
   0.8011383  51.9927692  59.4884157  81.5204620  22.8287458  65.4615641
  80.5735111  22.8982949  65.5827045  81.7293262  23.5027528  64.8147869
   3.0380119  65.7899593  21.9585185   3.6203922  65.2730964  21.4018206
   2.9198135  65.2549587  22.7434020  93.9029521  64.8794792  24.1268782
  94.5420379  65.4834281  23.7486605  93.9518279  65.0384740  25.0695090
   1.9930786  22.6528740  65.1571846   1.1956639  22.3973179  65.6209230
   2.2127480  21.8911433  64.6207714  11.3808788  96.5117226  16.8709521
  11.0026134  95.7481013  16.4350276  12.1360458  96.1661588  17.3469214
 114.0074986  94.4557176  28.6933283 114.7939032  94.7946821  29.1210036
 113.9714402  94.9189244  27.8564410  51.8899232 110.2094976  87.2266769
  52.7196961 109.7323902  87.2353745  51.3212567 109.7116962  87.8140831
  99.6652144  44.8147796  20.5209403  99.8126954  45.7501928  20.6605200
  98.8869876  44.7753416  19.9650244 103.8790512  15.6481099  93.3144951
 104.6475506  15.1430821  93.0488110 103.9748001  15.7495809  94.2614746
  70.2429342  19.4929910  65.6808376  70.8770800  18.9392912  66.1363745
  70.0872087  20.2223396  66.2808657  93.7541026  83.5096417  11.9382910
  93.4051436  82.7683745  12.4332385  94.6795529  83.5448061  12.1802287
 103.2367611  18.6010516  85.2608204 103.1483936  17.7036703  85.5819607
 102.3978519  18.7884319  84.8396873  88.4759873  67.8666209  17.7930026
  88.7773723  67.1870659  18.3960013  88.2164592  68.5924505  18.3604960
  28.0995906  60.9532051   0.4544501  28.7270225  60.9218882  -0.2677579
  27.2820152  60.6302748   0.0756220  58.5816813  31.7042875  82.3421097
  59.2037439  31.9910407  83.0107212  58.6011696  30.7485366  82.3909855
  48.1995821  37.0086980  92.2921467  47.5507307  36.6808414  91.6694641
  47.7165174  37.1052670  93.1128502  11.5579761  39.4622742  18.5110144
  12.1107829  39.1769276  19.2384867  10.7313216  39.7139405  18.9227633
  33.5121852 109.3982819  77.2324133  33.5704356 108.4524948  77.0970392
  32.6030141 109.6143517  77.0251656  51.4697504  18.7695229  94.4645214
  51.6195011  17.8976476  94.8300838  50.5174160  18.8424683  94.4014740
  37.4894714  32.6108766  86.9766235  36.5593529  32.6553512  86.7549706
  37.6145363  31.7215085  87.3077011 116.4581317  86.2997924   9.9038748
 115.9414452  86.4436422  10.6967024 117.3162002  86.0218511  10.2243475
  13.8033515 109.0853350  79.5997906  14.6167260 108.5928011  79.4899654
  13.4598142 109.1815465  78.7115574  19.0466464  82.5565444  11.7871623
  19.6314109  81.8252812  11.5883116  19.6089996  83.2042251  12.2120051
  62.9672050  14.4976723  68.4534550  63.5732603  14.0153456  69.0158558
  63.1455708  14.1694880  67.5721455 113.8066006   3.1195679  68.8523817
 114.4416332   3.8357034  68.8419104 113.0875969   3.4289539  68.3014202
 105.5714768  62.2362362  10.3513960 106.5197677  62.3283867  10.4435305
 105.2168054  62.5772427  11.1724715  29.8013526  96.9062637  76.8357849
  29.7186786  96.9182240  77.7893353  28.9229852  96.6913914  76.5218973
   1.8823398  61.5701483  16.4042716   2.4620021  61.0709678  16.9796328
   0.9998000  61.3270770  16.6840510   9.4162524  91.1291753   8.6724715
   8.9818347  91.6867290   9.3179469  10.1500953  90.7395325   9.1477541
   1.3865722  26.3831220   3.1934886   2.2764457  26.2176166   2.8820853
   1.2191880  27.2975503   2.9653792 104.0203351  40.9930657  20.3689913
 103.9117736  40.8988128  21.3153319 103.4047669  41.6842638  20.1249556
  88.6132431  31.4103174  56.3339758  89.3478203  31.8732810  55.9311056
  88.8112640  31.4158463  57.2704554 101.7937392  74.1240702   3.0368475
 101.0718984  73.7563453   3.5467104 102.1979588  74.7649835   3.6217074
  58.3466035  92.6475238  80.0860405  58.0004960  93.5397207  80.0654602
  59.1139680  92.6750635  79.5145178  18.3743823  67.4397991  36.6170744
  19.2870868  67.6403867  36.4097933  18.1820930  67.9706012  37.3900561
  98.6002225  35.8537243  15.7246165  99.4725961  36.0142849  15.3648715
  98.0654258  36.5714525  15.3853659  52.8547001  24.2296314  67.4432945
  53.6026096  24.0080810  66.8885183  53.1586599  24.9677181  67.9715633
  56.2008935 100.1063000  95.2489090  56.6602784  99.5641147  95.8901787
  56.4960652  99.7757553  94.4004726 112.8268337  10.8907342  91.3169003
 111.8988419  10.7931519  91.5302944 113.0313778  11.7971814  91.5465641
  13.7876094  77.5062381   2.9025893  14.4725669  77.3465906   3.5518794
  14.1408218  77.1472178   2.0885996  84.7984695  37.8416443  71.1830139
  85.6197643  38.2611299  70.9266376  84.4233608  38.4300017  71.8382692
  68.4544659  26.3261867  39.9811459  68.9833403  25.6162405  40.3451538
  68.4018517  26.9714284  40.6862164 106.5611458  45.8255482  56.5130234
 105.7394600  45.3921366  56.7437267 106.3124847  46.7333841  56.3391542
  91.2639809   4.3271434  66.8071985  91.6322327   5.0958669  67.2427320
  91.9696426   3.6806566  66.8252230  98.3134192 102.7029715   2.6425128
  98.5360640 103.4300195   2.0610861  99.1549462 102.4085675   2.9909281
   1.7764390  15.2883921  10.9231238   1.1057914  14.6055613  10.9375433
   2.0333923  15.3523527  10.0032763 115.0741023  89.3052588  22.3457865
 114.8882646  88.6143456  22.9816584 114.6678513  90.0882970  22.7173285
  40.8464587  84.6317850   1.9579558  41.5846027  84.1633521   2.3477606
  41.0323871  84.6328436   1.0189871 108.2976264  76.0490952   8.5911803
 107.3668879  76.0440789   8.8146357 108.6056489  75.1744424   8.8285307
   0.9086192  81.3088284   5.6333498   1.1610568  82.1439300   6.0271887
   0.5952991  81.5412389   4.7592501  99.0588093  45.3912497  88.5000610
  98.3154774  44.8257113  88.2906437  98.9054871  46.1868763  87.9904556
 110.0628394  99.2150555  10.1785330 110.0727481  98.3487235   9.7715907
 109.1398353  99.4686185  10.1796298  66.1632204  49.1085005  94.9017048
  65.6938601  49.8641777  94.5483112  66.4907455  49.4055605  95.7506561
  12.8215087  94.7313295   3.0542521  12.9213012  95.4720078   3.6523013
  13.3730758  94.9532090   2.3040728 112.5704765  29.7464967  79.7029066
 112.9455376  29.8119068  78.8246775 111.7181206  30.1762390  79.6319532
  85.8624363   3.1357223  83.8605404  85.1091194   2.5748026  84.0452671
  86.2700272   2.7428588  83.0886936  90.7688808  46.7870045  72.1758223
  91.7102242  46.8759775  72.3247957  90.6895065  46.0370064  71.5863895
   7.9084171  87.7145325   2.8439669   8.0647338  88.6326967   3.0648188
   6.9562686  87.6202975   2.8715853  47.2324067 102.9788255  85.2676773
  47.4822694 102.1848719  84.7949791  47.5254518 103.6951434  84.7044277
  42.2140277  71.1272620   3.2965521  42.6053775  70.3975187   2.8163867
  41.4615119  70.7423113   3.7457423 116.8633813  97.6761113  13.2434420
 115.9859437  97.9132281  13.5436301 116.7156238  97.0011960  12.5809531
  99.8639679  43.5083246  85.0040436  99.3488693  44.2627478  84.7181225
 100.6445789  43.8896894  85.4058266  88.0150604  39.2789531  58.3705187
  87.8522015  40.2106667  58.2234859  88.8909149  39.2467117  58.7553120
  16.7752422 104.8858987  26.1585478  16.8049491 104.0065776  26.5355639
  17.2820247 104.8168383  25.3494505  70.5844975   5.7986790  68.7284279
  70.1765347   4.9345064  68.6736012  70.9258652   5.8461648  69.6214247
  52.7207375  16.0877776  80.2936077  53.1074429  15.9797156  79.4246960
  53.4507370  16.3632929  80.8480740  23.2276405  49.2834370   5.5895190
  22.3072112  49.3372343   5.8467154  23.6077274  48.6441283   6.1920599
  68.8469601  49.4512987  93.3238411  69.1228676  48.8494825  92.6325226
  68.4345436  50.1785660  92.8577614   5.4395909  16.8717039  76.9860315
   5.9366078  16.2918174  76.4090300   5.4842610  16.4509940  77.8446579
 113.2927054 107.2269545  11.2456374 113.0642671 106.3288222  11.0060362
 114.2268294 107.1897803  11.4512114   8.2085079  23.9110303  73.2682562
   8.1438298  23.3785510  72.4754620   7.7377934  23.4086299  73.9332724
   6.1708588  43.0554247  61.7066193   6.5912766  43.6988688  61.1361265
   6.7222065  43.0323362  62.4887419   0.8159298   0.5188563  94.9764633
   1.0627693   0.9910219  94.1812515   0.2476258   1.1268295  95.4493523
  40.9795792  13.1678676   8.3076148  40.4468567  13.5401201   7.6048617
  41.5102560  13.9007806   8.6198000  21.0744537  77.0849667   1.6923098
  20.5214084  76.7464600   0.9881835  21.9169677  76.6485725   1.5659575
  97.3481941  10.9033108  75.6776571  97.6007080  10.2607083  75.0146866
  96.5245342  10.5695629  76.0332441   1.0957111  83.5865174   3.0493407
   0.9129680  82.7230035   2.6789526   0.3655637  83.7505303   3.6461787
  52.6617289  47.7040291  81.4742088  51.8142366  47.7052975  81.9191647
  53.3001375  47.5730228  82.1752739  60.8380747  13.0583370  66.4284945
  61.0543156  13.8410628  65.9217262  60.2152777  13.3643651  67.0878172
  11.3661159  45.0533508   2.3843627  11.9132674  44.3380676   2.0599799
  11.9439662  45.8164511   2.3831229  21.0757983  78.1041871  13.4939627
  21.6371787  78.7870751  13.8610510  20.1949943  78.4779106  13.5211901
  50.2587032  24.4900680  87.6233292  49.8648930  23.6829567  87.9545593
  51.0458755  24.6082163  88.1549644 108.7893599  83.7893353   5.7132296
 108.1028098  84.2484651   5.2294020 108.4980983  82.8777920   5.7353644
  11.4203227  84.9770890  26.8371062  11.2606776  85.3393827  27.7085928
  12.3227084  84.6596609  26.8713049   3.2540077  34.7707200  66.4090300
   3.8422436  34.4883513  65.7086897   2.6237244  34.0555096  66.4953518
  79.8416996  18.5326278  51.8564415  80.2864742  18.2884848  52.6681089
  80.5509949  18.7087727  51.2382936   9.7957367  55.2605963  52.0596504
  10.3099865  56.0658121  52.0012903  10.1034684  54.8374414  52.8611946
  98.9101696   3.1220099  65.6656837  97.9587173   3.1212789  65.5609941
  99.0628815   3.6272511  66.4642143  26.0522521  83.9381800  23.9806704
  25.3976501  83.2403003  24.0069060  26.8590701  83.5212718  24.2831091
  69.5356750   9.6597344  49.2401457  69.3529034   9.2957526  50.1063681
  70.1352978  10.3868306  49.4075155  62.1988487  38.8752365  74.6184111
  62.4705553  38.0987263  75.1077366  62.8916836  39.5153713  74.7810078
 104.8314780  50.5692340  40.7772498 105.5111808  50.1485871  41.3038401
 105.3139371  51.0858042  40.1317839  82.7878541  90.0103341  16.3086466
  83.3382100  89.6908675  17.0236830  82.8969735  89.3609772  15.6139044
  82.0143700  14.3133175  93.2946396  81.6744614  15.1938820  93.4536839
  81.6479874  14.0648198  92.4459648 100.9142208  37.7660370  51.4251804
 100.7426262  37.9778719  50.5076218 101.7158699  38.2448792  51.6356707
  24.0167201 106.4419709  20.2778487  24.2033733 105.5295573  20.0567488
  24.3945277 106.5593158  21.1494784  19.1586173  85.4782258  17.3958163
  19.4140590  86.0745226  16.6919570  19.8850311  85.5169426  18.0179648
  83.3565712  17.4310589  80.3086376  82.7669907  17.6798475  79.5967817
  83.1669521  16.5058470  80.4643917 100.8140373  60.9721231  87.6016426
 100.5671692  61.5041780  86.8451977 101.7077637  61.2469959  87.8063869
  35.8871330  67.3686586  -0.1029153  35.7393802  66.4253197  -0.0357385
  35.7132209  67.7016245   0.7774977  71.8055153  20.5026627  70.2576351
  71.1680555  21.0199404  70.7498741  71.6382885  20.7249379  69.3417406
  14.1186267 105.8121117  94.2068863  13.5083467 105.2526807  94.6873379
  14.9817735 105.4461574  94.3999863 105.9402466  32.6594853  81.3779354
 104.9847317  32.6237464  81.3338852 106.1391544  32.6042533  82.3126030
  69.5062351  44.9258757  94.1902065  69.1088486  44.0590906  94.1065216
  68.8077831  45.5339622  93.9480686  97.4990910  69.8401068  19.0077166
  97.9196328  69.6591531  19.8483233  97.2717351  70.7690106  19.0486865
  13.2508243  65.7403515  15.6374602  13.0201972  66.6628419  15.7472662
  14.1979182  65.7451020  15.4988627  22.6600040  69.5554875   1.7711405
  23.5173000  69.1367589   1.8482356  22.7332557  70.1099478   0.9943251
  83.6283684  37.7013969  82.9103947  84.1705132  37.4075413  83.6424828
  83.4527588  38.6235714  83.0974388 111.2052506  98.6147939  37.0002703
 111.7974585  97.8919612  36.7928271 110.8956927  98.4242163  37.8857569
  96.1345291  56.7555618  92.6282215  97.0105553  57.0569324  92.3874092
  95.6518364  57.5576210  92.8280926  86.4734459   9.2729574  77.6261806
  86.0985184   8.6340839  78.2324028  85.9329128  10.0549972  77.7378654
 101.2126732  30.4027271  79.3301105 101.2586498  31.1444402  78.7268066
 102.1024036  30.0499868  79.3442583 101.0221213  97.9726945   1.4734034
 101.3885468  97.3966037   0.8025221 100.0776214  97.8245602   1.4264731
 109.8897266  49.2264509  91.2121487 110.6682682  49.4868755  90.7199383
 109.9112606  49.7701550  91.9996548 116.4509648  91.5974031  31.5706114
 115.6976050  91.0149132  31.6674952 117.2013396  91.0641061  31.8328433
  15.9798778  90.3706108   6.3875250  16.8188155  90.7650767   6.1491541
  16.2047351  89.7025524   7.0351176  28.5826839  66.8757509  28.9218287
  27.7988113  67.1796344  28.4642081  28.4387553  67.1248565  29.8347716
  36.7267860  87.0067750   3.4393553  37.6016677  87.1396766   3.8042502
  36.7521919  86.1232625   3.0719428  44.4062710   9.4205016  89.8911953
  44.6998501  10.2233708  89.4605637  44.5943689   9.5636779  90.8187485
  80.4321194  54.9839783  61.2608433  80.1257896  54.0813398  61.3482475
  81.1224937  55.0673628  61.9186115 100.2057362  33.6697054  92.1889782
 100.1228046  33.5294223  91.2457561 101.0368156  33.2551098  92.4206352
 102.8142929  13.9060664  36.2044334 102.5689888  13.6437571  35.3171635
 102.6247501  13.1374156  36.7424679  10.1137299  49.9337053  94.7770977
   9.3853802  49.7473097  95.3695488  10.8678479  50.0523281  95.3545570
   0.6271184 109.0892564  13.2628779  -0.0911557 109.2508374  13.8746027
   1.2913144 109.7376357  13.4967284  14.9516834  69.8416506   2.9638247
  14.0627254  70.1731287   3.0906920  15.0738109  69.2072068   3.6700778
  78.9426327  51.9589949  78.1985664  79.2773342  51.7703581  79.0752792
  78.4411097  52.7676344  78.3025265  97.8597355  63.8287210  87.9184723
  97.1413231  63.4942198  88.4553337  98.4822655  63.1030703  87.8723431
  67.0952177  66.6052580  89.9495506  68.0455017  66.5872192  90.0629902
  66.7466927  66.3821602  90.8126831   5.6618179  44.4842540  50.7360796
   4.9934734  44.1288589  50.1502184   6.4100707  44.6617542  50.1661257
  69.3626261  39.4179964  94.9588776  69.0752029  39.9839592  94.2424202
  68.5615969  39.2205977  95.4442787  75.5525541  43.7032557  76.7661381
  75.9585953  44.3991280  77.2829819  75.0986290  44.1631508  76.0599661
  80.6937790  19.2619288  76.0299969  80.8082294  18.4895778  75.4762745
  80.2819347  19.9085999  75.4569054 101.9122601   1.1948538  87.1565437
 101.5034103   2.0039804  87.4637699 101.3525295   0.4983504  87.4997807
  44.2499238  96.7184304  83.4663200  44.5364743  97.6081871  83.6723614
  43.5535031  96.5387844  84.0979576   1.2904800  81.1291943  15.4543356
   2.2298396  81.2436639  15.3103499   0.8986152  81.2551223  14.5901541
  26.5170318 108.8172570  73.0285788  27.3247987 109.1929010  73.3787680
  26.1084634 108.3858796  73.7790585  28.3949817  78.2787667  30.6787924
  28.1277145  78.6173020  29.8242812  27.5758231  78.1793032  31.1638884
  20.1346172  69.7923551  20.9319262  19.6695865  68.9562605  20.9623007
  20.4597438  69.8530947  20.0336794   0.3869004  36.1801481  75.5561304
   1.3118119  36.0629272  75.7729912  -0.0449806  36.2944651  76.4026785
   4.7963203 103.2241164  14.3189005   5.5756343 102.7529059  14.6136240
   4.0636123 102.7217780  14.6753077  76.5508461  16.5682924  73.3970785
  77.2832251  15.9829140  73.2042503  76.5104055  16.5944350  74.3530655
  95.9366322  19.7731936  74.6568823  96.3987160  20.6060600  74.5618010
  95.0114536  20.0156403  74.6955347  35.7378417  83.6391555  63.7532711
  36.1982518  83.8645374  62.9448986  35.1348287  82.9407274  63.4987068
  19.5611745  93.9723491  93.4310627  19.1136628  93.1495618  93.6285114
  20.4791862  93.8023507  93.6422062  83.4117126  22.8055429  82.0342445
  84.1672421  23.1012559  81.5263557  83.1304169  23.5815167  82.5189877
 109.6256417  81.0308562  25.4599909 110.2347630  80.3271733  25.2363066
 109.3691558  81.4028679  24.6161608  54.6290267  99.9935017  21.3110976
  53.7729991  99.8341761  20.9135298  55.2391208  99.9949752  20.5735259
  76.6739321  71.0479689  92.5123501  76.1312771  70.2903605  92.7309513
  77.2751284  71.1334562  93.2522678  88.6271191  55.5864429  61.1304426
  88.2470894  55.4443598  61.9973993  89.0677738  56.4334917  61.1979818
  32.4610978 106.0556575  73.6839056  32.1040279 105.3577994  73.1346083
  32.8642589 106.6647922  73.0653191  49.2788219  66.3175011  69.4616604
  48.9714527  65.4389668  69.6851110  50.1530743  66.3707924  69.8477697
 109.8456544  59.1976090  14.6408228 109.1220445  59.0469311  15.2490286
 110.3355664  59.9238016  15.0266509  57.6272869  33.8517451  91.0418892
  57.5958109  32.8964591  90.9902191  56.7983484  34.0968156  91.4530277
 108.8301438  86.7402588  10.2707533 109.0909022  86.4119850  11.1312632
 108.2994718  86.0368548   9.8967986  52.3027134   1.2611403  84.2568398
  52.2135639   0.8396574  83.4020615  53.2312727   1.1727541  84.4717884
 104.5379353  32.8104782  86.8216038 105.2615643  32.3862624  87.2827244
 103.9515305  33.1071377  87.5175667  88.5071564  17.7430868  74.1193438
  88.7408733  17.7979267  73.1927395  87.6812840  17.2592974  74.1298199
  88.8274765  26.5672159  83.8222599  87.8784466  26.4425945  83.8163185
  88.9652538  27.3808169  83.3371735  16.7822499  23.8683224  94.6802139
  16.0245270  23.3987737  95.0289536  16.4056153  24.5822239  94.1656971
   3.8944859  21.1930776  69.2449427   3.1834072  21.0386443  68.6230421
   4.4711823  20.4360461  69.1421890   5.2154697  71.6545759   0.4244189
   4.6924842  71.9299720  -0.3284879   4.8418773  72.1341060   1.1638217
  23.1554187  86.0849105  20.3602843  22.6603568  86.3426696  21.1379103
  23.8827384  85.5642377  20.7010798  19.9139196 109.1239241  50.6055593
  20.5206472 109.8642280  50.5974436  20.1630670 108.6016873  49.8430490
 114.0454197  48.2302189  65.3898144 114.9264336  48.4861755  65.6628036
 114.1836548  47.6839066  64.6160841 104.1417045  58.2859985   4.5408110
 105.0054473  57.8834797   4.6311621 103.8029355  57.9429997   3.7138800
  15.9184421  87.5095378  21.2121539  16.2856639  88.1102501  21.8606333
  16.6170467  87.3966060  20.5676226   0.7403386  53.6830129  25.5022864
   1.5123809  53.2693967  25.8884291   0.7167972  54.5570376  25.8918528
 104.6570587   5.3690314  86.4136028 105.1033306   6.2082106  86.3002205
 105.2805042   4.8300815  86.9005203  93.1280917  61.0431664   0.3365187
  92.5644750  61.3201110  -0.3858896  92.6631612  60.3071527   0.7344489
  79.3527317  53.1674576  82.3074150  78.4629059  53.2706070  81.9700718
  79.5679379  54.0221882  82.6807117  90.3868484  30.8859158  72.5316477
  90.5313587  31.8045115  72.3046446  89.4605827  30.7354164  72.3429203
  46.0800057 106.5174141  55.7311344  46.2085324 107.1568262  56.4317513
  45.1377088 106.5319606  55.5634975  66.6031313  48.3054066  75.0877810
  65.9275913  48.3884192  75.7608223  66.3472605  47.5316238  74.5857620
  71.7824984  27.8634572  95.1945496  71.8077135  28.7184978  95.6240845
  70.9870386  27.4501681  95.5302048  84.6026802  43.3940172  68.6646700
  85.1262283  43.2899523  69.4592142  84.1289902  42.5665808  68.5798788
   9.2517037  46.3424778  67.0288277   9.5633454  46.6121912  66.1649036
  10.0189919  45.9550858  67.4500418  81.5344429  17.5773633  78.2688236
  81.0775280  18.2820117  77.8095579  81.1102295  16.7763734  77.9611063
  77.5275785  98.2926737  92.2108746  78.3524209  98.7318086  92.0034313
  77.7095491  97.3632370  92.0720673  81.0855579  22.9795575  94.2913342
  82.0005798  22.8213286  94.5235538  81.1282349  23.5602665  93.5315990
  23.6715568  55.5606837  16.9724898  24.4686568  55.9505743  16.6135268
  23.7644065  55.6556071  17.9204325 100.3518105  23.4789371  94.8544598
 101.1618423  23.7230659  95.3022099 100.1469707  22.6058340  95.1890659
  37.8142721   3.3274364   3.9780669  37.4423964   2.7660369   4.6583418
  38.0677397   2.7228021   3.2806448  39.4008506  97.3799525  18.6418108
  38.4975875  97.1104918  18.8083605  39.8922122  97.0481168  19.3932681
  13.3337558  92.5771747  19.1027503  12.4391044  92.6560245  19.4338278
  13.7630618  91.9777141  19.7131400   3.1411976  72.7138567  78.7129307
   3.7025971  73.2873011  79.2346811   2.2541470  73.0348825  78.8751554
  35.2467979  79.2092047  12.2840743  36.0321773  79.7562323  12.2972064
  34.7610725  79.5059405  11.5144877 107.3886490  30.6193495  79.0074730
 107.2389984  29.7570205  78.6198807 106.6728592  31.1597490  78.6730385
   7.8160442  80.4987894   1.4350276   8.4078658  80.9995328   0.8735709
   7.8340305  80.9599696   2.2736125 114.5625591  53.2701731  82.1042538
 115.3473282  52.8530550  81.7487621 114.8964596  53.9308405  82.7110958
  96.1624241  32.1248412  60.5494499  95.8314800  32.1517634  61.4472151
  97.0984650  31.9486666  60.6444168  81.4456827   3.4217166   4.0095095
  82.2660429   3.0365943   3.7014155  81.2396128   2.9381084   4.8094420
  96.9346619  37.0982170  93.4017563  96.3816929  36.3170338  93.4161758
  96.5279579  37.6912451  94.0335274  11.0860485   9.0690607  76.1628819
  11.3718170   9.5611936  76.9325399  10.9570259   8.1764829  76.4836407
  27.1142829 106.0185538  16.3684706  27.5095714 106.5882169  17.0283656
  26.2114013 106.3278113  16.2949137  14.1417736  41.9876146  82.1173477
  13.8231987  41.5492916  82.9064083  15.0735516  41.7712021  82.0827770
  95.5467606  57.3645353  71.0866547  95.0574875  56.5427208  71.1249256
  95.8092594  57.5293970  71.9922733 115.8230895  77.8905640   1.4970831
 115.2908248  78.6715828   1.6485266 116.5989083  78.0199705   2.0426135
  65.5584700  25.6685876  18.1174616  65.2159006  26.4124059  18.6130480
  64.8629362  25.4542589  17.4957518  61.3044691  25.2026415  69.7868013
  61.5870857  25.7272816  70.5358744  61.3960123  24.2963672  70.0809431
 116.2708569  22.4352145  85.0232697 116.3945103  21.6069174  84.5597363
 115.5847263  22.8853488  84.5304871  14.5938820  25.8398628  90.3839207
  14.4431252  26.7759609  90.2526760  15.0961155  25.5681300  89.6157074
  61.0961294   4.9253109  69.5271206  60.6230688   4.5893055  68.7658405
  60.5002308   5.5655646  69.9159813 104.8560429  25.3295755  83.6166668
 105.4470158  25.1931930  84.3571949 105.2258873  24.7956061  82.9135799
 109.3740940  48.3758879  68.0873489 108.7526321  48.2844782  67.3650932
 110.2311134  48.2340813  67.6853037  21.3926757  82.9909383   6.2053160
  21.1031974  83.2470666   5.3296332  21.7616046  82.1153770   6.0890727
  40.4771102  94.7575222   4.7587828  40.5115569  94.3596397   3.8888793
  40.5246509  94.0166937   5.3630595  49.6961672   4.2559814  24.4587569
  49.0555555   3.6986875  24.0168719  50.5449755   3.9001750  24.1957716
 108.2742214  19.0899920  95.0555420 108.6319923  18.5674083  95.7732773
 109.0161610  19.2279494  94.4667244  58.8845141  12.5493860  30.2013449
  59.5719702  13.2152080  30.1837496  58.4628851  12.6629018  31.0531477
 108.6036188  23.0722379  28.2223944 107.8277666  23.4054899  28.6732153
 108.3497507  23.0410575  27.3000006  28.1767971   8.2258081  15.4272322
  28.9709026   8.5936021  15.0394778  27.5080998   8.8956260  15.2843527
 106.9477844  57.4846888  72.5912857 107.7200699  56.9265461  72.6822805
 107.2255516  58.1831694  71.9986629   4.5237393  47.7103424  55.2071667
   4.0673012  46.8755198  55.1024818   5.4473824  47.4965000  55.0752878
  14.7447533  23.6476398  92.2418308  15.2372498  24.4572926  92.1071339
  13.9504380  23.9237165  92.6990795 108.1376648  12.1267986  67.4756384
 108.0775070  11.1725020  67.4317026 107.2284126  12.4252760  67.4557114
  53.8305455 102.1413266  73.1107855  54.7498113 102.2010898  72.8507614
  53.8472730 102.2032099  74.0658379   7.5268615 100.4387532   0.6372885
   8.3961833 100.7803880   0.4280047   7.1021999 100.3272448  -0.2132745
  54.0968115  21.4209937  32.1371893  54.6126539  21.8933915  31.4837603
  54.4334871  20.5254888  32.1064333 108.8494396  29.8424864  88.5227680
 109.6981621  30.1421976  88.1970882 108.6985779  29.0127492  88.0699825
  72.7397966  52.4947691  85.9286308  73.6301374  52.8108168  85.7748890
  72.6448250  51.7488098  85.3363705 101.3335228  50.1091623  89.8682690
 100.4624653  49.7133684  89.8393822 101.8895531  49.5001745  89.3822575
  24.2937530  79.5637451   1.6563086  23.5381759  79.9866854   2.0642809
  24.6942199  80.2508889   1.1236815  85.0665474  33.2347035  86.5814114
  85.5907536  33.8763881  87.0606613  84.5366287  32.8076363  87.2544765
   5.4090161  37.0059896  70.1565409   6.1733765  37.3801637  69.7183943
   4.6668286  37.4976683  69.8049116  25.2952541  68.9120804   0.4792647
  25.7156623  68.1623469   0.9004454  25.4074825  68.7541948  -0.4581304
  63.5080702  16.9130849  15.9551005  63.3731920  16.8657827  16.9015650
  64.4563658  16.9926786  15.8519988  95.2507877  45.6981325  87.9341030
  94.3281078  45.6390715  87.6863003  95.5269909  46.5609884  87.6251888
  72.8354073  26.2539220  54.0448523  73.1636858  26.3709545  53.1533527
  72.6500702  25.3171539  54.1107941  45.7066024  84.3803845   8.6177783
  46.5602458  84.1076742   8.2813887  45.0893939  83.7526904   8.2418971
  86.3733006  48.9877844  46.0794258  86.0396862  49.7163534  45.5558634
  87.2010994  48.7514400  45.6609535  99.5368671  71.0191107  84.4305229
  99.6008015  71.8420935  83.9459133  99.1208172  71.2602186  85.2581692
  85.9799576  26.2242031  72.8809834  85.0397968  26.0444212  72.8778791
  86.2630749  26.0342860  71.9865513 112.6918221  47.7766562  68.4340572
 113.3653641  47.4352121  67.8458548 112.2686005  48.4745884  67.9340553
 108.5517979  13.8213754  93.3596325 108.2957935  14.7243631  93.1717300
 109.4755459  13.8801157  93.6034870  95.2475929  44.0578175  55.8290195
  95.6034088  43.3682299  56.3894653  94.6237564  44.5220375  56.3872004
 104.6846676  39.0268135  69.3665171 105.2762604  39.0799618  68.6158991
 105.2206326  39.2938924  70.1132727  53.1021292   3.4460496  16.0491995
  53.7189467   4.0451049  15.6286006  53.3701975   3.4324216  16.9679980
  14.9548591 105.4083167  15.2045111  14.6221698 105.9028779  14.4555430
  15.5600417 106.0094939  15.6387572  50.5736411 100.9959136  10.8526759
  49.7118533 101.4121638  10.8697180  51.1495651 101.6534816  10.4626326
  18.0350173  67.8791092   0.5106215  18.8009704  68.2242487   0.0518946
  17.3952640  67.7140699  -0.1819940  85.0878620  36.1660838  95.4524612
  84.6449852  36.6417623  96.1551952  85.2238464  36.8215227  94.7682571
 103.2568836  29.1928887  88.1567764 103.3578491  28.2717943  87.9167271
 103.9767456  29.3623090  88.7645054  43.2983936  88.0327187  27.0664267
  42.3599590  87.9945527  27.2511725  43.5305465  88.9524351  27.1947245
  19.5220435  66.1839019  18.7346034  19.9807609  66.6498075  19.4337039
  18.5981048  66.3910030  18.8748889 106.2865543   7.8092957  86.7671299
 106.0705185   8.6352545  87.1999645 107.0141506   7.4543774  87.2778893
   9.7219623 102.0821009  16.1993937  10.0941909 102.7091466  16.8194632
  10.4784930 101.6061889  15.8567767 110.3092164  93.2959829  27.1567873
 109.3531627  93.3141290  27.1136336 110.5690974  94.2153822  27.0984988
  88.5679913  24.1638899  72.3341656  88.7399197  25.0605679  72.6216364
  89.1886902  24.0180802  71.6202307  43.3013309  64.6979682   4.4964556
  43.5995448  65.4432915   5.0178008  43.4825481  64.9510197   3.5912756
  77.1321058  51.2009668  81.3825035  77.0112991  52.1276665  81.1754608
  76.3112974  50.7869816  81.1158276 115.3519792  75.8031784  -0.1466508
 114.5138902  75.3734170   0.0240569 115.3585690  76.5577279   0.4422812
 101.1621761  66.7916822  92.5223351 100.3331184  66.6360998  92.9747581
 101.2755013  66.0255623  91.9597912  87.9573536  13.3454347  84.2818069
  87.8235531  12.3986030  84.3246651  87.0961952  13.7178516  84.4713879
   5.5935348  69.4182347   8.7799792   6.2805236  68.8784276   8.3889727
   5.4030002  68.9943264   9.6167712  87.9606438   3.4559613  71.0405159
  88.4582424   3.8113558  71.7769384  87.0574856   3.7238339  71.2101936
  37.6707710  91.5948854  40.5567984  37.3762573  91.1921297  39.7399287
  37.4655593  90.9470092  41.2308745  17.7127994 103.0362902  21.0884337
  18.2083190 102.9164420  20.2782969  17.5725902 103.9814244  21.1458449
  44.3228877  80.9227072  17.7319865  43.5655940  80.4294620  18.0473475
  44.2816890  80.8415614  16.7791228  48.6164553  18.5783290  46.9506220
  48.2643778  18.0564784  47.6716952  49.5452768  18.3489942  46.9202189
  34.2970527  80.2809606  29.7564272  33.5341514  80.5617009  29.2510466
  33.9652217  80.1654254  30.6467967   1.8762345  56.6547585  84.4445419
   1.6098542  55.9074211  83.9090443   2.2850937  56.2628603  85.2162170
   3.4727425  52.7951813  43.3029270   4.0814060  53.1952286  42.6818562
   3.4969754  51.8613100  43.0942869  15.6261582  51.5403175  88.8233852
  15.6448693  50.9956694  88.0364704  16.5286297  51.8418837  88.9274693
   0.8140434  96.4181004  22.0249323   0.6867469  95.4724417  21.9490866
   1.4306606  96.5193759  22.7500300  35.3893245 105.7511531  36.2824111
  35.5737270 105.3040753  35.4563765  34.4795573 106.0376225  36.2018160
  26.0759319  91.5094934   4.3781619  25.9985793  92.3989449   4.0330176
  25.3921474  91.4512001   5.0454382 105.5208653  96.0030900  29.8984389
 105.3382319  95.1729499  29.4582800 105.6667584  96.6250954  29.1856627
  17.7362788 101.1906014   4.3252520  16.8105281 101.4248763   4.3911414
  18.1607497 101.9822989   3.9946990  12.9123939  95.2415429  11.2902407
  12.7478660  94.3099366  11.4360766  13.8104881  95.2774964  10.9610514
  18.3403362  47.1730380  21.3657050  19.0729011  47.5992636  20.9208350
  18.4999240  47.3318730  22.2960429 101.8870544  40.6229639  58.5518551
 101.5909863  40.5179882  57.6476669 102.3686028  39.8176789  58.7412262
 110.8519840  16.5329731  93.5454178 110.9750938  15.5885422  93.4498692
 110.8995438  16.8723369  92.6516533   8.7055535  40.4041338  68.4429359
   8.2141060  40.1392221  69.2204523   8.0923504  40.9443331  67.9445362
 102.3861665  89.3258248  11.7210440 102.3379105  90.2815114  11.7449049
 103.1425637  89.1380010  11.1653380 108.7064362  47.3035240  84.8067665
 108.8401890  48.0811119  84.2648220 109.5180798  47.2176313  85.3068733
  70.3506327   3.1429008  79.1109228  70.8425522   2.5446570  79.6733761
  69.4563532   2.8017950  79.1226387  23.1358588  91.0311852   2.5605349
  23.7169517  91.6110502   3.0527930  22.2777808  91.4522682   2.6117186
  10.1890624  54.2878555  11.8183569  10.4004729  54.8498491  11.0729079
  10.7554877  53.5238069  11.7105250   3.5604633  94.4883762  45.1965575
   2.7502692  94.9160252  44.9191813   3.6149562  93.7026773  44.6525530
  82.8889084  35.7047296  62.6033306  82.8349876  36.4915133  63.1458235
  83.5663605  35.9050918  61.9574690  21.3034404  82.8537355  14.7220377
  20.7710994  83.5769115  14.3905882  22.2068465  83.1429992  14.5938925
  98.8681764  87.5468527  23.2255034  98.9274520  86.5932618  23.2836585
  99.5889062  87.8652178  23.7690405  15.7607520  94.1811953  14.3159155
  15.2429164  94.7513662  14.8842291  15.1355518  93.5314141  13.9947466
   1.2426532 102.0136748  20.2601962   0.7806028 101.2506829  20.6074481
   0.5741943 102.6971160  20.2122073  21.8756897   6.2694454  13.5302405
  22.1767075   5.3979921  13.7875132  22.6198418   6.6524267  13.0657057
  72.4907684  52.8238869  66.7677975  73.1472635  52.3590469  66.2489796
  72.7691031  53.7393570  66.7416525  65.1319773  18.6549615   6.4768939
  64.4418604  19.2604541   6.7477183  65.5822069  19.1082906   5.7641367
 100.2010536   9.5329231  91.8383789 100.4295731   9.8262519  90.9563541
 100.3430271  10.3016698  92.3907375  50.0916827  59.3036480  21.4914469
  49.4399226  59.7804902  22.0053153  49.7255195  59.2749475  20.6075148
  39.2102969 109.5975695   8.6349825  39.4644988 110.4849921   8.8881449
  39.8589290 109.3403397   7.9797415  89.3344784  54.8814011  75.5490160
  89.0154552  54.4127846  76.3202810  90.2043629  55.1919079  75.8002377
  98.6120796  54.2532158  90.7949638  99.0946960  55.0488281  91.0192871
  99.2833042  53.5728598  90.7419014  87.8935242  61.6620398  85.2352142
  88.6145687  61.2324095  84.7750568  87.1036720  61.3046503  84.8294735
  87.3179913  26.8416834  86.3212013  87.0888615  27.6773190  86.7279434
  87.9773235  26.4645767  86.9037056  56.5228350   1.0430145  15.9876303
  55.7652075   0.9193706  15.4158263  57.1641047   0.4038142  15.6771140
  31.3284553  89.4570933   5.8873991  31.7604507  89.8631535   5.1359133
  31.5552295  90.0204788   6.6272597 101.6564178   7.9538894  88.2077122
 101.3901711   7.4247158  87.4558449 102.0063210   8.7575561  87.8231049
   5.6351513  77.2511673  83.9954948   5.7587952  76.5527725  84.6382904
   6.0393662  78.0204153  84.3968582  55.2401048 102.5116169  69.0827799
  56.0372048 102.9378526  68.7678385  55.0317460 101.8650990  68.4083700
  68.6136515  18.9684772  18.3800177  67.7819998  19.3952369  18.1739764
  68.4866125  18.0568456  18.1173090   3.0706353  22.8992367  71.0003757
   2.2639794  23.0652261  70.5125284   3.5990280  22.3590374  70.4128265
  94.0063971 104.0205441  17.2719626  94.5134896 103.2450448  17.5121550
  94.0259332 104.0325652  16.3150458  92.9473782  23.4908390  70.6227827
  93.1660080  23.3119273  69.7082186  92.9503345  22.6305509  71.0424566
  74.4746573   3.6826324  17.3198180  74.8681242   3.8678264  18.1725268
  73.6284620   4.1293859  17.3443846   6.4801258  31.7928743  63.0625153
   7.2564644  31.7892075  63.6224461   6.8248982  31.8976760  62.1757317
  38.3846820  91.2051569   9.6319060  38.8321269  90.3618489   9.5622210
  37.9643405  91.1829553  10.4915766   5.0968499  36.6946149  73.2324076
   5.3294606  36.7173004  72.3041773   5.9368271  36.6446710  73.6886644
  89.8001671  48.8450050  70.8266068  89.9069214  48.1781673  71.5049648
  90.5282879  48.6926031  70.2242470  82.3098850  30.8208013  91.8923759
  81.4336395  30.4356503  91.8832970  82.8958893  30.0872564  91.7059612
  41.3353980  90.7310615  21.0153822  42.0295203  90.8974038  21.6531519
  41.7915786  90.3780447  20.2514987 105.9977645  91.2031279   7.3929934
 105.3709477  91.1546908   6.6712050 106.8422097  91.3513432   6.9673399
 108.6967564  17.4245250  76.9575024 107.9930878  16.7946911  77.1137238
 108.6847401  17.9929447  77.7275610  30.0389350  90.1856480  26.3991885
  29.5495094  90.9777175  26.6212706  29.6588290  89.8936449  25.5706458
  87.2071899  71.1306952  34.6473841  87.4075568  71.7888771  35.3128771
  87.5382484  71.5064011  33.8316206  90.3598118  23.1355238  89.0257359
  91.0473537  23.1073880  88.3603668  90.7130527  23.7024426  89.7113419
 106.0199451  46.0684252  84.9912643 106.4170551  45.8912420  84.1385365
 105.9863663  45.2142620  85.4219723 103.0371571  18.9011729  81.7357731
 102.5340557  19.6133494  82.1306515 102.3748875  18.2856071  81.4216042
  67.1330547  23.1911087  70.4106808  67.9799986  22.9019141  70.0711441
  67.3325253  23.5556340  71.2729836  14.4318164  88.1434522   7.5415282
  13.9429534  88.2727586   6.7288069  13.8242877  88.4101187   8.2314829
  91.9825459  16.5345526  75.0119877  91.7913055  15.8419001  75.6443548
  91.2551212  17.1499467  75.1035118  38.4100402 105.5810605   8.8475184
  38.3621371 105.2205048   7.9621176  37.7274383 105.1170979   9.3323187
  62.3189718  11.5554094  11.9501929  62.7713377  12.3301696  12.2838740
  62.6290972  10.8395528  12.5048117 109.8172569  63.3528996  65.5089092
 110.3495693  64.0856504  65.1991367 109.6002674  62.8624725  64.7160530
 109.8565006  82.6647663  58.0739546 109.5497894  82.5954819  57.1698713
 110.6004238  82.0642853  58.1211853   6.3839096   4.4521937  82.7522850
   5.4788155   4.6599376  82.9844093   6.6804737   3.8643634  83.4470844
  26.2835831  43.3009243  93.0929661  26.7372937  44.0478039  93.4835434
  25.5275578  43.1557465  93.6618137   9.0795178  68.3572245  88.9121437
   9.9232525  68.6891651  88.6052990   8.9353794  67.5606871  88.4012794
   2.6797927  75.1440607  -0.0637002   2.5156749  76.0758935   0.0811533
   1.8953813  74.7081123   0.2692751  98.4589195  81.0918427  83.0116940
  99.0894604  81.7394447  83.3267403  98.9265537  80.6166363  82.3248672
 105.4328728  38.9770532  72.4132395 106.0306358  39.7242069  72.3873758
 105.8825111  38.3292532  72.9558325  21.5325797  92.7150164  19.4757704
  22.3556483  92.7295004  19.9642233  21.4005054  91.7927228  19.2563109
   1.0092682  24.5654845  72.9909277   0.6564278  24.5905781  72.1014881
   1.6262764  25.2965117  73.0245399   8.5158772  73.7055588  91.6301441
   8.6320156  72.8091860  91.9452095   9.0989346  74.2298365  92.1791553
  70.1178438  11.1911678  16.3991026  70.8540518  11.5493964  16.8949942
  69.3772299  11.2361287  17.0038371  98.4582312  17.8085183  36.4208846
  98.2557757  18.6954641  36.7184977  97.6909239  17.2921371  36.6675143
 109.4813919  71.8945074  94.5252895 108.8044739  71.5279293  93.9564133
 110.2275848  72.0432663  93.9445210  28.4237350  79.2732082   3.3393149
  27.5976241  78.9726196   3.7180190  28.9326823  78.4730612   3.2090525
  13.7734551  82.2210217  75.5107260  13.0708927  81.6547966  75.8301544
  13.4217018  82.6108742  74.7104025  65.8852638  90.5435835  16.4394145
  65.7343257  90.3179680  15.5215125  65.1685012  91.1380611  16.6609244
  58.3940203  22.9655647  12.0269446  58.5166533  22.0301961  12.1890692
  58.3560354  23.0404186  11.0734324  44.9390567  97.7886449  17.3697142
  44.4706310  97.4299727  16.6159586  45.0652469  98.7130175  17.1555953
 105.6240940  63.0708408  87.0664215 105.0124645  62.7907133  86.3854885
 105.0710392  63.4820843  87.7306843  45.3396494  36.2233209   5.6487708
  44.6808321  36.1456918   6.3388209  44.9595720  35.7611512   4.9016623
  68.4426082  98.3544741   0.0631384  68.5139144  97.4554787   0.3840022
  68.7808860  98.8919411   0.7793288 103.5435677  75.1339245  82.3073196
 102.8977966  75.1103544  81.6011620 104.3303108  75.4968023  81.9003963
  68.2385428  34.2925977   9.2686705  68.2143194  34.7606992   8.4340815
  68.8533098  33.5736703   9.1222910  42.7391607  23.2853030  30.5747942
  42.1534331  23.8081693  31.1223082  42.5121863  22.3782157  30.7795004
  18.4283031  82.9433356   8.1404070  17.7103580  83.5178386   7.8744368
  18.3188022  82.8453170   9.0862612 111.8828964   4.2885509  66.9332790
 111.0686970   3.8530290  66.6810131 111.9640636   5.0186610  66.3196135
  88.1187534  81.1239529  80.6465149  87.8862190  80.1959705  80.6146240
  88.8453007  81.2101460  80.0293159   0.7340569  45.7009172  93.2424068
   1.5039391  45.9391928  93.7588692   1.0769028  45.5339003  92.3644638
  24.3978924  25.4218817  64.2697573  25.3424305  25.2671146  64.2810106
  24.1413254  25.2712512  63.3599663   5.1657528  36.8419933  92.7153873
   4.9763340  35.9055614  92.6566792   5.9242291  36.9691253  92.1454906
  71.0915262  22.5428533  23.7357668  70.4454691  22.5753688  24.4413046
  71.7755301  23.1541871  24.0089850   4.6474499  64.4508028  83.5611439
   4.8543305  65.3771353  83.4372902   3.7124676  64.3861151  83.3665848
  90.0368500  70.2509832  92.0389080  90.4108715  70.2535295  91.1578083
  89.1022968  70.0957489  91.9019413  35.5681480  80.7712351  16.3389258
  35.3724254  80.9646092  15.4221205  35.3639377  81.5826975  16.8037467
 104.4686317  86.6571236  81.5147972 104.4645882  86.2992668  80.6270218
 104.1659737  87.5592327  81.4107800   9.0390456  91.5523802  23.0112414
   9.7387946  91.8025981  23.6145453   9.3869556  90.7939206  22.5422720
  14.1411556  92.6702653  16.3774828  13.4273780  92.5614582  15.7490687
  13.7847293  92.3437963  17.2036795  31.0767997  76.8943487   4.8539691
  30.5839313  76.7622410   4.0441088  31.9937766  76.8917642   4.5794158
  69.7842372  80.2495752  17.6845793  69.5871795  80.8640109  16.9775633
  70.7309402  80.3207122  17.8068022  51.5216506  92.9069386  40.8891634
  50.9464515  93.3101664  40.2389483  50.9486449  92.7201567  41.6328101
  14.8582787  59.4605875  82.1926689  15.2282280  58.6644363  81.8111992
  15.5918927  60.0746632  82.2234917 104.5038795  54.6722984  93.5333443
 105.0720596  55.3976822  93.2740688 105.0910282  54.0495062  93.9618492
  80.3293974  18.0852556  21.1807971  80.2370245  17.2534131  21.6452651
  80.5095846  17.8348922  20.2746539  71.4654047  11.5480756  36.6258101
  71.2858946  11.4024734  35.6969409  71.4771921  10.6705236  37.0079093
 116.3254642  25.2245402  92.5473499 115.5798912  24.6621656  92.3373604
 117.0820713  24.6387863  92.5214863  27.5728477 106.0594188   0.2250056
  27.9480327 105.1805793   0.2807765  27.9761565 106.5384017   0.9489874
  92.2625048   7.2953557  14.1240077  92.2153742   6.3934421  13.8068919
  91.3557036   7.5259208  14.3259673   2.9829830  36.7178369  76.9165134
   3.1141228  37.5535059  77.3644972   3.1710285  36.0568118  77.5827837
 114.5195675  47.6595020  70.5711460 113.9713669  47.2935009  71.2652254
 113.9366531  47.7244711  69.8146915  91.8877602  73.8028002  85.9082985
  92.6920414  73.4558582  85.5223179  91.7959690  73.3303213  86.7356873
  58.4480364  25.2103662  39.9521212  57.5108511  25.3729772  39.8450236
  58.6808474  25.6726312  40.7573180   4.6028865  57.4315385   1.4722018
   4.5125068  56.4958159   1.6524462   5.1471008  57.7616878   2.1870951
 100.5005057  16.4651346  12.7264647  99.6608622  16.9134282  12.6251845
 100.3348810  15.7928323  13.3873705 107.2561264  48.5600710  91.3697720
 106.9618797  48.8693619  92.2265053 108.1990242  48.7248564  91.3665295
  71.5117914  18.7566566  18.6883978  71.6730387  19.6220302  18.3124213
  70.5624945  18.6457729  18.6358313   3.1379092 105.2772151  13.4867911
   3.8139880 104.6160422  13.6351161   2.5109161 104.8516427  12.9019789
 110.2969534  10.5176114  38.6796145 109.4067366  10.1764964  38.7655215
 110.1795180  11.4271163  38.4052996  39.5262492  85.2780138  19.2788462
  39.1803230  84.3970190  19.4217257  38.8633788  85.8590399  19.6519904
  32.8780044 102.5229035  13.6134390  33.6154330 102.2594367  13.0629782
  32.4871982 103.2645522  13.1514220  37.5824035  89.0250359  36.2198691
  37.3344291  88.7165128  37.0913939  38.5077728  89.2557250  36.3017706
  47.0226730  67.5166891   0.3894763  47.9210151  67.2511671   0.1927142
  46.9935764  68.4470592   0.1663260  63.4489787  77.7072130  28.7850241
  63.2520450  78.0583678  27.9166083  64.1426242  78.2747303  29.1212039
  42.5684989  76.3207947   4.9256472  42.6747668  75.7986961   5.7208495
  43.1825031  77.0473324   5.0322966  55.7728464  14.7125005  42.2500472
  54.9823744  14.2788505  41.9285731  56.4685137  14.4032001  41.6698603
  85.2520448  96.8838953  93.7418079  85.3389913  97.7155553  93.2759571
  85.8825570  96.9443106  94.4594669  99.6131420  37.7709055  88.8151550
  99.2745113  38.5746408  88.4207249  99.3444347  37.8225923  89.7324085
  82.7171785   8.5899829  40.6728796  83.5335524   8.8769197  40.2636866
  82.3909170   9.3668746  41.1270003  91.9774134  10.9246539   1.9284300
  92.1141798  11.8693351   1.8570094  92.8232367  10.5812930   2.2164015
  58.1643850   3.9406633  20.1011900  58.8815767   3.3098411  20.0385623
  57.4804289   3.5826825  19.5352511  32.1391434  72.2824240  73.6546040
  31.9179100  72.5136471  74.5567274  31.5806717  72.8459454  73.1190777
  86.2158680  72.3026752  71.2638903  86.2154579  71.4090300  70.9209156
  85.2903461  72.5103235  71.3924026  10.1683468  26.7867494  78.5418415
   9.2819447  26.7137766  78.8956785  10.2111382  27.6735067  78.1839848
  13.4962887  48.0368710  87.7737713  13.8879341  48.3081388  86.9435501
  14.0212101  48.4779882  88.4416771  88.4071428   2.8629445  22.3222975
  87.5162966   2.8806972  22.6720385  88.3012564   2.5901603  21.4109187
  26.2289680  77.4051057  10.4179339  26.1399043  76.4907466  10.6867175
  25.5435813  77.5296222   9.7614531  79.2415571  44.4459772  86.4962196
  79.0148354  44.2019320  87.3935890  78.4328461  44.3157148  86.0009956
 103.4767056  54.9498701  82.6196289 102.7542877  54.3554449  82.8221130
 103.9661598  55.0198936  83.4392357  80.2798141 103.5557614   1.2623457
  81.1958183 103.3355151   1.0930399  80.1038421 103.1963645   2.1318869
  92.5274467  45.0209427  85.2828121  92.5899982  44.1648340  85.7063580
  92.7082634  45.6482649  85.9828091  29.2374176  55.3623915  79.4739485
  29.3532891  55.2605295  80.4186344  29.3836827  54.4856358  79.1187859
   4.9266685 110.1099835   2.7396254   5.4042972 109.4919740   3.2929568
   5.5244506 110.2942334   2.0151000  47.6392711  95.6587182  50.1650099
  47.6610625  94.7601257  49.8359446  46.9772781  95.6446658  50.8562426
  81.9431955  58.4152650  37.4719386  81.4620573  58.0786752  36.7160086
  81.6443045  57.8772306  38.2050280  94.4345093  15.8204079  79.0540695
  93.7629414  16.2539101  78.5274792  94.0973186  15.8565021  79.9491835
  85.4527950  30.0065827  86.5443420  85.5115891  30.8553386  86.1057186
  85.0351715  30.1992226  87.3838139  44.8121322 103.9102755   0.7979540
  45.2708781 104.1722117   1.5961794  44.8784698 102.9554568   0.7859282
  58.1139166  15.1976108   5.2041010  58.2298166  14.9911880   4.2766337
  58.5247786  16.0554170   5.3117136  65.8980525 101.4043008   6.9502215
  66.0162032 102.1680222   6.3854174  65.2339328 100.8778010   6.5052752
  23.4155334  88.9375339  18.9235167  23.6291469  89.6514641  18.3227686
  24.2530406  88.5042177  19.0879874  81.5119249  27.2173929   1.1621813
  81.0648043  27.5553560   0.3862338  82.2229654  27.8388356   1.3185839
 107.2012901  44.8411894  74.7772169 107.5056744  44.2109442  74.1242504
 106.9883823  44.3083572  75.5433702  13.9587367  76.1320768  14.0192561
  13.5712875  76.0578094  14.8913817  14.1267932  77.0681392  13.9107470
  82.7753353  25.7230473  74.8846674  82.9646778  24.9116445  75.3558445
  82.9352760  25.5091524  73.9654827  98.8812923  28.0546474  69.7198105
  99.5003510  28.7845922  69.7328758  98.2392788  28.2729626  70.3953791
  83.2352543  16.0941350  66.5753984  82.3642159  16.4330888  66.7818785
  83.5781479  15.7875550  67.4148417 115.5963773  90.7889519   0.9726195
 114.6952504  91.0768638   1.1185793 115.9952325  90.7999287   1.8426852
  12.0644039   7.7277058  27.2892952  12.0023865   7.2060770  28.0894756
  11.2392182   8.2115138  27.2542191 113.0899143   0.6786413  45.3708363
 113.4858990   1.3773572  44.8500490 112.3983669   0.3253326  44.8112154
  94.8157883  45.2348375  83.8067818  94.9920464  46.0193825  84.3260574
  93.8712692  45.1017952  83.8868809 116.1932439  69.9250637   7.3553137
 115.5909270  69.3310474   6.9074397 117.0625705  69.6469842   7.0669035
  56.6958028  97.6847528  79.1041756  56.9405252  98.4964584  78.6597919
  55.7793981  97.5472867  78.8643217 111.3665771  59.1211987  59.8139668
 111.5248871  58.9668512  60.7452822 111.4670753  58.2601833  59.4080210
  83.8677692  23.9733982  59.2256260  84.1097164  23.1517625  59.6529531
  83.6824226  23.7266088  58.3195496  28.9215244  90.4322897   0.6194739
  28.0003131  90.6601558   0.4942660  29.0112556  90.3081499   1.5643458
  17.6247752  85.7762538  46.2039427  17.5464309  86.2317429  47.0421652
  17.8573096  84.8782669  46.4401297  89.5443249  46.8547106  65.8855057
  90.1480865  46.2139750  66.2612152  89.8683357  47.7000809  66.1963129
 105.5739307  33.8309884  48.2970810 106.2137794  34.3672848  47.8288841
 105.9485245  33.7193966  49.1708422 106.4688492  17.1029651  54.7203541
 107.3583698  17.1908367  55.0627756 106.5397453  17.3593616  53.8008642
 100.7099915  27.6797318  83.4171677 100.3519917  27.8341603  82.5429726
 100.0420952  28.0192018  84.0129089   9.0816159  71.1840582  73.3180237
   8.2088322  71.5707445  73.2476711   9.6795124  71.9042778  73.1179571
 110.0051498  11.1685324  90.2592850 109.3023014  11.7740417  90.0234890
 109.5679569  10.4746580  90.7528782  75.1205683  25.5748868  61.4737082
  75.6891727  26.1192274  60.9290886  75.4941130  24.6961594  61.4063835
 109.6162319  26.1783195  94.3337917 109.8037910  25.2484083  94.2060471
 109.5439339  26.5320611  93.4473038  96.1293221  41.2259722  85.2808189
  97.0203495  41.3370132  85.6124306  95.5678082  41.4611197  86.0194969
 111.4120579  20.5806923  91.7611599 111.3514805  21.1736751  91.0122108
 111.8170738  19.7887778  91.4075184  86.1824226  23.4542084  93.5606098
  86.2014103  22.6373816  93.0619431  85.2805710  23.5225892  93.8740063
  92.2783566  29.8577046  74.4070435  91.5957642  30.0892782  73.7772179
  93.0987740  30.0146842  73.9396143  30.2878059  81.0682545   2.5894122
  30.6011070  81.5440999   3.3586077  29.7810424  80.3398548   2.9483847
  80.8351994  46.5927792  73.3802700  81.6113758  46.5705824  73.9400005
  80.0999832  46.6338682  73.9918280  60.1049405 107.3219331  52.2988319
  59.7728807 107.1864383  51.4113569  61.0220224 107.0511745  52.2553635
  67.9785204  36.9430947  79.0904570  68.5529804  36.6526294  79.7988749
  68.1281853  37.8867364  79.0323830  91.0127449  40.0372744  45.8315325
  90.3818035  40.2401972  45.1409006  91.0821056  40.8465958  46.3379145
  33.1466800 102.9621850  69.9953508  32.6939183 102.1637570  70.2669239
  33.5904628 103.2668864  70.7868290  94.0595687  79.2985235  14.0800147
  94.4963706  79.2965899  13.2282786  93.5993446  78.4599553  14.1150717
 110.0010777  41.9510984  74.8700666 109.9491501  41.0189915  74.6586275
 109.3715858  42.0708275  75.5811501 100.6226349  10.7898605  65.6528807
 101.2279224  11.0024416  66.3632822  99.8642635  10.4044199  66.0916615
  90.9028053  18.4482014  65.7805204  91.4892292  18.0288100  65.1508760
  90.0270653  18.1649661  65.5176640  31.6335898  97.5654387  48.0642176
  30.9694320  98.0616330  47.5857639  32.4447709  97.7234971  47.5812769
  27.9273570  72.4796460   6.3401370  27.4473632  71.9572388   5.6975512
  27.3332275  73.1982837   6.5564780  47.3686486 107.0599934  49.5234156
  46.7564374 107.6925619  49.1475391  46.9202310 106.7249631  50.2998877
  22.5225604  78.6395989  25.6911520  21.6556705  78.2957612  25.4755072
  22.5739921  78.5784398  26.6450171 105.1236153  18.4410322  83.2361889
 104.7461510  18.5811949  84.1045856 104.3940449  18.5807979  82.6325130
 108.2358360  13.0723965  80.3356457 108.6954784  12.2478664  80.4941177
 107.3802280  12.8084481  79.9972820   6.3640655  48.0473433   7.9049448
   6.5346397  47.4658422   7.1640067   7.2068179  48.1174467   8.3533625
  93.6660576  63.8285208  81.1461639  94.5541382  63.6895609  80.8171940
  93.1406498  63.1595135  80.7072926  90.4351425  18.4008467  61.4286184
  89.8669052  18.7332702  62.1234846  90.3074837  17.4523962  61.4480257
  21.4941639  33.3076143  76.4868784  21.8314785  33.1259537  75.6096935
  20.5613179  33.4765077  76.3545465   8.4917874   7.0168686  53.6292696
   7.7009720   6.7720771  53.1487417   8.5026688   7.9735923  53.6010933
   3.6940331  29.4160748  67.0696306   3.1867356  29.6989822  67.8304434
   4.1735501  30.1984024  66.7971182 101.7286873  36.2141347  86.9264507
 102.0187759  35.3762889  87.2871304 101.6813946  36.7974639  87.6838875
 110.7073993  75.2061854   4.6339278 110.3730220  74.3777345   4.2902808
 109.9968451  75.5434094   5.1794867 108.6639309  40.0883722  65.9059811
 108.3352947  39.5101666  65.2175713 109.5814896  39.8371816  66.0119534
  51.5277732  64.2145173  13.7924246  51.7543758  63.2888476  13.7028937
  52.2412265  64.6791504  13.3550124  23.2596058  17.6178801  39.5161033
  22.6050801  17.8779066  40.1643372  23.8599915  17.0483220  39.9971175
 110.5180377  55.5529521  41.7369036 110.2676696  56.3283803  42.2391562
 110.2472037  55.7505651  40.8403353  51.2866670 110.0957424  60.5897951
  50.6935292 109.3661018  60.7687998  51.7545873 110.2316995  61.4136839
  31.0657085  69.2023419  27.2213606  31.3223327  69.8653899  26.5804724
  30.1102412  69.2529808  27.2488837  23.8923592  21.7433786  74.9203396
  23.6369938  20.9000421  75.2942467  24.8258824  21.6486621  74.7311258
  14.1070027  17.5054324  37.9053211  15.0540203  17.6424956  37.9298615
  13.8646931  17.3437715  38.8171220  99.5511341   8.8716388  78.5239220
  98.6463261   9.1405082  78.6828232 100.0798702   9.5497692  78.9444113
  97.0197010  80.6738949  86.6980362  97.6680565  80.2043247  87.2227955
  96.9395733  80.1562023  85.8969021  48.0088008  86.7324720   9.5767645
  48.6640132  87.2327553   9.0903048  48.0246318  85.8634911   9.1757063
  51.2714637  49.6517764  -0.0652261  50.9902156  48.8260208   0.3288035
  52.2258628  49.6387081   0.0067858  78.5674334  28.9300847  57.6931667
  79.2889881  28.8386750  58.3154488  78.7340784  29.7641230  57.2540283
  67.5834227   6.6593897  87.6418495  68.3257484   7.2592229  87.5684738
  67.1673441   6.6867077  86.7802429  88.6259079  22.3085093  86.3649559
  88.9863873  21.4603567  86.6236591  88.6699009  22.3058677  85.4087734
 101.1674404  21.6696405  75.2192402 100.8306980  20.9565234  74.6767473
 102.1059895  21.4949942  75.2888298  42.6640475  99.8749600   3.5291819
  43.0667747 100.7334624   3.6596446  43.2434905  99.4300853   2.9106669
  75.8209801  26.2060952  70.7170010  75.0545120  26.7258120  70.4748058
  75.6059980  25.3167987  70.4356289  90.2878857  48.2406044  80.8086205
  89.8382950  47.3969269  80.8566475  91.2065697  48.0324650  80.9787273
  78.8140631   3.9102930  75.5669403  78.8993073   4.0012300  74.6178913
  77.8712463   3.9493784  75.7275724 103.0496025  55.5840969  89.7509670
 103.9936256  55.7383633  89.7156906 102.9586792  54.7660160  90.2395344
   2.2524685  20.2343273  30.5292320   2.5168747  21.1271358  30.3073812
   2.7030033  19.6847677  29.8879600 107.2678375   9.6150166  57.1247387
 106.4697266   9.8771548  57.5835848 107.1947956   8.6642700  57.0412064
 111.5438652  17.2134852  76.0954618 111.4655399  16.3013554  76.3749552
 110.7043362  17.6088572  76.3302231 105.2858734  20.4218960  90.4123974
 104.9720001  19.7967052  89.7590542 105.0078773  20.0523496  91.2504768
  44.7458518  46.6510795   2.6839785  43.8177741  46.8243913   2.5262980
  45.1053394  47.4968533   2.9516844  57.5892448  34.2269206  82.2930050
  57.7894020  33.2909203  82.3014450  56.8431950  34.3176675  82.8857994
  96.4822292  22.2055769  71.4100790  95.7461834  21.6437554  71.6525936
  96.3665867  22.9940486  71.9403362  66.9747907 107.0642816  60.7262182
  67.7748281 106.7173650  61.1209726  67.2261506 107.2840177  59.8291302
  84.7440147  43.4136486  75.7407188  84.2834854  43.4809828  76.5771484
  85.6503963  43.2215118  75.9811306  72.5732851  18.8680756  84.0002441
  72.0293570  19.6557117  83.9979744  73.3771753  19.1334403  84.4469833
 100.3857869  58.4615363   1.6838030 100.9596604  58.8695852   2.3321776
  99.8273963  57.8746976   2.1937518  14.8415149  48.9066784  18.8602976
  13.9258636  48.6915742  19.0379195  15.0654090  48.3837698  18.0904536
  48.1087571  97.4317705  88.3332634  48.5706884  97.7245091  87.5476742
  48.7751371  96.9752025  88.8467979  65.1244211  29.0845013  79.4129419
  65.4539347  29.8184872  79.9315166  65.8316135  28.4397793  79.4340181
  11.1862434  53.1843828   2.1330218  11.6405452  53.1774680   1.2905364
  11.5667308  53.9256088   2.6042418  23.9600909 107.3905526   3.1585745
  24.0888942 106.5015088   3.4890894  23.9059127 107.2873698   2.2084956
  51.5513385  64.3062316   4.5902113  52.3792709  64.6504073   4.9253230
  51.2863887  64.9329553   3.9169745   7.4947304  22.8581142  84.8414803
   7.9881901  22.0383382  84.8150921   6.5937561  22.5896502  85.0215340
  14.4169391  74.1226350   5.7603411  14.2323268  74.7707151   6.4401488
  15.2885402  74.3539177   5.4393153 107.3412323  30.4086065  84.3990803
 106.6136551  30.1287794  84.9545670 107.2535515  29.8805714  83.6055279
  22.6979221  95.4275428   2.4366717  22.9959071  95.9901009   1.7218546
  22.2556270  94.6995340   2.0000891  95.6449223  42.6993227  93.6753082
  94.8075771  42.3351955  93.3880901  95.4265976  43.2227945  94.4463825
  14.2142147  14.1319811  59.3369293  14.0824074  14.2213178  58.3930635
  14.7656578  14.8777890  59.5734072  22.5965560  96.4087258  12.1335654
  23.4552062  96.0257922  12.3133711  21.9803775  95.6885300  12.2672514
   0.4516358  11.1091030  75.1925898   0.9039349  11.1326444  74.3493176
   0.6455082  10.2401817  75.5441856  12.0428909  78.9456807  18.7411551
  11.8898261  79.6685754  18.1326918  11.1768687  78.5625754  18.8806490
  12.4425453  34.5540500  83.1927013  11.8523163  35.0833797  82.6563454
  12.0104927  33.7021708  83.2548618  24.5044292  83.7360559   3.2601790
  23.6971820  83.8514362   2.7589087  24.6467746  84.5828257   3.6832003
  14.9936259  62.4968408   0.6044344  15.6430495  62.6471315  -0.0825067
  15.0559009  63.2694350   1.1660819  62.8932267 108.9481426  37.1824956
  63.8454419 109.0108023  37.2572947  62.7475148 108.4948707  36.3521051
  38.1310028  23.3738232  92.3953724  38.9653630  23.0349517  92.0709610
  38.1127400  24.2851424  92.1031475 114.9786949  71.7716551  85.8071995
 115.6860256  71.9292641  85.1818371 114.2225266  72.2232389  85.4323292
  94.9496269  43.4002972  71.6481543  94.4942188  44.2055178  71.8940353
  95.4946518  43.6515331  70.9024620  29.9224342  99.5162640   7.9528098
  29.5932639  98.7054835   7.5648455  29.8564304  99.3739854   8.8970713
  87.8626902  42.9056405  24.4126372  88.4581453  43.6507272  24.3319468
  88.0056650  42.5799226  25.3012900 114.1341371 104.9836312   2.2205214
 114.4658250 105.8048497   1.8574671 113.1832713 105.0930939   2.2308974
  58.0873550  87.1615897   6.1397891  57.8991092  87.9787384   5.6782012
  57.5381816  86.5090500   5.7052474   4.5788521  23.6267638  73.2075977
   4.7782559  22.7031660  73.3606863   4.0533966  23.6289287  72.4075174
   1.7017693  67.3163462  87.8373718   2.3450989  66.6492510  87.5979042
   1.3235897  67.5947237  87.0032787  26.3691009  73.6123060  26.0638480
  25.6637729  73.2392059  26.5925555  25.9192241  74.1156433  25.3852515
  89.5857716  77.8949976  83.4379101  88.9290142  78.5288286  83.1495476
  89.0759182  77.1588278  83.7760448  46.8155349  70.7211803  19.8447184
  45.9112323  71.0315655  19.7985129  47.3431743  71.4851926  19.6120982
   2.4170840  93.0270348   3.6367850   3.0580962  92.5713740   4.1824107
   2.2267402  93.8343941   4.1144614  22.4724144  36.3662648  74.1968632
  21.8614048  36.8984938  74.7064018  22.8214688  35.7344151  74.8254776
  93.5499078 107.1645372  70.3996897  94.1163045 107.6423626  71.0055876
  92.6764184 107.5242372  70.5541801  63.0254727 100.0644802  87.1888638
  62.3749715  99.3915879  86.9881439  63.2241803 100.4654937  86.3427353
  25.0556403 102.1319382  93.7227249  25.8263141 101.5934699  93.5428810
  24.3139964 101.5437316  93.5805416  13.5791821  58.9764357  67.1055651
  14.4515843  58.9029694  66.7185926  13.3842892  58.0957079  67.4258232
  99.5766354  14.1659999  69.7808266  99.5553207  13.9446068  70.7118273
 100.0148582  13.4220219  69.3676853  41.2832702 105.0204049   4.1825442
  41.2569774 105.6851350   3.4943060  41.1087383 104.1968833   3.7269454
  13.5168213  53.2075644  90.9376717  13.4180970  53.8970613  90.2811146
  13.0261750  52.4664545  90.5823517  95.2010441  75.7276964  37.7957296
  95.8231544  75.0593948  37.5083494  94.9465561  75.4548073  38.6772037
  85.1879406  15.6368828  90.2945518  84.9306774  16.5582359  90.3285408
  84.8868752  15.2732658  91.1272430  82.2859669  32.6116681  65.6279707
  81.6474819  32.3749518  66.3006830  83.1062412  32.7292562  66.1070871
 108.5717583  29.1843629  70.6841326 108.8567543  28.5056949  70.0722313
 109.2015457  29.1380644  71.4034796 114.0810490  22.1843696  59.8498011
 113.8325214  21.2699056  59.7148275 113.5131741  22.4846697  60.5594254
 106.5886021  14.1707742  54.4605160 106.8316364  14.9900532  54.8917341
 107.0377731  14.2022836  53.6158371  73.9076484  92.1625243  16.4583449
  73.8564075  91.5626941  15.7141642  74.6505130  92.7314816  16.2566714
 106.7332935  39.3411064  53.1065559 107.5936985  39.3466020  53.5259819
 106.6989136  40.1645327  52.6197052  17.0433087  23.7714386  63.0279398
  16.9761700  23.7740970  62.0731020  17.9071469  23.3996749  63.2062674
  26.3397372  91.3700853  12.3328547  26.7901481  92.1820222  12.5654845
  26.1657012  91.4529000  11.3952593  93.7116432  45.6581497  69.3221045
  93.6974907  46.1080170  68.4773302  94.2485905  44.8804045  69.1703224
 107.5096130  38.6160374  63.8142967 107.2981358  38.8388634  62.9077339
 107.9695892  37.7787662  63.7540913  15.4218144  68.2336807  74.2799091
  14.9266857  67.9342985  73.5173845  16.0294289  67.5181103  74.4669724
 114.9453831  57.2230721  58.2631063 114.4062901  57.6183605  57.5780106
 115.6265545  56.7476940  57.7874565   9.9068779  32.4189377  90.6697941
  10.1384110  33.0902529  90.0279522   9.1326279  32.7672005  91.1119366
  13.1050534  57.7947378  51.5192699  12.7271027  58.3442211  50.8326483
  12.4018711  57.1901274  51.7563725 111.1123371  39.6022868  87.9965210
 111.0632324  39.6224236  88.9522552 111.3040447  40.5064106  87.7474403
  94.9641800  11.1254120  58.4051132  94.8287392  11.9558299  57.9487181
  95.8162594  11.2220311  58.8303852  33.6495269  98.9103375  25.3096537
  34.1340507  98.3101664  25.8764605  33.5918487  98.4533320  24.4705729
  96.7373753  10.5886579  66.9315195  97.3542786  10.0203240  67.3926735
  96.9605637  11.4721262  67.2246170 109.8273659  45.9757280  82.0514011
 109.7659969  46.9309330  82.0443344 110.3426075  45.7746029  82.8326225
  89.0390873  35.8745790  91.1133671  88.5716724  35.3633499  91.7739677
  89.2356491  35.2458858  90.4188633  47.2385848  83.4154592  11.6297011
  47.4074138  83.8597141  10.7988219  46.6920436  84.0279303  12.1220545
  56.7903770  40.2718840  32.0869784  57.2172607  40.8634220  31.4672331
  56.7825664  39.4242106  31.6424326  99.3211937  46.5527821  63.7319517
  99.3338013  46.6525269  64.6838570 100.1321125  46.0863543  63.5292435
   1.2424797  35.7586098  67.9560757   1.8456215  35.0916433  67.6280499
   0.3735394  35.3753471  67.8365374  11.7899842   7.7778441  84.4288635
  12.2214550   8.0775690  85.2290058  10.8578438   7.7740556  84.6463966
  66.8048191  19.3828261  71.7627764  65.9679461  19.5797646  72.1835995
  67.4606609  19.5712948  72.4340296  15.9973568  15.4907513  76.6772270
  16.4583821  14.8708463  76.1120653  15.1000828  15.4971397  76.3439322
  36.5521110  76.9441138  11.1683135  35.9711517  77.5624190  11.6114954
  36.9735587  77.4613009  10.4819254  60.1520313  95.2992974  20.0218348
  59.2346538  95.4880009  19.8242430  60.5614627  96.1606227  20.1038031
  72.5911713  43.5817671  89.5678139  73.2158613  43.7983465  90.2599716
  72.8625154  42.7160692  89.2625713  91.9777107  16.4310515  90.5045033
  92.3142815  16.5164220  89.6125031  92.5457001  15.7780123  90.9133434
  69.2773134   5.6677293   8.6635737  69.8168547   4.9192333   8.9182715
  68.7205965   5.8317422   9.4247489 104.8040867  35.9893131  74.7983265
 105.4149437  36.2216330  75.4976940 104.0357494  36.5368962  74.9597120
  30.8726180  74.7680448   7.0653586  30.6791461  75.6516515   6.7522387
  31.6616500  74.5120905   6.5877203  84.9636078  44.9362278  63.8858175
  85.3576946  45.1074266  64.7411585  85.0193977  43.9862871  63.7822151
  79.1599239 109.9578057   9.8789267  78.6160529 110.7404099   9.7897105
  79.0055907 109.4656764   9.0725569   5.7329697  31.2813973  84.9284077
   5.2048344  31.5548706  85.6784153   5.7854313  32.0609474  84.3754292
   6.7770809  26.5565658  83.4889793   7.5768894  26.4327574  82.9779053
   6.4179749  27.3862839  83.1745911  65.2925759  92.7988254  94.8879814
  66.1400586  93.1981980  94.6917439  65.3607732  91.9094430  94.5407295
  66.6386283  38.2533894   6.8090968  66.1667598  39.0711425   6.9667391
  65.9880985  37.6741789   6.4121584  40.3565658  72.4344574  15.6036524
  39.9663032  72.1647988  14.7722678  39.9232734  73.2615028  15.8145575
  16.7681373  71.2855397  12.1646266  16.3106979  71.1309121  11.3381438
  17.4813617  71.8814896  11.9357733   7.7882428  36.4907908  74.0212870
   8.5282082  36.1471677  73.5206795   7.9614014  36.2181616  74.9223518
  21.5854592  29.3254662  80.6229782  21.1952252  29.8820114  81.2969208
  21.2454266  29.6733689  79.7986126  85.8642578  16.8551874  94.8114300
  85.0318527  17.0234787  95.2530384  86.5031052  16.7901230  95.5212688
  97.6312542  30.6364751  75.2956820  97.5512123  31.2826133  75.9973478
  98.5744953  30.5102468  75.1927853  40.1627887  74.2922066  24.3141226
  40.4809154  74.1665552  25.2081255  40.7072986  73.7117480  23.7823348
 115.0306034  39.9002218  79.6784735 114.4569302  40.2669191  80.3512764
 115.2682590  40.6493473  79.1320610  84.0536308  63.2307959  81.3939285
  84.7851181  62.6884508  81.0989475  84.0558529  63.9803267  80.7985878
  44.7380889  75.3763948   9.9204306  44.4074977  75.8856831  10.6604056
  44.8883689  74.5019482  10.2795844 115.0759506  18.9013028  66.3378286
 114.5280075  19.4065213  65.7372141 115.9676361  19.0303552  66.0145998
  96.1707401  66.1878061  74.1983366  95.3854847  65.9073687  74.6684074
  96.7848682  66.4409399  74.8875427  19.7010941   9.7099555  85.0498199
  19.5261139   9.2611742  84.2226505  18.8346142   9.8672479  85.4249287
  79.9079878   8.6535262   2.1650939  80.8028395   8.4705924   1.8787245
  79.3670637   8.0410003   1.6666560   1.5448708  80.3979588  75.3352642
   1.7347950  79.5395708  74.9566793   1.8867630  80.3470135  76.2278700
  30.8948845  10.3903770  89.8634052  30.1379532   9.8739642  90.1402092
  31.4987129   9.7487575  89.4893169   5.8675904   0.8981220  65.9919214
   5.9907765  -0.0480314  66.0684252   6.4150280   1.2677163  66.6847038
   2.8810734  14.4574785  64.4914532   2.2396130  14.4547856  65.2019119
   3.7219090  14.3189824  64.9274063  96.5829277  11.7461562  48.4995699
  95.8130646  12.2048008  48.8359928  97.2718525  12.4106109  48.4887791
  98.9541340  20.5255175  71.3006973  98.1801796  21.0690045  71.1529112
  98.6223221  19.7577059  71.7660952   2.7567047  12.1345365  51.3379192
   1.9693608  12.6682043  51.4452410   3.4651799  12.7703440  51.2376785
 115.9820336  63.8261174   9.5328383 115.7095069  64.6623342   9.1550784
 116.7252797  64.0476225  10.0938658   4.1074974   7.3437499  36.7152838
   3.4188301   7.9341649  36.4097170   4.0820963   6.6087388  36.1026339
  85.9276265  96.6608058  22.8561167  85.4135198  95.9330998  23.2059245
  86.4638156  96.2663899  22.1682410  17.6578743  35.4095506  39.0067629
  17.4429495  36.0032605  38.2873587  18.6070759  35.4852151  39.1043238
  83.8566101  17.8360128  29.2929225  84.7581780  17.8378677  29.6144824
  83.7264532  16.9518804  28.9499812 102.6076329  21.0550498  44.9823527
 103.0341852  21.8763303  44.7378497 101.9159186  21.3161516  45.5902915
 109.6619958 107.9296361  89.9465708 108.9263934 107.4545108  89.5600848
 109.4029731 108.8500129  89.9013094 113.2456464  92.2950803  45.0805621
 112.4381131  92.7927624  45.2087645 113.0573148  91.4331828  45.4519038
  99.5723594  50.9638643  25.8230547 100.2774656  50.5130719  25.3584628
  99.6120680  51.8649148  25.5024867  68.2699841  77.0619546   5.8577208
  68.0700272  77.9294453   6.2094454  69.2187113  77.0678268   5.7307677
  96.3595551  82.2603117   5.5627589  96.5287084  83.1022535   5.1399664
  96.9999427  82.2159181   6.2728076  96.3148040  74.9367438   3.1636672
  95.9684104  75.6869636   2.6805357  96.3678759  75.2394472   4.0701918
  86.5808314 103.2740317  47.2793059  86.3289231 102.5804053  47.8889327
  87.2016829 103.8114272  47.7712206   4.4909937   7.0867204   0.2099566
   4.3067009   7.9143237   0.6541876   3.7083227   6.5559339   0.3580336
  79.7251147  83.2813416   7.4175028  78.9623732  83.8305746   7.5986151
  79.3658322  82.5088821   6.9810919  81.7424125 104.7262011  14.2806010
  81.1144227 105.3578387  14.6311717  81.2446374 103.9124928  14.2010550
  86.4157933 109.7174559  28.4608416  86.9697350 108.9369021  28.4499411
  85.9444493 109.6882973  27.6282458   7.7858413  82.3695122  37.2296099
   7.5587524  81.5322719  36.8250136   8.1609119  82.8862272  36.5164809
  26.0576565  18.0020856   5.7645468  26.2683994  17.0797347   5.6193213
  25.3678400  18.1931018   5.1290183  92.8600806  93.3559404   4.0776209
  93.0507630  92.8121529   4.8419337  91.9085807  93.3113800   3.9833407
  34.5333082   9.4289254   2.7502303  34.9291784  10.0258970   2.1152930
  35.1214106   9.4575834   3.5049109  98.8558978  97.4331437  11.5793089
  98.6685819  98.3635102  11.4545683  98.0177611  96.9972955  11.4250521
  61.6213197 108.0197631  24.9926714  61.2204188 107.6792823  24.1929297
  61.9428390 107.2422849  25.4491572  99.1831416  83.3537899  36.8447260
  98.8942689  83.7997590  37.6409010  99.0778035  82.4226819  37.0401053
   5.3003819  26.2121724  46.4095168   5.9119398  26.9235658  46.2194113
   5.7442362  25.6860971  47.0747046 104.9838704 100.5296241  21.2617545
 104.9309510  99.6298657  21.5840296 104.6870536 101.0653697  21.9973521
  55.8355951  57.9946995  93.2898045  55.9887266  58.9364290  93.2127953
  54.9158907  57.9216576  93.5448360  22.7539123  94.1204344   6.1954741
  22.0151294  93.9678727   6.7846732  23.1922591  94.8913847   6.5556387
  11.6575558  32.2003984  26.2362151  11.9401247  32.4097966  27.1264605
  11.2043841  32.9886865  25.9371142  37.7219033  85.9493256  89.1269588
  38.5474491  85.4648876  89.1215134  37.0580196  85.2889824  89.3255711
  71.8106651  51.6738081  94.2038345  71.0458899  52.2279596  94.0480423
  71.8062305  51.0498953  93.4779263 101.9746465  95.3204881  37.3484568
 101.5684575  95.3974114  36.4851336 102.1723527  96.2222634  37.6013426
  64.0452641 106.3986741  25.2073435  64.6762175 105.8821879  24.7059683
  64.3126100 107.3067818  25.0655608  15.4456104  84.1906510  48.8390688
  15.5163635  83.6407409  48.0587916  15.8600009  85.0163351  48.5885481
 112.6815117   8.2872438  31.3963179 112.2896469   8.2536935  32.2689871
 112.1853888   8.9647435  30.9368758  33.3125670  26.5655374   8.6514811
  33.3831103  25.6121301   8.6037116  33.5064060  26.7745542   9.5652442
  17.8498137  52.8753471  67.2877884  18.6291790  53.4305048  67.3127270
  17.9031527  52.3515940  68.0872107  95.1752633 104.5228349  72.5281672
  94.4516248 105.0604640  72.8499178  95.7333344 105.1347743  72.0482401
  55.4630184  31.3225460  82.6520920  54.5452070  31.5848684  82.5810814
  55.4377556  30.3659129  82.6732731  45.6732559  48.8819170  88.4215832
  45.0153542  48.2898855  88.7861347  46.5002012  48.4095907  88.5180187
   8.3839304   2.0511293  34.7227339   8.9118607   2.1733760  33.9336924
   8.7094576   2.7123260  35.3335337   8.7311042 103.8657532  36.5007548
   8.3931316 104.0778886  35.6306986   9.6327747 103.5844956  36.3454299
  42.6844597  70.4650593  87.6655293  42.5023556  70.0203991  88.4933853
  43.3280182  71.1368036  87.8909683 109.5802468 107.2819625  32.1941714
 110.0415963 107.1616135  31.3641696 109.1537064 108.1346951  32.1096568
  79.4385165  99.6694909  53.5865073  79.2645425  99.9344407  52.6833109
  78.7942881 100.1508485  54.1056399  80.5159205 100.3715668  46.5136580
  81.0611743  99.7731458  47.0243792  80.0741500  99.8091708  45.8774333
  81.0556030  66.7621899  87.9351234  81.1515617  66.6990948  86.9848347
  81.9511127  66.8530464  88.2607651  41.8743563  64.5636606  94.0879059
  41.1462879  65.0733709  94.4433594  42.5620413  64.6344805  94.7499561
 110.7680339 104.1135131  21.0055308 109.8289031 103.9682971  21.1203436
 111.1054486 103.2705699  20.7025008  39.0450168  77.7514601  59.1055441
  38.4559751  78.4617805  59.3599319  39.9217415  78.0921793  59.2830181
  16.9065458  21.2776374  43.4225134  16.5826924  21.4873981  44.2985014
  17.1869785  22.1192407  43.0629496  46.5461111  65.4211760  81.4043999
  46.6254377  66.0783720  80.7129955  46.9460344  64.6343565  81.0339832
  32.3472340  14.2556810   8.4114985  32.0571358  14.7956943   7.6763396
  31.5801794  14.1940402   8.9807562  16.5916140  64.4741201  22.5814490
  15.8021767  63.9621686  22.7573065  17.0592529  63.9716672  21.9143061
  16.6796477  13.4699773  24.9363093  16.4931471  13.4077834  25.8731036
  17.2459919  12.7200126  24.7545390  30.0662739  27.3079156  50.0992159
  29.8433287  26.4886522  49.6572546  31.0121710  27.3942994  49.9806742
 104.7021598 104.4239674  11.3186411 105.5053967 104.9398528  11.3886885
 104.0227813 104.9869929  11.6896967  36.8432736  55.0819635  87.1429157
  37.7497149  55.2975607  87.3622608  36.6719890  54.2639589  87.6095676
 115.5731666  29.9272012   9.5379500 115.4408348  30.5842256  10.2213530
 115.8437550  30.4311132   8.7704234  94.2924297  20.5242442  13.2379870
  94.6042133  19.6368121  13.4154372  93.8576949  20.7917642  14.0477232
  41.1018259  32.0916509  27.7298026  41.8476946  32.6089143  27.4259238
  40.6976206  31.7602014  26.9279341  96.0863245  12.2630405   5.4752497
  96.8006957  12.2133779   6.1104159  96.4907658  12.0254564   4.6408515
 105.5700606  89.5746527  14.8767714 106.1723107  89.8890601  14.2024760
 106.1355895  89.3405066  15.6127028  32.5184710  21.3011693  28.7139086
  33.3549053  21.3449001  28.2505564  32.1224911  20.4820108  28.4165625
   0.7411487   9.5957231  11.0442214   0.4760201   9.9698161  10.2039961
   1.3552887  10.2338266  11.4073901   5.4722136  54.2120838  92.9422855
   5.9401202  53.3770466  92.9400444   4.7009176  54.0529871  93.4863663
  83.6577577  89.9422274  37.3550944  84.2006987  90.3509055  38.0291991
  84.2400187  89.3151031  36.9262270  98.3718509  98.5322295  28.1322627
  97.6070708  98.1118832  27.7390151  98.0232114  99.0047942  28.8881545
  46.6481287  13.4406900  34.4912962  46.3502676  14.0239953  33.7932639
  46.2039835  12.6110887  34.3160204  30.3550942   9.5930623  27.6487593
  30.2572949   8.7498616  27.2064070  31.2957890   9.7684287  27.6247744
   8.5046733 103.7564765  12.8049616   8.4388793 102.8481112  13.0995326
   8.3160651 103.7184535  11.8672995  19.6251423  29.9932813  21.4536719
  19.7325880  30.3577565  22.3322157  18.9262039  29.3459367  21.5467600
 104.4343585  91.9491301  48.4525923 104.6797294  91.0688220  48.1678347
 103.5016078  91.8833743  48.6572508 103.5671509  19.2037772  25.8491568
 104.4032920  18.8670873  25.5270724 103.1883800  18.4745073  26.3400034
  85.3816289  95.3697215  19.8652510  86.2826938  95.1450644  20.0973086
  84.9481601  94.5251261  19.7427802  10.7690031  12.5999736  63.8622241
  11.1820395  11.7564391  64.0468268  10.0363905  12.3865699  63.2843260
  15.3291256  21.8134355   9.8136096  14.8297197  21.5059327   9.0571265
  14.8609526  22.5946283  10.1081995  92.6238907   0.9422349  28.9815478
  93.0566752   0.6623267  28.1749587  93.2710433   0.7824086  29.6684794
  97.6540917  80.6377898  36.6552119  98.5694713  80.3737794  36.5624480
  97.2180671  79.8668419  37.0181994  57.3618335  69.4696997  43.4025912
  57.8567559  70.2562247  43.1731085  56.6633779  69.7850571  43.9761214
  39.6500237  38.6896943  29.4515662  40.2283842  37.9328679  29.5461421
  40.2082855  39.4432020  29.6433882  74.3598908 103.1174241  23.9040045
  74.9410957 103.4337531  23.2123618  74.6925277 103.5273276  24.7024779
  76.3403177  93.2766724  73.9989948  77.2728491  93.1848621  74.1944170
  76.2980890  93.3106804  73.0433321  74.8851651  90.0443683  12.6305441
  75.3523201  89.2444645  12.8716902  74.0472859  89.9798046  13.0888228
  70.1362294  85.3991233  27.9620986  69.7452086  86.2372790  27.7154688
  69.4672913  84.9706493  28.4961085  28.0947811  50.8635854  13.2608752
  27.1872170  50.9650277  13.5476927  28.4803135  51.7323446  13.3742194
  70.8004999  64.1672516  94.6814728  70.4784155  63.2696629  94.5988369
  70.3558302  64.5108891  95.4563427  77.7463055  73.0173254  77.8184605
  77.6007271  73.8652229  78.2381153  77.8860044  73.2278728  76.8952131
  81.3012952  95.9274827  71.0324244  82.1014756  95.4528294  70.8073573
  81.3067693  95.9662448  71.9888262  49.3063910  22.8883123  33.5723071
  50.1295550  22.4896859  33.8546710  48.7341196  22.8232335  34.3368392
   4.7961838   5.7954692  47.0032553   5.4618771   5.2172040  46.6308360
   4.3419678   6.1586761  46.2429862  39.2289765  35.4138326   9.3303923
  38.5367281  35.3118753   8.6772208  39.1995079  36.3406133   9.5679621
 115.7369674  22.3095512  21.1267237 116.3979280  22.5813484  21.7635016
 114.9613655  22.8230380  21.3525729  44.8600561   1.2266254  15.0714068
  44.2423327   1.9276857  14.8636393  44.3133242   0.5191612  15.4131941
  13.9829332   1.0018873  41.8560748  14.1193516   0.9891319  42.8034167
  14.2896254   0.1454114  41.5583758  38.6205179  39.8701238   0.5980639
  39.4581492  39.6816205   0.1748900  38.6332876  40.8160829   0.7437281
  39.6244764  60.9913206  82.5399113  39.6254897  60.2417564  81.9446087
  38.8398218  60.8712864  83.0748272  88.8460463 107.1810685   9.3071322
  89.5738954 107.0409356   9.9127917  88.1048554 106.7341147   9.7159056
  93.2514924  89.5411430  27.7824454  93.5150594  90.1057111  28.5090975
  92.4868316  89.0686045  28.1114249 113.6159676  64.8674224  49.6970801
 112.6655692  64.7908829  49.7814040 113.8504714  65.5910490  50.2781157
 104.5368308  81.0691701  42.9158072 104.7897071  80.5694638  43.6920695
 104.7564620  80.4969607  42.1805720  46.9294436  13.4418964  19.4333510
  46.4474470  13.5068464  18.6089186  47.6409800  12.8292941  19.2471842
  99.1702479  84.5355783  46.6844325  99.6077603  84.9038730  47.4520068
  98.2385415  84.6850429  46.8450980  46.8028450  83.0411816  73.2916641
  46.4857531  82.1526527  73.1298065  46.0478306  83.5020065  73.6574793
  49.9788517 104.0266810   7.5998072  49.0776962 104.0741359   7.9190211
  49.9003071 103.6785088   6.7116408  30.7652743  40.8347272  21.9347338
  31.7020590  40.7330465  22.1030478  30.7116778  41.0570382  21.0052542
  87.9235095  98.0314694  12.1812682  87.2335690  97.4778424  12.5469260
  87.4547595  98.6982117  11.6793112  34.5199711   1.9337606  26.5295271
  35.2440817   1.6181850  25.9888796  34.5362646   1.3711738  27.3037867
  46.9313986   0.2796602  66.8329577  46.6658480   0.3926610  67.7456049
  46.3930590   0.9049176  66.3476901 116.3641614 101.5358792  24.0618662
 115.4118556 101.5171777  24.1566710 116.6875428 101.0002862  24.7862963
  34.9180920  45.3086137  25.7117991  34.5012362  45.8336019  26.3950686
  34.2098171  44.7713422  25.3569560  89.8975486  82.6093756  24.1012530
  89.7191161  81.7635785  23.6901335  90.7454938  82.8746663  23.7451128
   8.9998878  59.8456134  48.6833052   9.1180957  60.4220144  47.9283099
   8.1234992  59.4780145  48.5691123 101.7429465 102.3518811  54.0781645
 102.5445289 101.8700515  54.2819647 101.0440415 101.8338452  54.4774203
   5.0970347  33.6180066  37.5762515   4.6274883  33.5700177  38.4089903
   5.5871565  32.7971124  37.5299983  25.5341370  15.5692243  16.5319972
  24.9049647  15.2288532  15.8959727  26.3897926  15.3864526  16.1438231
 101.2003344 101.0837613  12.1672396 101.4205140 100.3577672  12.7509169
 101.7782039 100.9683572  11.4129309 104.7142667  95.9479438  18.7501196
 105.1115674  96.6438113  19.2737154 104.4070405  96.3895951  17.9584174
   3.9395744  21.6388797  25.7583670   4.0904171  22.5151681  25.4039816
   3.2499010  21.7599057  26.4110045  23.7532789  30.8381318  45.3276305
  24.7017796  30.7197999  45.3784232  23.4444601  30.0843953  44.8249011
  25.8984644  31.9088125  30.2399973  26.0266525  31.3713311  29.4583849
  26.7830116  32.0659589  30.5703215  13.5705073   7.0086908   3.0158953
  13.3630116   6.5220498   3.8136153  13.9211399   7.8427028   3.3284812
  16.6732437  56.2019395  44.9280600  15.8866388  56.6950464  44.6949534
  16.6172392  55.4011869  44.4066290  83.0213165  54.4846773  88.2317448
  83.5746670  54.2924881  88.9887714  83.0578804  53.6894226  87.7002716
   6.0414184 107.7554856  13.5780577   5.0916923 107.6949082  13.4751086
   6.1695541 107.9553233  14.5053534  94.5755929 104.2630349  14.1233592
  95.3419942 104.4602118  13.5848670  93.8556928 104.7248898  13.6936430
  34.6243651  12.1931648  24.1178183  35.0236590  12.8862094  24.6436362
  34.0714533  11.7131566  24.7343497  19.8199207   5.7510709   7.0954184
  19.0684302   5.8602475   7.6781516  20.2168352   6.6209602   7.0508818
  66.2767696  87.0381546  94.3761826  65.5290890  86.5210342  94.6758366
  66.4547729  87.6419735  95.0972557  29.3773205  29.6057748  20.9108500
  29.8548157  29.6794175  21.7371706  28.4773237  29.8450994  21.1321406
  20.3390963  15.8901119  23.2560496  21.2458069  15.8504724  23.5602431
  19.8177464  15.9075116  24.0586237 114.7394288  -0.2405310  23.4227423
 114.0776480   0.4409932  23.5402445 115.1932133   0.0028371  22.6158480
  34.6896011  48.2590246   1.9615130  35.0767548  48.1068563   1.0994296
  34.1633303  49.0509462   1.8513255   4.9932606  36.0053205  17.8330950
   5.5460817  36.7064904  18.1780390   5.2168257  35.9594011  16.9035010
  18.0054171  19.2234992  27.1849970  17.1781046  19.2196559  27.6664309
  17.7970154  18.8098001  26.3473563  22.5472481  26.9284963  65.3691630
  23.3596451  26.4901304  65.1160388  21.8539030  26.3629007  65.0291590
   3.1619866  45.4592656  44.6917490   3.7699682  45.7197332  43.9998297
   2.3030979  45.4614496  44.2692046   1.7395003  22.3567771  27.5074534
   0.9365136  22.7266120  27.1404795   1.4734442  22.0001601  28.3549551
 111.2263030 107.9271756  49.2786746 110.7464808 107.1338568  49.5166831
 111.4994401 107.7793275  48.3732657 107.9494065 102.4147092  62.0944266
 108.0127067 102.7165185  61.1882643 107.2200984 101.7947732  62.0900111
  33.2879622   1.1245393  29.5884852  32.3543007   1.0316610  29.3990569
  33.4847576   2.0380019  29.3808894   3.5378391  17.4368285  25.4815726
   3.5485823  17.5970268  26.4252047   4.3199761  17.8811073  25.1542906
  25.3556759  17.1710777  41.8107562  25.9196551  17.6176881  42.4421839
  24.6658928  16.7754649  42.3435931  37.4787027  44.9969816  34.1843848
  37.6834328  44.2008638  34.6748118  38.2294495  45.1201772  33.6034922
   8.8827021   7.6734447  21.3450102   9.0730078   7.5886201  20.4107623
   9.7406847   7.7817344  21.7553477  86.5099144  58.4272623  91.5968132
  86.3281155  58.2012463  92.5090027  85.8872986  59.1255569  91.3944244
  23.6907751  13.9571142  14.7529654  22.8344710  14.3705510  14.8627142
  23.5221893  13.0222320  14.8704485  22.5540192  12.9341220  19.0970187
  21.9961531  13.2780360  18.3993487  21.9507057  12.7486991  19.8166422
  11.3453896  16.1315822  25.7187514  12.1574957  16.2746381  26.2048106
  11.5435202  15.4029416  25.1304869  88.0553550 107.2153483  20.4836611
  87.7059812 107.7602731  21.1888079  88.0187720 107.7749692  19.7079520
 107.4725932  82.4788581  45.6366400 107.5012463  82.0533620  44.7796874
 107.7634019  81.8033515  46.2492995  23.1338627  46.9212770  16.7052130
  23.2133371  46.4094590  15.9002642  23.0156214  47.8225564  16.4052920
  86.1699361 101.3218127  27.4363760  85.5693644 101.9497977  27.0349173
  86.9117803 101.8521701  27.7272753  20.3412325  31.6257524  31.2081103
  20.9171469  30.9508657  30.8488230  19.7861750  31.8836068  30.4721407
 111.5401429 109.2637025  27.3928122 111.4965552 109.3615113  26.4416174
 110.8534497 109.8420535  27.7247672 102.1780777  50.5494976  76.5927124
 102.4821854  51.4569712  76.6081667 102.0652676  50.3504944  75.6632519
  41.5557081  71.6048765  10.8785681  41.8397219  70.9094571  11.4718203
  42.2585375  72.2536134  10.9161047  36.0810358  12.8462076  81.0815577
  35.5069239  12.1979474  80.6736712  35.4844315  13.5071515  81.4329104
   4.3802578  23.7791395  15.2524809   4.4181282  24.7354173  15.2705912
   5.0766880  23.5005569  15.8471255  27.4865133   3.1300830   2.4673514
  27.6852018   2.6800775   3.2884745  26.7068655   3.6502218   2.6618533
 116.9882745  95.7481585  28.6543803 117.0366258  95.1202522  29.3752341
 116.7378301  96.5726004  29.0712790 102.6088017 107.5699244  26.8990759
 102.3643655 108.1308137  27.6352076 103.5062140 107.2987090  27.0922808
   9.7873909  57.4825143  33.3120684   8.9995081  56.9693136  33.4912257
  10.3941185  56.8586206  32.9134898  91.4933413  86.4126907  21.4229064
  90.8672494  86.3027297  22.1385531  91.0418052  86.9755803  20.7940154
  58.4049988  84.3578339  75.9289885  58.0206060  83.5692501  75.5460882
  59.2540789  84.4450283  75.4957628  42.2323877  13.2124709  12.4678092
  42.0246966  13.8286161  13.1702761  42.9124529  13.6517953  11.9571833
  15.3024275  14.3325376  21.0732512  15.8660681  13.7579440  21.5913062
  15.8811505  15.0375985  20.7830672  35.1837666  12.7714443  57.1828799
  35.0895197  12.9314899  56.2438731  36.1290867  12.7770137  57.3331027
   2.4702294   8.4950589  53.7410597   3.3982403   8.7280082  53.7134509
   2.1110565   9.0260171  54.4519095  17.9808266  24.8067569   8.3897547
  18.6756880  24.2551708   8.7491278  17.6568920  24.3203878   7.6316409
   3.9388049 105.9137736   6.9581370   3.7918056 104.9746714   6.8453745
   3.8404334 106.0603390   7.8989176  40.3964073   8.8047551  19.9605422
  40.0532181   9.2113923  20.7562212  39.9772818   7.9446935  19.9311785
   6.6971857  16.5826225  35.0414233   7.5321371  16.1746930  34.8118929
   6.4272625  16.1395358  35.8458189  13.5604317  23.6339139  34.6869425
  12.6078493  23.6032533  34.5982031  13.7644894  22.9440545  35.3183608
  41.9048262 101.7807293  90.5522346  41.5918541 102.0727062  89.6960545
  41.9714069 102.5834370  91.0694027  90.7571620  97.2862731  34.1769652
  91.6801137  97.1640645  33.9545683  90.7702989  97.8371535  34.9596457
 113.5234946  91.4246736  14.3197875 114.3866033  91.6228710  13.9564852
 113.1864089  90.7205473  13.7658839  35.2295191  30.1191568  27.9286627
  35.6028921  30.4996251  28.7236838  35.9630806  29.6665811  27.5123648
 113.1838340 100.2010070  35.3999762 112.5383109 100.8293591  35.0763850
 112.7614707  99.7909270  36.1547427  19.1684592 109.8999368  33.7655119
  19.5171703 109.2619000  33.1429820  18.4991611 110.3744946  33.2725005
  26.5295870  39.3859529  31.2129931  27.3274023  39.6015024  31.6959624
  25.9543688  40.1381540  31.3527922  24.5429833   7.2540998  75.1688914
  24.7782356   6.8931722  76.0236506  24.6981556   6.5363550  74.5548777
  33.9811260   5.9428071  49.6283965  33.8158686   6.6010379  50.3034167
  33.2380707   6.0214710  49.0301375  27.4379141  15.1214313  25.2316241
  27.2109444  14.2859220  25.6398348  27.6255114  15.7043266  25.9673361
  14.6473534  39.5397805  15.9859232  15.0593645  39.0470552  16.6956477
  14.3501074  38.8697862  15.3703074  37.6883299   9.7523879  53.0446295
  36.9139607   9.1987371  53.1448607  38.3873493   9.1449546  52.8025012
  19.4125206  33.3218812  35.3169875  20.3305514  33.0575513  35.2571826
  19.2264444  33.3305501  36.2558894 102.8631133 101.7763339  19.7694544
 103.0483788 102.7111874  19.6802859 103.6740941 101.4033471  20.1150469
   1.9458325   0.7318544  65.9150462   2.4695141   1.3218402  66.4571909
   2.4731714  -0.0642682  65.8491663  16.4166147  11.3339996  32.2779994
  16.9405539  11.3310956  31.4769320  17.0206434  11.0410737  32.9603247
  36.1835987  47.6602029   8.3898596  35.7692892  48.3757543   8.8721137
  36.6371042  48.0907869   7.6651816  22.8064806  20.2539872  27.5254302
  22.1530563  19.7422981  27.0485262  22.3758633  21.0913038  27.6977782
  98.4461802 102.2092925  12.9866080  97.9840964 101.4633761  12.6040892
  99.3256349 102.1642409  12.6114134  47.0727236  15.7443618  35.7806258
  46.9577582  14.7965812  35.7119040  46.2003023  16.0767698  35.9918360
  47.1324236  10.2290296  40.5566363  47.4739630  10.6617164  41.3391737
  46.1972220  10.1225757  40.7307009  15.9769470  36.8284177   7.4438147
  16.8050701  36.4507245   7.7401118  15.6642420  37.3368310   8.1921153
  31.3738234  18.7583494  27.3426299  31.0452015  18.8930129  26.4537482
  31.3020546  17.8143787  27.4840693  56.2029982  51.0020828  84.9879265
  56.0266066  50.4626513  85.7587242  55.3369141  51.2636709  84.6753693
  36.5853054   6.2969779  10.8594183  36.7490704   6.8297481  10.0812296
  35.7370836   5.8854865  10.6938033  52.3304541  13.9693832  12.0533328
  52.2639925  14.4310235  12.8892188  51.4285738  13.9152955  11.7372279
  18.9322693  33.1114721  20.7622199  19.0760452  32.4977063  20.0419096
  18.5926087  33.9006566  20.3402571  11.4374811   9.1470384  42.6470427
  12.2316534   9.2770242  43.1653361  11.0613901  10.0230693  42.5612692
  96.5620488  91.5255342   8.4789900  97.4277800  91.1631308   8.6671309
  96.6223353  92.4420462   8.7484412  32.5074560  57.3437356  13.1686167
  33.2963497  57.8782701  13.2588439  32.6903755  56.5579366  13.6836771
  11.0905296  34.0637731  35.8331446  10.6138737  33.2507943  35.6655364
  10.4647429  34.6160650  36.3017611  96.6336316  93.0358945  43.9683012
  95.7244033  93.2707058  43.7828402  96.8402022  93.5001384  44.7794966
  38.3520348  48.0040788  24.0006690  38.4030850  48.9241266  23.7415556
  38.7711079  47.9738569  24.8607211  46.5497858  41.3177251   6.1756377
  45.8310206  41.6940736   5.6677298  46.8787367  40.6023073   5.6313948
  29.7520764  22.6863908  36.3379054  30.2968294  23.3763122  35.9591155
  29.6431095  22.9429006  37.2536330  46.1987669  11.1127519   4.7380881
  46.1275274  11.7375373   4.0164237  45.3490812  10.6724643   4.7584776
  25.4534704  25.9328698  28.4791235  26.0546095  25.9852742  29.2221694
  25.3432543  24.9944543  28.3259444 116.1252153  19.4042253  43.0786566
 116.9604862  19.5662641  42.6401476 115.5691088  20.1365566  42.8128294
  22.2851975  31.8780374  12.7647833  22.7758581  32.2153615  13.5142474
  22.1372111  30.9551381  12.9711585   7.8111137  92.7173768   5.5540041
   7.5604499  93.4645139   6.0973124   8.6829723  92.4757300   5.8665804
  97.6144809  70.7093261  13.5141520  97.1571797  69.8780142  13.6407523
  96.9198102  71.3368152  13.3143477   3.4307511   8.1474447  33.5103182
   3.0751211   8.8896417  33.9991049   3.1074984   7.3765516  33.9766459
   2.5045837  95.0095783  27.3569922   1.5553964  94.8980366  27.4101309
   2.6462901  95.9406338  27.5281386  32.4477703  36.3239717   1.0965209
  32.3028786  36.2735891   2.0413451  32.6247341  37.2498845   0.9303908
  16.4304526  11.8177938  37.0065646  15.5131657  11.7208623  37.2623591
  16.7225630  12.6097345  37.4579291   5.7239658  55.3913545  39.8779730
   6.3098652  55.8142709  39.2501978   5.8499033  55.8811425  40.6906657
 113.2446730  40.3546094  10.5729823 113.0889047  41.1449193  10.0559096
 114.1505635  40.4378843  10.8707480  81.0840113  12.5194835  70.5346636
  80.2638609  12.1477651  70.2099757  80.8573134  13.4138774  70.7894091
  28.9468605  28.0529641  14.1952471  29.2002041  28.8782930  13.7818770
  28.3087666  27.6696443  13.5934786  38.5622246  13.2425927  39.8387675
  38.6187489  13.6921453  38.9955954  37.6254112  13.0961751  39.9698023
  34.9046309   9.2284822  50.1347689  34.5826561   9.6784543  49.3536906
  34.1182072   8.8691806  50.5454688  39.4484265   9.6383285  33.0895381
  38.7740261   9.5511960  33.7632041  39.2269547  10.4496478  32.6324420
  54.5602400  27.3004960  43.0691294  53.7189085  26.8617963  43.1953578
  55.2012140  26.5897321  43.0548243  34.8361475  13.2564258  31.1003832
  34.8293240  12.9105424  31.9928793  35.4023106  12.6561784  30.6152014
  95.0184649 104.6983252  54.0356497  95.3227729 103.9884339  54.6010546
  94.9362725 104.2970143  53.1705336  36.0284645   5.9039926   7.5316290
  35.8179743   5.0520944   7.1492724  35.6446488   6.5392398   6.9271616
  65.5645627 109.7881995  53.6768393  66.1633319 109.2619859  53.1469302
  65.0290936 109.1457473  54.1424040  31.1978371  56.3753747  25.2249197
  30.5411942  57.0022916  24.9215655  30.9397251  56.1746454  26.1245398
 103.9855516  53.7776613  26.7331271 103.0649579  53.7394475  26.9925169
 104.2338574  54.6925878  26.8653254  27.8516078  22.4439955  92.7336121
  28.1565619  21.6655612  93.1997299  28.5986352  22.7101874  92.1975803
  83.7435264  99.2635880   3.4673838  83.4493894  99.5646058   2.6076750
  82.9384870  99.0191804   3.9239077  18.3685077  86.0873853  33.4215693
  19.0708030  86.6618858  33.1166796  18.8126529  85.2759658  33.6676554
  78.2304591 105.2833281  11.5841059  77.7780289 104.4581233  11.7589716
  79.1603440 105.0624190  11.6364531 102.1661014  48.6774884  32.4825243
 101.7002076  47.8428958  32.5338225 102.7913684  48.5591970  31.7674880
  77.1463698 108.4774123   1.4168410  76.3013739 108.9186679   1.3302187
  77.7397508 109.1569625   1.7367510  76.4556932  27.9724741  86.1565876
  76.5682459  28.2955432  85.2626133  76.6069221  27.0295525  86.0913277
  36.0628891  44.9529028  88.6022091  36.6559315  44.2048168  88.6721706
  36.0130954  45.3030825  89.4916630   3.2754482  94.6128665  15.6080012
   3.0201019  95.2587758  14.9493365   3.0131686  93.7720500  15.2332072
 113.3969277  82.3574267   0.7210021 112.5876445  82.7833663   0.4384093
 113.9837140  82.4349652  -0.0312658  54.0259886  25.4665661  82.3548412
  54.2827415  24.7069073  82.8775501  53.5097122  26.0059834  82.9537773
  84.4186753  76.9907938   9.5364050  85.2379579  77.2885047   9.1409640
  84.4524354  76.0366522   9.4677882  60.6830579 107.9138448  93.4442043
  60.6803208 106.9851979  93.2121754  61.3558751 108.2990136  92.8827763
  27.9207594   8.8360500   9.4353251  28.1487114   8.2205533   8.7385897
  28.6346323   8.7567043  10.0680308 105.7269448  41.7599390  11.7445139
 105.1144666  41.0616670  11.5131812 106.3798207  41.7474721  11.0446314
  15.5245746  64.7043912   2.3610644  14.7779620  65.2343236   2.0818190
  16.2118304  65.3419600   2.5545077  50.2537775  25.4549766  77.1617556
  50.4151106  25.8779120  78.0051613  50.9038067  24.7537565  77.1172237
  94.8017949  74.3325172   8.5228495  93.9967841  74.6312795   8.9458518
  95.1802081  75.1247297   8.1414942  93.7627763  60.3484385   3.0076937
  93.9172763  61.2725358   2.8117136  94.3255156  59.8761384   2.3941092
  58.9432293  77.4257146  21.6778044  59.8713225  77.1933804  21.7077116
  58.8762433  78.2142268  22.2163062  17.6014834 104.3682544  85.9354973
  17.0491868 104.1026591  86.6707897  17.1430474 104.0415256  85.1613426
  72.5502300  12.8342152  92.4131966  72.5594711  11.9272399  92.1073437
  72.9541826  12.7987170  93.2802582  43.2437420  17.1286321  95.3353214
  43.4319830  17.5982904  94.5227814  43.3532333  17.7857518  96.0226631
  51.6964912  30.4675817  95.1640797  52.5262785  30.0439405  94.9445057
  51.3405752  29.9407506  95.8796215 102.9642695  92.7998076   6.5967898
 102.7858228  92.5471602   5.6909422 103.7634772  93.3241521   6.5461974
  67.8356284  82.2846423   3.9912562  67.9816836  82.8466068   4.7522311
  67.6160044  82.8912745   3.2841544  59.0998220  63.3433437  90.5981731
  59.5333767  64.0005255  90.0537682  58.6626863  63.8499022  91.2826729
  87.0365876  79.5092331   3.9838366  86.6812581  80.3227697   3.6258845
  86.3078469  79.1228114   4.4694762  11.4843333  64.2370830  30.6084208
  12.2256721  64.2833172  30.0046687  11.5497840  65.0371681  31.1297755
  24.7651458  31.1445880  83.5973358  25.6602621  31.2032032  83.2633305
  24.3244767  30.5430245  82.9972076  81.4804077  12.9029691  67.5144529
  81.0871792  13.3360016  68.2721376  82.4221420  13.0325592  67.6265621
  90.7862729  87.7438985   3.5491805  90.1815862  87.6692639   2.8109316
  91.2365931  86.8996750   3.5762267 109.1420621  59.7456156   9.6795134
 110.0892323  59.7489916   9.8177008 108.8697595  58.8570271   9.9086337
  78.3534306  87.3673473  15.5876021  78.6567730  87.0474277  14.7379736
  79.1118068  87.8187023  15.9582476 115.6381249  61.2498474  74.8928738
 116.2018290  61.3198948  75.6633043 114.8761731  61.7894745  75.1037359
 102.1919221 107.7288113  17.6422362 102.5181455 107.1994649  18.3699755
 102.8818673 107.6776753  16.9807295  77.7280849  66.3344525  55.7207827
  77.2704190  65.9745060  54.9610381  77.5476355  65.7126866  56.4258246
  81.8601340  85.4966389  27.3972945  82.1643561  85.9887825  26.6347460
  82.1495503  84.5989619  27.2340540  76.3717407  64.6821801  21.0073142
  76.0009021  65.5276106  20.7544188  77.1720523  64.6066080  20.4876856
  74.5106954  91.5637432  10.3036456  74.9833602  90.9422146   9.7499995
  74.3797821  91.0975490  11.1293273  84.4312096  64.6352005  85.3627777
  84.9028206  64.0406561  84.7793961  84.6477032  64.3285465  86.2433052
 116.5701026  64.0106337  24.9760584 116.6651124  64.6383498  24.2596964
 116.6030711  64.5455323  25.7691721  49.0854168  60.2783012  83.9679432
  48.4790850  59.5932579  84.2495537  49.7970867  59.8056221  83.5362816
  83.5993356 100.7817374  12.8774790  83.3202428 100.2581797  12.1263270
  83.4239882 100.2248393  13.6359934  74.3249559  29.5026445  51.9073391
  73.7310934  29.7869968  52.6021051  73.8397074  28.8218331  51.4412212
  10.9051097  87.6989089   7.5998644  10.5358947  86.9494520   8.0670027
  11.2629379  87.3262583   6.7940573  95.3362292  66.3498579  22.2304301
  95.1177043  67.2814618  22.2060256  96.0443610  66.2531935  21.5936903
  41.2030298   8.7850045  13.9846949  42.0680029   8.9433717  14.3628172
  41.3472826   8.0946206  13.3375506  75.1325226  79.3224192  89.2278767
  74.9960995  79.8589897  88.4470367  74.2741871  79.2918396  89.6504307
   1.7233593  20.8160018  41.3379817   2.4590666  21.1393785  40.8179812
   1.1239369  21.5602016  41.3935904  80.8413410  27.5184631  44.2366266
  81.3474083  27.7192640  43.4493494  79.9806023  27.2585869  43.9082527
   5.6449110  19.0931939  30.2550845   6.3818581  18.5609245  30.5547957
   4.8940546  18.7616061  30.7475142  36.3863850  21.3793302  93.1059074
  36.8501377  20.5428314  93.1437588  37.0520759  22.0100427  92.8315163
  69.1434854  98.7932645  14.6773963  69.0519852  98.8580523  13.7267832
  69.1574115  99.7015582  14.9791293  18.2172472   7.0616578  29.1828875
  17.2928412   7.2201680  28.9916281  18.6080868   6.8668460  28.3311133
  80.2970618  79.5990287  10.2063040  79.5315474  79.4145165   9.6620802
  80.9169930  78.9019333   9.9918990 116.6783417   2.8044652  26.2505965
 116.8013156   3.3421325  25.4682784 116.9140947   3.3813142  26.9771628
  97.6651955  64.4058752  82.9220581  97.4477386  63.9371109  82.1163273
  97.0283985  65.1193285  82.9633808  11.3855851  23.9999199  71.2815380
  12.2847199  24.2994356  71.1470795  10.8455002  24.6622801  70.8504725
  98.2785958  88.5398541  29.1228346  98.0169553  87.8676329  28.4936385
  97.4924821  89.0720163  29.2455534  34.9240191  -0.0293971  13.8853411
  35.7728369  -0.1092959  14.3204932  34.4585735   0.6383704  14.3890051
  94.2235392  32.9061709  17.5948195  94.0078515  31.9851409  17.7411513
  95.0482100  33.0363546  18.0630068  99.8173875 102.1798287  26.6333060
  99.3326968 102.9753743  26.4132742  99.9747104 101.7543708  25.7904105
  81.0749054  72.2857094  80.0632572  81.2322998  72.7517414  79.2421103
  81.3150883  71.3787222  79.8737335  54.3715483 102.5156461  11.2730174
  54.1367573 102.5973616  12.1973757  53.6742979 102.9771481  10.8070998
  68.5588163  92.2136055  10.2658324  69.4068831  92.4740706   9.9064307
  67.9266972  92.4596749   9.5904784  92.5189895  94.9349581  18.0646090
  93.3933324  95.2462254  18.2988600  91.9494552  95.6909619  18.2071642
 106.6324032   5.0667285  13.0160193 105.6872404   5.0430774  12.8665404
 106.8726456   4.1539239  13.1750922  82.1581716  78.0608164  15.1144938
  81.6359157  78.8591514  15.0361399  81.6808194  77.4107610  14.5989470
  27.8942299  52.1476078  90.5735207  28.0412698  52.2148657  89.6300793
  27.6675606  53.0371904  90.8446217  93.5833234  83.2303558   3.0532984
  94.0032453  83.8582669   3.6412005  92.9450196  82.7767192   3.6037688
  64.0936011  93.2023321   9.1342787  64.6807212  93.8938580   9.4397501
  63.7359399  92.8203998   9.9357943  84.5947856  82.6568852  29.4963889
  83.7795180  82.4829922  29.0259223  85.2105922  82.9290138  28.8159709
  55.8537436  47.8970242  93.2526302  56.7993641  47.9659128  93.3841228
  55.5685759  47.2506952  93.8985157  79.3381071  37.7620101  91.4536953
  78.6135817  38.1136632  90.9363651  78.9146662  37.2383904  92.1339607
  87.7897072  45.7931376  77.2455931  87.6572609  44.8839855  76.9770193
  88.6580181  46.0176229  76.9111204   1.6569246  47.9283897   7.4892001
   2.5168861  48.0982070   7.8737216   1.3493694  48.7878750   7.2012286
   2.6355327  97.5492154   2.0239214   2.6130832  96.9836293   2.7958350
   2.7917159  96.9510232   1.2931685  35.5036050 105.3411188  68.7907791
  34.6527129 105.3977146  69.2255354  35.5762988 106.1592357  68.2992220
 102.9558200  72.6706122  10.4499106 103.0141944  73.5914205  10.7047324
 103.5285109  72.5965915   9.6865134  43.4564781  58.2365274  94.0375042
  43.6167622  58.9698935  93.4436035  44.1107988  57.5823307  93.7923050
  33.1656933  10.0064385  68.9530659  32.9142213  10.3106821  68.0810404
  32.7702832  10.6405365  69.5512295  90.7257854 109.3491446  57.4453115
  90.5509912 108.6386814  56.8281269  91.4858567 109.0508682  57.9448700
  72.4927855  33.1006169  91.4848423  72.8475904  33.2989216  92.3514557
  72.9680204  33.6832047  90.8924103  65.2933449 107.0584069  21.8049006
  65.7996982 107.5010262  22.4860243  65.3745526 106.1275969  22.0128111
  89.4031972  68.7793015   1.6281657  89.8263568  68.9330409   0.7834486
  88.9190978  69.5861433   1.8039088  80.1385945  99.8305379   8.3423666
  80.9242648  99.8383675   7.7956538  79.7372073  98.9782916   8.1726794
  71.5620899  57.9917574  70.0257874  72.4207926  58.1103516  69.6198368
  70.9780598  57.7874136  69.2954540   4.6262009  19.5113038  16.3796381
   5.3074820  20.0630903  16.7638545   4.1110165  20.1091098  15.8379321
  62.4746275  53.3545208  90.9286213  63.4170771  53.4774351  91.0422802
  62.0860434  53.7448502  91.7114830  92.6204032  91.0042725  14.9123053
  92.8876895  91.3011657  15.7821612  93.3860129  90.5419002  14.5713000
  99.1288155  70.8836649  10.1613860  98.2552213  70.7058881  10.5098967
  99.0739507  71.7768679   9.8216586   7.0606673  89.5343886   7.3827891
   7.9530586  89.8353945   7.5538401   6.7362369  89.2491899   8.2369761
  38.8064909  28.2531071  89.6159554  38.3361387  28.3935094  88.7941933
  39.7182202  28.1294584  89.3519592  55.6702560  45.8510361   2.5029139
  56.1446768  45.1801006   2.0119910  55.8530694  46.6651831   2.0338969
  11.4022792  91.4324818   0.1127963  10.6661475  92.0442329   0.1223807
  11.7872012  91.5072094   0.9859995   6.1359943  95.2917825  13.2051997
   6.1272014  94.6183739  13.8853983   7.0393909  95.3009997  12.8889517
  36.0074544  20.5501270  85.0992870  35.8720851  20.0815034  85.9228802
  35.5152845  20.0446272  84.4524002  38.4722304  28.0805206  79.1611481
  37.9002309  28.8288474  78.9906979  37.9808378  27.5393009  79.7790861
 105.7047814  82.4234663   0.4898409 105.4844636  83.2477032   0.9238009
 104.8585528  82.0431195   0.2543311   6.6830791  99.2148076  15.3731017
   7.2003520  98.4317694  15.1846747   6.3132156  99.0543519  16.2412600
 100.2339554  37.2406387  63.1223536 100.1441193  36.2923884  63.2171297
  99.8517227  37.4330473  62.2661352  67.0893002  26.9004345  92.8216743
  67.8295279  26.3025546  92.9257679  66.9495106  27.2631121  93.6964130
  85.6043148   9.2176616  74.2486048  85.7905579   8.8746226  75.1226044
  86.0401344   8.6072814  73.6538553  78.8133854  90.6767641  21.0887484
  79.6461362  90.5956112  20.6238131  78.3152360  91.3150607  20.5782084
   2.2713531 106.6252528  26.7172007   2.5843013 107.1537267  27.4513773
   1.6770757 107.2050629  26.2408785  78.5379744  47.6076698  93.8427067
  78.1837606  48.3484173  93.3507156  79.0160227  48.0088282  94.5685005
  74.2384833  65.4659758  26.5850787  74.2833322  65.1185058  25.6943087
  74.9997157  65.0902574  27.0273356  91.4472598  74.3286715  38.5660891
  90.5362863  74.1708885  38.8140158  91.9331044  73.6086868  38.9683489
  64.4407463  25.1350069  85.7586861  64.6300077  24.2085099  85.6103039
  63.7080956  25.3265595  85.1732254  84.0597218 102.7030955   2.8973822
  84.1896743 102.6349078   1.9514994  84.9453229 102.7388631   3.2588534
  91.4666099 104.6312152  25.3671793  90.8119697 105.3284798  25.4059653
  91.0459298 103.9355622  24.8618750 116.3862628  99.5204602   0.1330237
 116.4376229  99.8196708   1.0407977 117.1706218  98.9852105   0.0125174
  18.0327112  32.3073434  64.1895155  17.4906094  32.2405862  63.4034495
  17.6069958  31.7305040  64.8237566  26.1802578  69.0743256  92.5341606
  25.9579396  69.9272203  92.1608353  26.2295485  69.2311287  93.4771442
  76.8324375  29.8681140  88.9723110  77.3660660  30.0871062  88.2084274
  76.4838505  30.7084703  89.2698383  83.6295223  84.3879414  91.7803288
  84.0046215  85.1216221  92.2674179  84.3881321  83.9118290  91.4426041
  29.7159512  19.5249461  86.0801272  29.3945582  18.9201450  86.7488245
  29.8642285  18.9748096  85.3109698 115.7236159   1.6813278  18.5265021
 116.4306844   1.1145067  18.8347201 115.5698574   1.4030408  17.6236395
  56.3729954  28.3015895  81.1654568  55.5239582  28.7089729  81.3369274
  56.1575747  27.4355578  80.8193111  91.4655894  79.5890914   3.1630187
  91.2636823  78.7522040   3.5814528  90.9254188  79.5982824   2.3728518
  65.3100300  79.2003298  87.8422356  64.8001194  79.4821930  87.0827770
  65.0790882  78.2785320  87.9570580  34.9696189 105.2279924  84.5383167
  35.0558501 106.1505868  84.2982864  34.0259534 105.0881266  84.6168423
  78.1308693 104.7830020   8.7520556  78.3074588 105.0527154   9.6533255
  78.9851064 104.8132859   8.3212428  95.9557027 109.6941052  21.9323878
  96.2317485 109.1083012  21.2275080  96.0973996 110.5736075  21.5821986
  90.4411000 104.3584262   9.3357806  91.1543483 103.7242089   9.2631297
  90.8556861 105.2051364   9.1701655 113.3995456  78.2732592  28.8307051
 113.8008279  78.9026080  29.4299750 112.7589291  78.7863909  28.3382277
  45.8115864  33.3067584  89.2616940  45.9925556  33.1749344  88.3310509
  45.9929180  34.2345476  89.4118881  27.3304922  29.9115419  15.5238490
  26.6565210  29.3064546  15.2142386  28.1571562  29.4876336  15.2932887
  17.8233493  89.0034543   4.2668013  17.4409736  89.0797649   3.3926253
  17.1182788  88.6454712   4.8062186 112.8802508  35.8416293  31.0259966
 113.7400407  35.8528159  31.4465575 112.4289102  36.6064153  31.3832430
  18.7519819  10.4460191  27.3096995  18.2749493  10.2868079  28.1241469
  18.3420403   9.8599576  26.6735320  19.6326668  39.0275907  31.9847350
  18.7348396  39.3475866  31.8967394  19.6412022  38.2019471  31.5005068
  78.3085174  69.1760729   1.8694071  79.2577762  69.0805755   1.7918448
  77.9662150  68.2945262   1.7213110  51.1678314  35.3271723  81.4698219
  50.8234930  35.0610018  80.6172943  50.4253721  35.2360892  82.0670605
  61.7578316  40.1620007  70.2932739  61.8657160  40.1120901  71.2430620
  61.2425804  39.3869162  70.0696850 110.5201930  95.5110656  18.1750922
 109.7507447  96.0352860  17.9528956 110.6073541  95.6037818  19.1237978
 105.6203050  96.9818078  51.8430857 106.3027448  97.1943436  52.4797492
 105.0378627  96.3810120  52.3078875  91.6435063   6.6652154  46.8065505
  91.8997848   5.7437228  46.7690329  90.7455290   6.6777562  46.4753203
  16.3529188  20.7991599  48.0749468  16.2334616  21.4705753  47.4032645
  15.8968908  21.1443900  48.8424735 102.7894420  59.8262997  14.9791293
 101.8747395  59.5491348  14.9268775 103.2290954  59.1147725  15.4445986
  62.1459240  93.2544480  14.4165377  62.2882694  92.5678955  13.7649111
  61.8198270  93.9996491  13.9119868 114.3865031 103.5798751  50.5003218
 115.1672048 103.0662547  50.2931361 113.6582059 103.0499183  50.1763396
  24.6233160  24.8588609  32.0690779  25.4581291  25.1367425  31.6921095
  24.2740757  24.2284488  31.4391188 113.8324035  10.6868266  34.0360980
 114.0063203   9.7521638  33.9247565 113.1495250  10.7252788  34.7057490
  86.8198890  82.1247636  33.2571558  86.4236754  81.8987523  34.0986781
  86.9724912  83.0682455  33.3099608 109.3449181  99.3135272  17.3279433
 110.0654191  98.7416564  17.0632319 109.4870919 100.1216851  16.8350939
   4.6958411  99.3957578  33.1211142   4.0803207  99.2483102  32.4030451
   4.7951377  98.5367833  33.5316519  21.6872675  30.5215692  27.1036295
  20.9288914  30.8840799  26.6457133  22.4205429  30.6684636  26.5061717
  87.8435344 103.4937011  28.2501368  87.4346847 103.9210282  27.4974970
  87.5050658 103.9693938  29.0086798  13.9084799   8.7748479  21.4515833
  14.0243275   7.9587411  20.9649710  14.4340498   9.4158124  20.9728674
   0.9537298  15.8253574  45.3384928   0.8521397  15.1856660  46.0432677
   0.1907594  16.3972663  45.4223113  92.5360555  49.8543529  30.0025801
  92.2641343  48.9886896  30.3074030  93.2514924  50.1008706  30.5887656
  23.0301840   3.0023717  35.4622988  23.5599405   3.6975478  35.0720076
  22.4151356   2.7538585  34.7722392  71.7440653  70.6969976  82.8040123
  71.7313957  71.1113691  81.9412422  71.9441509  71.4107561  83.4096050
 104.7148389 107.8817378  12.1158461 104.7318810 108.0958663  11.1830573
 105.3545684 107.1761475  12.2113375  64.8761940  76.6940212  89.5581436
  64.9525595  77.3462915  90.2545261  65.7747507  76.4027977  89.4031715
  32.3819859  27.2782087  46.8505053  32.9550821  27.3706483  46.0894255
  31.8264372  26.5270757  46.6421847  37.8119166  27.8443479  23.9640955
  38.4310324  28.4439897  23.5477404  37.4903566  27.2967290  23.2478957
  40.2357657  10.3541421  17.4603037  40.5407126   9.9737357  18.2840304
  39.8396856   9.6206283  16.9898657  76.8234366  99.9937115   8.5354857
  76.6522473 100.9354602   8.5294108  77.0996827  99.8062764   9.4325881
   5.1860125  18.6991834  11.8520598   4.4010098  18.1694412  11.9912581
   5.5464060  18.3804702  11.0245471  93.0002850 109.9918519   9.0286307
  92.2123975 110.4532538   9.3159918  93.0017728 110.0904713   8.0765299
  16.9633085   5.3184842   9.5888762  17.3892576   4.6923446  10.1743273
  16.9038183   6.1241769  10.1022582  90.0229186  72.3185263   1.3858943
  90.2110833  73.2018421   1.7030386  90.8802051  71.8964384   1.3299708
  96.2615794  94.8497258  17.8171305  95.7593888  94.6203457  18.5990672
  96.6736573  94.0288292  17.5477843 100.2840060 107.5349055   6.5883879
  99.6672934 107.2353850   5.9204154  99.8712033 108.3125459   6.9640212
  83.5810155 105.7365285   3.9399580  83.0461472 105.0729380   3.5043005
  84.4245118 105.3075801   4.0839915  65.2080774  37.7801800  76.1141205
  66.1652708  37.7825856  76.1166573  64.9673367  38.6376095  75.7632828
  22.1134073  10.5538272   3.3846526  22.7368815   9.8546266   3.1881003
  22.4683077  10.9786605   4.1655402  61.1038828  50.1054525  92.7808475
  61.1639357  50.5034018  91.9123650  60.8278084  50.8209801  93.3535957
  99.2525166  97.1580659  50.1271204  99.7725743  97.0864354  49.3267302
  98.3608455  96.9429980  49.8534445  64.6107388  46.5650368  83.0377197
  64.8918772  47.3355055  83.5312462  65.4246235  46.1739159  82.7201557
  76.0622543 105.0694619  34.5115428  76.7996162 105.6577979  34.6740012
  76.1736983 104.3641053  35.1489501  11.4099467  98.5229979   1.3147692
  12.0622504  99.1182576   0.9454302  10.7646812  99.0991698   1.7244963
  54.3481970   9.6773356  67.9880476  54.9082994  10.1402771  68.6111069
  53.5706806  10.2299368  67.9084444  64.9932718   8.4556472  77.0666695
  65.0075579   7.7415806  77.7039576  64.9458551   9.2502266  77.5982952
  31.5715010  13.7588071  13.1599001  31.9919426  14.2013788  12.4226145
  31.4753182  12.8512573  12.8712229  61.1126036  88.8178359   7.0234923
  61.0632056  88.1545220   6.3351588  60.3068990  89.3252359   6.9254260
 102.6749057 104.3320523  18.3132796 102.9862946 103.8996993  17.5180869
 103.4295148 104.3228160  18.9021067  10.9324438  26.9884252  21.4795355
  11.0594780  26.5608835  20.6325964  11.7437584  27.4746465  21.6264681
  76.4993095  41.9452238  93.2936954  76.9845486  42.7498674  93.4762287
  76.5013552  41.8756342  92.3390293 114.9799842  86.6097580  12.5868277
 114.8156756  86.8644796  13.4947638 114.1274566  86.6867171  12.1584467
  60.4961634  57.3465872  92.8462982  59.6665192  56.8941259  92.9986000
  60.2430916  58.2427502  92.6247501 108.1539601 106.6295968  23.1864600
 108.5788220 106.6263209  22.3287158 107.4375266 107.2579728  23.0964713
  33.2169993  28.8042402  21.3483386  32.8143103  28.2752370  20.6596903
  34.1167910  28.4822416  21.4024405  78.2099289 106.9874583  34.4899134
  79.0922898 107.2940121  34.6989684  78.0007118 107.4098979  33.6568408
 107.4572218  49.3840837  10.3706126 108.0525744  50.1070642  10.5683093
 106.9602645  49.6843099   9.6095995  12.6826728  91.8920098   2.7933936
  12.7818168  92.8432928   2.7551703  13.5617316  91.5526353   2.6250987
  75.7616204  86.9331036  25.1643424  76.6214889  87.3489700  25.1017813
  75.8691448  86.2606917  25.8370451  83.8544482  74.2498575  28.2644991
  83.7876243  74.2693995  27.3098330  84.4035071  75.0032626  28.4816317
  67.9033661  16.7912984  77.5620651  68.7448883  16.4037704  77.3214579
  67.9855061  16.9809961  78.4966755  23.4344895   9.2999791   5.7805018
  23.6476547  10.2328061   5.8054976  22.6471884   9.2196941   6.3189654
  10.2462465  28.9074563  32.0753817  10.3636295  28.0130338  31.7552905
   9.3243725  28.9519738  32.3291544 103.9342469 107.0442258  40.9524111
 103.6530799 107.4437867  41.7755274 103.3701581 107.4409734  40.2886061
 103.8151759 101.4672623  23.8793902 103.0128163 101.9861375  23.9361338
 103.7360400 100.8258305  24.5854525  90.8115357  94.7984420  26.5372233
  89.8935145  94.5374952  26.4638953  91.0219783  94.6765075  27.4630122
  87.9791558  17.1126937  27.1949248  87.3978490  16.3608503  27.3091464
  87.3898524  17.8471612  27.0231299  30.4140837  24.6908044  12.2226290
  30.5946428  24.8312616  13.1520895  29.4707138  24.5336007  12.1829848
  97.2757214  37.1796237  24.6817736  97.4197215  36.9941781  25.6097273
  96.7772216  36.4277254  24.3618063  41.1714632   8.2952785  31.5154986
  40.5270464   8.5196065  32.1867899  41.1958773   9.0609311  30.9415488
 112.6300448 102.2444258  15.6679682 112.1780032 101.7823182  14.9620299
 113.2653779 102.8030740  15.2202086 111.3284701  98.5372744  40.3162531
 111.9012517  97.8865825  40.7221369 111.5795583  99.3655978  40.7249884
  51.6966772  27.8196907  86.8807793  50.9954071  27.8400731  86.2295914
  51.5842199  26.9807291  87.3276901 117.2344321  86.7718659  31.1263804
 117.0921439  87.6482259  31.4841227 116.4466542  86.5917812  30.6133418
  44.5441801   1.0493278  33.3051638  44.1541750   0.9987354  34.1778426
  44.0958483   0.3690910  32.8026537  53.2788223  99.2334853   7.6549773
  53.5772902 100.0140105   8.1218104  53.2552785  98.5488807   8.3235507
  38.4402251  80.9909058  81.4609528  38.0981803  80.9784698  82.3548603
  39.1221714  81.6624641  81.4747620 116.4441461  85.2648650  19.9046378
 116.8296784  84.5105921  19.4589190 116.5778846  85.9945927  19.2997984
 106.4089793 109.5396529   7.2312884 106.8708581 110.3104077   7.5611929
 105.9955281 109.8368941   6.4207701  84.1429395  73.1248699  32.9496436
  84.3423766  74.0530203  33.0720858  83.6794776  73.0878232  32.1129469
   2.1008522  39.3511819   5.7119040   1.6579325  38.5065221   5.7931475
   2.9138834  39.2437505   6.2055354   5.9716190  71.2660228  17.4317030
   6.8243755  71.6975687  17.4847464   5.5717052  71.6225181  16.6384844
  27.8713019  17.2120284  26.8879466  27.0314819  17.6294326  26.6963629
  27.9208357  17.2011709  27.8438048  42.2577810  27.7859926  92.1436882
  41.6642618  27.1103406  91.8158722  41.7033672  28.3514309  92.6814079
 100.0122994  87.7413402  45.7398848 100.1495904  86.8743311  46.1215548
  99.0927571  87.7431308  45.4740481   0.5373157 109.2945681  21.3294844
   1.2934125 109.7010289  21.7529730   0.5178798 109.6795331  20.4533247
  60.7231665  72.2563696  89.7647667  61.3384151  72.8874207  89.3913174
  59.9536324  72.7780962  89.9924850  90.7117289  61.6608111  36.4187102
  91.5704841  61.4370869  36.7774729  90.8276051  62.5355928  36.0478167
  13.2617439  76.9258629  52.6956992  13.1849826  77.8795348  52.7248816
  13.7194312  76.7474399  51.8741660  94.1164750  72.6746093  18.4104971
  93.7144584  73.5425971  18.4452776  95.0262231  72.8417085  18.1642012
 114.7310007  15.3645610  12.2257285 114.0896261  15.5679273  11.5449004
 114.3487680  14.6277808  12.7024703  42.7772474  54.8463917  80.1042557
  42.8770781  55.7138348  79.7120762  41.9430017  54.8894024  80.5716038
 114.3348468   7.5412368  18.3318858 114.4394696   8.1411695  19.0703730
 114.7567880   6.7315864  18.6193995  90.0764483 104.5055066  22.1466784
  90.0496549 103.9408074  22.9190974  89.2262715 104.3766509  21.7261748
  11.2366737  75.7386409  10.3298716  10.4019798  75.2844249  10.4447894
  11.0151542  76.6674338  10.3970103 111.1715764  92.5979791   5.6636576
 110.8105344  93.0865799   6.4033560 112.1155423  92.7479349   5.7154135
   3.8977588 100.8203517   2.1970324   4.4947112 100.4397021   2.8412299
   3.0877937 100.9750043   2.6831011  19.2120726   4.3973302  14.6898894
  20.0665934   4.0882777  14.3890337  18.7150509   4.5476770  13.8857798
   1.5922797 107.3411141   6.3493113   2.3742927 106.7917596   6.2954573
   1.6556991 107.7648078   7.2052912 100.0194234  65.5596255  14.5120101
 100.1296729  66.0173641  13.6786131  99.5826119  64.7403090  14.2793135
  13.1477577  14.3144750  34.8231272  12.7768690  15.1547002  34.5534949
  13.3289559  14.4212627  35.7569365  77.6127929  93.1167613  13.2636027
  77.2823590  93.0054460  12.3721747  78.3321923  92.4891053  13.3324961
  66.9604701 106.0310517  24.1165404  67.8306741 105.9650670  24.5097594
  67.0552558 105.6239520  23.2554297  93.3283252  97.7055894  40.9786658
  93.1075829  98.6364184  41.0112242  92.4819344  97.2596942  40.9465842
  87.5246829 105.5545483  38.5859541  87.1484631 105.4847298  37.7085642
  86.7770404 105.7443724  39.1527228   6.9621337  92.5154696  21.4414267
   7.3790611  93.2787166  21.0415988   7.6184428  92.1750818  22.0494132
  98.2625646  96.0226165  19.6478705  97.4413890  96.0722218  19.1585402
  98.0413312  96.3475810  20.5206160  79.6082687  56.9467545  63.8206244
  79.7177219  57.7918434  64.2566061  80.0626850  57.0480824  62.9842806
  85.5217236 105.2031003  36.1198763  85.5329532 104.2460595  36.1333994
  86.1479587 105.4403315  35.4359297  34.3152268   7.9535198   5.9788470
  33.7002594   7.3092651   5.6281619  33.8591940   8.7908267   5.8940653
  66.0508823  35.7242203  89.2759228  66.8616915  35.4402947  89.6980667
  65.6390858  34.9130440  88.9781952  48.9800072  33.6667609  95.0644398
  48.3164406  34.3102169  95.3131866  48.6068630  33.2192349  94.3050194
  69.2491335  84.9580251  33.6797671  68.8245434  85.8120952  33.7605147
  68.5381192  84.3571935  33.4568457  27.7368958   5.9896278  13.9256625
  27.7906449   6.8834638  14.2639021  28.2862456   5.4760217  14.5178275
  52.0542699  87.2109328  23.7527041  52.8658670  87.1670900  24.2582945
  52.3342389  87.4575792  22.8712229  91.3435048  72.6797448   5.0535731
  91.1942309  73.3373485   4.3742327  92.2124642  72.8848432   5.3986506
  27.2784884  27.2099923  34.1919379  27.5118620  27.6774835  34.9939494
  26.4776976  27.6383161  33.8894324 116.7961681  23.8839340  25.9246878
 116.0190952  23.6295032  25.4270415 116.5559328  24.7141885  26.3360266
  35.8259470  13.9980315  13.1588988  36.0490114  13.3041953  12.5383715
  35.7888300  14.7926568  12.6265196  76.5716410  55.6478214  91.5602016
  76.5451431  56.5582132  91.2657070  75.7952595  55.2469635  91.1693382
  97.9496956  26.6107368  86.4378452  98.5672379  26.5873241  87.1688175
  98.0163765  25.7426596  86.0400677 114.6107805  21.9833373  17.9579405
 114.9248374  22.2614240  18.8183264 115.2874124  21.3870668  17.6372103
  36.9871104  92.7013741  27.4482207  37.9168857  92.7199469  27.2215037
  36.9645942  92.3500286  28.3383231  99.7335374 103.8656985  84.9999809
  98.8877212 103.4325414  84.8850822  99.8432981 103.9289831  85.9487534
  58.1234264  92.8837299  86.5858841  58.9141226  93.1473541  87.0565510
  58.4044361  92.7976418  85.6749153 102.0050258 105.7134305  15.1980738
 101.3389653 105.9001981  15.8596758 102.8264541 105.9992324  15.5978350
   8.0188621  99.7735987  29.4686179   7.7699054  99.5352469  30.3616099
   7.6098979 100.6271516  29.3256907  38.2840217  75.3269206   9.2000441
  37.3283447  75.3422890   9.2517809  38.4814227  75.6472479   8.3198981
  26.7376549  10.2732658  31.1557726  26.6674120  10.8627843  31.9066195
  26.4669306  10.8052110  30.4074626  69.7855711  47.9578114  91.0409260
  69.0529108  47.9989910  90.4263115  70.2851248  47.1886635  90.7669067
 105.0286645 108.4416686  32.7668433 104.9124259 108.8865672  31.9273333
 105.3575152 107.5733434  32.5342326 105.4204715  19.7092532  12.7664999
 106.1454785  19.8275613  12.1528296 104.9365819  20.5342101  12.7274565
 113.9884490  82.4033867  22.7923541 114.0093297  81.9931970  21.9277529
 113.7693757  81.6893349  23.3909945  70.6866455  51.1880112  90.4362965
  71.1474276  50.5619526  90.9948349  71.3714170  51.5658855  89.8844624
   9.2479354  61.5978909  88.5748482  10.1035821  62.0260000  88.6035824
   8.9744985  61.6702461  87.6603889   2.7493251  91.6311417  15.4034094
   2.9772342  91.5988646  16.3325266   1.7997850  91.7515717  15.3937678
  91.4707631  71.4320336  35.6885676  90.9183425  71.4579306  34.9072890
  91.9172019  70.5868099  35.6383280 116.6975516 104.0906678  17.2882037
 117.5175399 104.1684399  17.7758460 116.0875768 104.6640549  17.7523093
 100.1081628  71.9586860  26.9858603  99.2233581  71.6123174  26.8701796
 100.3982371  71.5995286  27.8243689 111.2152022  50.0620936  14.2628722
 110.5526608  49.4513641  14.5857958 110.9422940  50.9138422  14.6038680
 114.6736783  80.3900562  45.5275301 113.9406794  80.9960638  45.6356959
 115.4429931  80.9550725  45.4557852  47.4781305   2.9586601   7.2116045
  48.2958014   3.4026193   6.9867663  47.6879675   2.0265292   7.1538023
  11.2124331   2.7066850  27.1471076  11.2920267   2.9877519  26.2355666
  11.3831741   1.7651414  27.1232085  76.9640368 106.2713776  15.6804518
  76.3979572 106.3080846  16.4514498  76.4399475 106.6595469  14.9798159
  62.6143122  36.4765263  86.8542004  62.5501060  36.5486026  87.8065205
  63.4067011  36.9644523  86.6299629 107.4203986  83.1840525  11.8839316
 107.7169007  83.5251938  11.0401682 107.3131627  82.2441469  11.7379527
 106.7287910   3.7508010  26.9177966 107.3707784   4.1214132  27.5233798
 106.9125140   4.1796541  26.0819869 103.9343852  64.9226932   6.8567709
 103.6268252  65.2755569   7.6917128 103.7213534  65.6017946   6.2167220
 106.2213773  74.0852032  10.0461440 106.7526597  73.8201283  10.7969527
 106.0414475  75.0133525  10.1958041 109.4357175  98.3579264  20.0559287
 110.2422017  98.8475810  19.8945097 108.8291329  98.6669646  19.3830351
  75.2878094 103.8123703  88.9029980  76.1957788 104.1086864  88.9664459
  75.0640678 103.9221382  87.9788113  73.7952042   5.7386953  86.3139629
  74.1370678   5.9404576  85.4429626  73.5647535   6.5908176  86.6841125
   2.2132552 109.4128428  18.0938296   1.9128478 108.5622321  17.7737479
   3.0769981 109.5265446  17.6972823  86.5285873  15.2740765  54.8240042
  85.6259251  15.0119209  54.6431541  86.5271854  15.5141878  55.7505989
  33.2579643   2.0006131  33.6988596  32.4289448   1.9551610  33.2225279
  33.6156542   2.8599452  33.4756331  96.0763073  48.0930996  86.5088177
  95.5652809  48.0853510  85.6994820  95.8167458  48.9029074  86.9482231
  34.6537018  28.3519864  93.8682461  34.8131537  29.1913676  93.4366798
  33.7292385  28.1685281  93.7010956  82.5429344  57.4606657  78.0042028
  83.1042290  56.8249130  77.5603580  81.7605209  56.9636965  78.2431173
  66.9489861  50.6193829  73.7977171  67.3694563  49.8507881  74.1833353
  66.5987921  50.3074360  72.9632807  66.6866273  84.8425089  17.4162535
  66.0516781  85.0229274  18.1094508  66.6828102  83.8891969  17.3301463
   2.5042994   0.8588838  41.8972735   3.4517557   0.8948850  41.7659049
   2.3687155   1.2340593  42.7673869 106.6140813 102.7845631  23.2746367
 106.3021726 103.0119859  24.1505484 106.2675780 101.9062148  23.1175665
  88.4205216 102.0688926   7.2685198  88.6702842 102.5029670   8.0842642
  89.0135306 102.4338256   6.6117148 113.3763713  69.1542648   4.5775656
 113.8144130  69.9980853   4.4665865 112.4467772  69.3734883   4.6410422
  38.8405395  35.7424927  83.1645584  38.4428048  35.0750971  83.7236881
  38.4912848  36.5704370  83.4943485   3.8745958   2.1412086  10.2154688
   3.3781321   2.4875116  10.9569792   3.6073000   1.2240361  10.1556735
   5.2857555 102.2601901  17.3913531   4.5441116 102.1420298  16.7978625
   4.9663127 101.9498406  18.2386260  96.4730948 102.5465928  15.3216414
  97.0738620 102.5395785  14.5764880  95.7366628 103.0843125  15.0305132
  88.4918040 109.3113147  18.6367373  88.3461064 109.9120723  17.9059176
  89.2026442 109.7113906  19.1376071  52.5975513  51.2046766  89.4414902
  53.1163597  51.0593748  90.2326584  51.7077923  50.9530354  89.6889591
  90.0665349  87.9113112  18.6515669  89.5499391  88.4320412  19.2665438
  89.7145575  88.1383405  17.7908663  73.4204263  98.7627517  47.0001559
  73.7140364  98.8879023  46.0977416  73.9441055  98.0293809  47.3228888
  89.6490497  96.3965426   3.4429316  90.1376790  96.1007415   4.2110304
  90.3189725  96.7335234   2.8480486  59.5963478   9.9236029  78.6895227
  59.6810055   9.8739123  79.6416759  58.8421106   9.3701494  78.4869242
  42.9399664   7.0148515   4.6972422  43.3209784   6.6319465   5.4874663
  42.3408014   7.6871061   5.0217585  45.2468378  10.9070586  18.0299620
  44.6088011  10.2187061  18.2179026  46.0416109  10.4353999  17.7807478
  60.0069380  46.4869785  83.7925816  59.6579075  47.2413158  83.3178329
  60.6473398  46.1026049  83.1939316 111.4027137  95.6592618  20.6617789
 111.9442147  96.4431487  20.5694346 110.7179469  95.9127293  21.2807135
  17.1218742  98.1623469  20.2211051  16.8538821  98.9085398  20.7573943
  17.5707401  97.5775252  20.8316187  77.0781803  58.1200504  80.1650810
  76.4711046  58.5968924  80.7310486  76.5191174  57.7130890  79.5032167
 112.1496427  15.3255271  11.4476351 111.8063176  16.1256885  11.0500102
 111.4883936  15.0760888  12.0932059   3.6613334 106.4538871  16.0548739
   3.9082969 105.8266984  16.7344908   3.6878265 105.9490786  15.2420382
  25.4701389 105.0600587  51.0365633  25.9606326 105.3158580  51.8177275
  24.7631705 105.7025729  50.9765868  89.3020791  82.7166711  20.2989439
  88.6086005  82.3776851  19.7329001  90.1121539  82.5243269  19.8267035
  50.7508165  10.2451610   1.3602786  51.3316614   9.5750665   0.9999709
  49.9915297   9.7574901   1.6794924  96.8221969  76.4856635   8.2805972
  96.4230269  77.0517145   8.9412646  97.3443145  75.8611165   8.7841467
   4.0722240 108.3421098  42.9853110   4.4365848 108.1875382  43.8568453
   3.4712280 109.0776120  43.1039576  13.8844425  14.2807292   9.6480231
  14.5768292  13.9340448  10.2107386  13.4752781  14.9712800  10.1695113
  79.6975088  77.2718430  82.3042965  78.8184214  77.6499224  82.3265743
  80.2640820  77.9981518  82.0441055  41.7318613  25.6698846  32.3333411
  40.8975060  26.1055040  32.1592001  42.1806128  26.2492704  32.9491095
 113.3901900 100.6550132  44.8651461 114.3104142 100.5435859  44.6263842
 113.3916253 100.6737386  45.8221583  71.8134707 105.7560550  11.6533236
  71.2508911 106.2145768  12.2774176  71.6960138 104.8290978  11.8611292
  92.1611566 105.5692254  30.3224139  91.3717765 105.1965485  29.9296908
  92.3596972 104.9892102  31.0575251  31.3038523  25.9759187  53.7140612
  31.8030960  25.6159066  52.9810004  31.6543800  26.8587922  53.8319449
  61.2657738  83.6527061  78.9274263  61.2976503  83.0516148  78.1831741
  60.7145119  84.3756580  78.6279678  84.7120732  83.1954251   4.6602110
  85.1586312  83.5005770   5.4499583  84.8031682  83.9180909   4.0391783
  46.3565445  68.3562374  87.3433304  46.3604450  69.2771912  87.6042080
  46.8401718  67.9085922  88.0375576  19.8001636  85.1163755  13.9373831
  20.6078113  85.5732666  13.7024455  19.2046321  85.8113991  14.2175917
  21.3966305  40.2316713   7.9652361  21.5772326  41.1485528   7.7579932
  21.2882549  40.2179193   8.9161829  42.3169691  15.3751659   9.6615366
  42.6660807  16.2408923   9.8733572  43.0832655  14.8015546   9.6606211
  73.0403805  73.5266018  87.8454304  73.1522179  74.4438219  87.5955772
  72.0928526  73.3909369  87.8408527  62.5114042   3.1075191  25.8597807
  62.8637774   2.9352140  24.9866347  61.5778334   2.9099798  25.7845835
  45.5319101  31.7785405   7.8149848  44.8626597  31.1306428   7.5946192
  45.0662214  32.6148080   7.8109507  47.1445639   1.0604190   9.5195441
  46.8990976   0.4201316   8.8517050  46.8161471   0.6899261  10.3387599
   5.0975288 104.7679578  52.4690966   5.8847392 104.2551623  52.6523261
   4.9438060 105.2659379  53.2719759  94.0338326  21.0382247  52.3914862
  94.1734409  21.5038991  53.2160425  93.7396145  20.1664877  52.6555824
  28.9111216  21.4226007  31.9323687  29.2325003  20.8575200  31.2297778
  28.2762129  20.8823633  32.4027590  45.5015070  23.9222621   5.1713137
  45.4974157  23.2187795   4.5222144  44.8311121  24.5335769   4.8662047
  13.6558688  95.5837594  27.2602801  14.3621600  95.6269561  27.9048876
  13.2825721  96.4651500  27.2545866  41.4028341  10.2468871   7.5537066
  41.7592032  11.0960626   7.8147273  40.4718525  10.3012847   7.7694659
  45.8146078   6.2605857  15.9816794  45.1803000   6.4254331  15.2840285
  46.5089590   5.7547759  15.5594687  52.2037489  44.5086526  20.3748087
  51.4878637  43.8961076  20.5437617  51.9077189  45.0214528  19.6227221
   4.1582091   2.7808379  65.5670886   4.7757704   2.0495176  65.5719141
   4.3250258   3.2406091  66.3898997  31.4846481  97.3275910  10.2686934
  32.3338950  97.6800690  10.5347209  30.8466399  97.9470263  10.6229262
  36.5655405   9.6708631  36.1965613  36.1909611   9.7260427  35.3174357
  37.1307928   8.8989114  36.1680560  11.7591155  90.6175195  45.6475405
  11.9967044  91.3478242  46.2188868  12.4631561  89.9802981  45.7680182
 114.6286887 105.6394444  18.4583144 114.3471450 106.1304389  19.2302565
 113.8457126 105.5849801  17.9103999  99.9082565  74.7817612  94.3706894
  99.5881176  74.7957468  95.2726555 100.8275223  74.5260239  94.4467449
  33.7704337  88.5652171  22.1762137  34.6850932  88.6030923  21.8965678
  33.7862075  88.0403982  22.9765563  67.7161169  47.1123123  93.7688637
  68.4154415  47.7638435  93.8206959  66.9317055  47.5795078  94.0563583
   2.5474150  27.1133374  17.4367575   2.8180201  26.8751096  18.3234648
   1.7780573  26.5697526  17.2669558  14.7650588 102.9614030  18.2187132
  14.1188205 103.3937465  18.7770037  14.9926723 102.1608363  18.6914973
 112.4956769  82.0992838  46.1376051 111.9383162  82.8280817  46.4104323
 112.8262299  81.7308079  46.9568686 106.4803618 108.1459914  40.9527926
 106.8721789 107.8035794  41.7562060 105.7226914 107.5822507  40.7966856
  14.6423400  95.4906092  43.3910231  14.3036712  95.9554158  44.1561942
  15.3933776  94.9985324  43.7227301  40.6102831  21.9269323  15.8549933
  40.1283819  21.9846105  15.0299696  41.5294630  21.8774509  15.5925231
  73.5223627  46.0396051  75.1984358  73.6346674  46.9750214  75.0292635
  73.1682730  45.9976816  76.0867453  64.9734253 104.8636924  10.0729231
  65.3063959 104.0522729  10.4562716  64.4814009 104.5802699   9.3023257
  28.9618666   2.4553441  28.1279044  28.4405834   2.0960616  27.4099879
  28.5509998   3.2972955  28.3242182  96.3377732 106.2675820  13.0997424
  96.7871970 105.5931340  12.5904612  97.0084781 106.6069279  13.6923842
  51.2277777  12.5163793   5.2445941  50.5983336  12.7818918   4.5741229
  51.1472399  11.5634202   5.2847628  31.8122322   4.5704173  30.7785182
  31.0681994   3.9747524  30.8670191  32.2976954   4.2368125  30.0240187
  89.8768139  62.4791765  91.8562794  89.3712807  61.6685104  91.7972755
  90.2044296  62.6223087  90.9683514  94.7818661  86.8356133  94.9243259
  93.9334869  86.4647484  95.1670837  94.9003410  86.5833569  94.0085983
  25.2076466   5.6487178   4.6363596  24.9008019   5.1435756   3.8834242
  26.1173851   5.3751277   4.7536520  70.5916834  53.8547754  85.2982426
  70.1780844  54.3187428  86.0261917  71.3805342  53.4679079  85.6780815
  85.6606025  94.4240604  11.0589079  84.8304862  94.2247544  10.6259875
  85.7208365  95.3790198  11.0333304  26.1696876  85.3188120  54.1116862
  26.9554771  84.7925626  53.9639620  26.3347495  85.7682620  54.9405341
   3.4717114  12.6724481  27.8340773   4.1490347  13.1949376  28.2635741
   2.7565844  12.6384448  28.4694247  42.7239306   2.2376251  18.5845046
  42.6486857   2.8606748  19.3072657  43.6527044   2.0071077  18.5627036
  58.6595392  88.5825443  86.8182945  58.9683390  88.5469341  85.9129715
  58.7049198  87.6761627  87.1226501  53.1615622   7.6945161  45.8344321
  52.8548224   7.3584842  44.9922804  53.0891401   8.6455392  45.7535700
  34.6374495   8.3714151  65.4638819  34.6592457   7.6641797  66.1085276
  35.2225096   9.0393924  65.8212809  87.2388935  54.5897293  63.2484531
  86.8468380  54.0490532  63.9341545  86.5344334  54.7193193  62.6135015
 102.0096702  95.9613953   3.4260420 102.0048160  96.2732087   4.3310217
 101.6696328  96.6974459   2.9172854  46.7577917  23.8028192  38.5538725
  46.0902197  24.3665933  38.9446787  47.2492392  23.4604978  39.3005518
  74.9026442  47.0227289  85.8149719  74.0299940  47.2181034  85.4735851
  75.4724073  47.6710653  85.4011440  77.7853823  61.8111944  90.3347301
  78.3968830  62.4907160  90.6185341  78.1650448  60.9955978  90.6616879
  98.9371652  93.8828169   8.2895998  99.6310109  93.7156091   8.9274458
  98.1948203  94.1802011   8.8156371  82.0309162  64.1255474  82.7625084
  81.9826984  64.8407936  82.1282196  82.9265499  63.7967920  82.6851559
  68.2206518  14.1608714   6.3815264  68.3075888  14.0882348   5.4310469
  68.3231527  13.2642650   6.7006258   1.3404716  84.2995892  41.3070063
   0.5867685  84.8160229  41.5924124   1.7191327  84.8055921  40.5881075
  66.3055229  60.3760481  91.9143677  66.7479849  61.1988306  92.1229172
  65.7849455  60.1799202  92.6933193 113.9807385 102.0591174   1.8462328
 114.1516513 102.9623137   2.1131758 114.5270366 101.5300952   2.4275450
  44.4213057  82.8406525  94.2960835  43.9164209  83.5794544  94.6359348
  44.3534327  82.9215813  93.3447266  58.9705133  70.1589584  89.0323830
  59.7077560  70.7270813  89.2558670  58.4451294  70.1227760  89.8316956
  19.7223742  28.1495523  14.8635153  20.3242476  27.4261045  15.0384860
  20.1184780  28.9022016  15.3026728  46.7532999   8.8028716  20.4407458
  46.3322527   8.1835841  19.8445563  46.4318640   8.5566186  21.3080840
  88.7397194  50.0078678  81.8585777  88.9739227  49.9590397  82.7853966
  89.3362617  49.3953848  81.4281940 108.0970830 101.6760360  34.1664652
 108.6325473 100.8826695  34.1749434 107.4288052 101.5068780  33.5023741
  47.7164919   4.2604589   9.7957282  47.6207049   3.8719749   8.9261679
  47.3253042   3.6191654  10.3889708  76.1221457  65.3703451  91.6768265
  76.1536598  65.1331425  90.7500172  76.4584017  64.5989656  92.1330452
  30.4337085  99.0922080  21.1123042  29.9277652  99.8334990  21.4450602
  30.9428085  99.4556485  20.3877596  64.8178720  76.7608881  94.2325878
  65.2231407  76.0958576  94.7891140  65.5184698  77.0387793  93.6425304
  31.1669428  23.9355087  44.2349104  32.0408518  23.5449838  44.2310481
  31.0659535  24.3052387  43.3577876  98.0741596  24.7770476  69.8028517
  98.2403755  25.1838803  70.6532001  97.1216106  24.7957754  69.7104788
  72.1037096  95.1034747  17.4128012  71.2792725  94.8452698  17.8249411
  71.8441981  95.4723225  16.5685038  77.9954863  25.0418019  71.9833946
  78.4588051  24.9947143  71.1471224  77.1774435  25.4947758  71.7788172
 100.7434338  94.1960274   0.3056197 101.0408276  93.3090411   0.5082278
 100.1695031  94.4287740   1.0354571  33.3129562  87.1537076  27.2760920
  34.0722049  86.8626223  27.7811007  33.1719363  88.0582867  27.5555281
  29.9946291  13.9629649  18.5633711  29.8956139  13.5200691  17.7205996
  30.9411795  14.0310525  18.6884169 109.6617001  97.8313933  51.2986426
 109.5495910  97.6075755  50.3747611 110.1444549  97.0916711  51.6674189
   8.5355056 101.7097626   5.4661898   9.3633426 101.4748154   5.0470023
   8.3654655 100.9939633   6.0785155  77.1814585  24.7496367  88.8312721
  76.5383387  25.1618648  88.2544708  77.3660374  25.4125023  89.4966793
  31.1967785  11.1830472  11.9291548  31.6853459  10.6922054  12.5899176
  31.0428459  10.5512952  11.2267165  59.8124933  88.5048485  90.2371502
  60.5643654  88.9640808  90.6113529  59.9272346  87.5947952  90.5107784
  33.7063629  13.5201024  44.8830752  33.9747889  14.4093560  45.1141791
  33.4586031  13.1204032  45.7167964  22.6600248  15.0508117  30.0053267
  22.0262224  14.4035768  29.6960978  22.8033955  14.8254823  30.9245066
  55.2857733  47.8036261  83.2201958  54.6543932  48.0487585  83.8965797
  56.1229849  47.7522802  83.6813641 110.1107997  85.2071510  12.2697882
 110.7917565  84.5345531  12.2577528 110.2209920  85.6444655  13.1140952
  45.1787359  18.9090776  50.7130770  44.5955259  19.1473817  49.9924426
  45.4829771  19.7468709  51.0620360  66.0220260  89.7946106  23.5445265
  65.9372682  88.9193950  23.9227347  66.6738337  89.6936689  22.8508429
  49.5437492  89.4270836  23.8593821  49.3922961  88.7649022  24.5337729
  49.9327338  90.1640259  24.3303828 109.8509467   4.5245504  28.3452754
 110.2019275   4.6556997  29.2260985 109.1892326   5.2091312  28.2467417
  31.9639552  92.1548043  15.2557425  31.9663585  93.0467377  15.6031374
  31.5388263  92.2315965  14.4015746  16.4469207 103.9073287  56.0728507
  15.8156646 104.6260320  56.0379557  16.0230411 103.2423840  56.6154437
   7.8271545  77.6265298  44.8890070   7.1933997  78.1702100  45.3569750
   8.6801112  77.9428612  45.1867251 103.2624167  79.9522363  29.9312930
 102.5306767  80.2130686  29.3720488 104.0248269  79.9719654  29.3528800
  95.1419067  28.8727570  61.9093275  95.0722599  27.9352498  61.7291641
  95.3174782  29.2683291  61.0555506 104.3136901  81.1537586  73.7556796
 104.4636506  81.0365353  72.8175883 104.6998519  82.0065699  73.9552264
  36.8438275  61.3554334  12.3365550  35.9365732  61.6397428  12.2256808
  37.2490532  62.0464849  12.8604464  28.7611420   6.4598417  18.9466052
  29.7056181   6.5882491  18.8588290  28.3744747   7.2119283  18.4981780
  48.2506163  16.8265247  14.2283301  48.3678419  15.9263801  14.5320277
  48.6352141  16.8355846  13.3518366  91.7027283  31.6978097  79.8321629
  91.4104462  30.8620477  79.4684219  92.4343777  31.4671159  80.4046154
  28.8558085  18.8799714  17.8649859  28.4039337  19.0969800  17.0495467
  29.1438276  17.9749584  17.7456908  60.0552065  48.2864141  12.9417853
  59.8260481  48.5810422  13.8232092  59.3108732  47.7508973  12.6671748
  85.6693649  37.1654582  90.3248882  85.8427143  37.0489717  91.2590218
  84.8901844  37.7205396  90.2932739  47.2970057  39.8785305  92.6909828
  48.2145071  40.1319838  92.7918720  47.3042536  39.2267847  91.9899750
  27.6982004  15.1172208  14.8368983  28.4995062  15.6407356  14.8281817
  27.9983360  14.2225694  14.9973826  22.4626572  40.9622716  23.9860014
  22.9605658  40.1641702  24.1630511  22.8593189  41.6229486  24.5538001
  48.7168772   4.4573783  18.5350565  49.0396292   4.0107917  17.7523474
  49.4491274   4.4213485  19.1504721  57.6436693  19.6243762   8.5314230
  58.2024462  19.1346025   9.1348509  58.2546026  20.1355504   8.0006747
  65.5322249  24.1774082  38.3904986  65.1238234  23.4302758  38.8278155
  65.6186564  23.9027023  37.4776511 113.6968154  93.4258900   6.9319396
 113.3921498  93.9040886   7.7031283 114.4987029  92.9906307   7.2213416
  74.9456072  49.6514034  80.3383350  74.5302343  50.4881477  80.5470371
  75.0383759  49.6610737  79.3856859 104.8868388  80.8607755  24.9775271
 105.0878972  81.2115870  25.8451228 105.4259509  80.0729929  24.9068789
 102.5013274  87.1718536  13.4312491 102.4119491  87.9790769  12.9246573
 101.6149634  86.8122683  13.4672122   8.1618274 110.1948558  33.5148863
   7.4125636 110.7509099  33.3012347   7.7739967 109.3568717  33.7670760
  57.5508005  15.5326032  38.9998679  57.1571905  14.6607160  39.0333323
  57.7409823  15.7447719  39.9136786  63.3043081  13.0475568  18.2127718
  64.0265829  13.6443185  18.4087996  63.7270434  12.2748136  17.8380827
  22.2658617  47.6240777  32.1163039  22.9699833  47.8707170  32.7159743
  21.7711050  48.4324884  31.9824366  17.1158201  36.9917821  37.1130805
  17.0288880  37.7354383  37.7094416  17.6487333  37.3248052  36.3910441
  59.3650896   0.1988696  15.3202681  58.9497645  -0.5800153  15.6905036
  60.0883658   0.3912019  15.9170203  80.4534626  72.8137827  87.9536247
  81.1240673  73.3387899  88.3905220  79.7814655  73.4465027  87.7000141
  98.1916046  57.5867558  77.8225374  98.9197922  56.9657612  77.8042507
  97.4567413  57.1054268  77.4423647   7.9560787  25.3936815  37.9544215
   8.7084896  25.9198045  37.6836924   8.0733091  25.2753209  38.8970141
 115.5922955  66.8159412  28.7028174 115.2424640  67.5688945  29.1791682
 114.8225564  66.2879036  28.4908919 106.9453544  85.6186853  17.4160246
 106.6734904  85.1454387  16.6296629 106.1481351  85.6884585  17.9412035
  61.4568710  50.7413483  78.0503988  62.0884228  50.4722452  78.7174511
  61.5922451  51.6845131  77.9590321  77.1344060 108.7938367  25.9547858
  76.8719238 109.5739756  26.4433722  77.7373427 109.1209374  25.2871756
  34.7046358   3.3838319  22.2159342  34.2153628   3.5306358  23.0254321
  35.4920227   3.9196777  22.3114447  98.6033935 104.4372998  28.5231165
  97.9244107 103.8289557  28.2313494  99.3416852 104.2712842  27.9369502
  59.7305948  10.7210349  23.4413580  59.1878397  11.4524268  23.1468920
  60.6218130  11.0702419  23.4446005  29.2757160  16.3705110   0.5038886
  30.0190336  16.4298391  -0.0962778  29.4440491  17.0457506   1.1611132
  68.1007177  10.0772905  37.0468764  68.2292444   9.1837739  37.3652129
  68.5212404  10.0880336  36.1870627  11.5503848 103.1476079  43.9997344
  12.4007858 103.1130467  44.4377474  11.6091693 102.4864875  43.3100276
  35.5752022  57.8629541  12.9943137  35.3365500  56.9396257  12.9121642
  35.6225474  58.1792878  12.0921378  96.8915290  81.9548116   1.3431601
  96.9051951  81.6098200   2.2359232  97.7341670  82.3981057   1.2447600
   2.4754585 102.3390780  22.7405219   1.7716659 101.7781506  23.0665164
   2.2411788 102.5117837  21.8286471  73.1891203  64.7320700  94.0890408
  72.2461128  64.5927286  94.1759586  73.5579157  63.8501978  94.0388203
  55.9134912  68.4894562  89.5033455  55.9983873  69.0304232  88.7182426
  54.9714136  68.4540129  89.6690655  51.0299189   9.9643802   5.8649783
  50.1879198   9.5400237   5.7000689  51.0355456  10.1268863   6.8082671
  24.5809425 103.6380158  19.8898940  23.8872112 102.9922972  20.0241332
  25.3913654 103.1575070  20.0588469 107.0010632 106.2193690  33.0579524
 107.8770226 106.4377366  32.7397685 107.1533746 105.7691775  33.8888316
  94.4869804  52.5635242  84.1419220  93.5644245  52.5203943  84.3934250
  94.6950722  53.4977579  84.1538715  37.9435093  21.1646032  22.6963381
  37.8321631  20.7700490  23.5613017  37.9796106  20.4197883  22.0961813
   9.6488059 109.7992955  31.0901789   9.0345729 110.3412019  30.5949263
   9.3208183 109.8259459  31.9890360  54.4380713  52.5299168  92.7405262
  54.6858788  52.3162413  91.8409920  54.0370703  51.7278814  93.0754471
 113.3191222 110.0226651  11.0632185 113.2832784 109.0661965  11.0525565
 112.9549521 110.2665149  11.9141917 115.6965321 106.2570535  15.1395087
 115.7312077 106.8103610  15.9198241 116.3005036 105.5388127  15.3281645
   9.1527397  15.3333520  34.3912653   9.4312508  14.4765662  34.7146468
   9.3310673  15.3041171  33.4512763 114.2626304  97.0107137   1.8967013
 113.3089990  97.0828543   1.9369654 114.5812291  97.7945672   2.3442511
  73.5639954  70.3500414  94.5174789  73.5801125  71.2855434  94.7195053
  72.8097200  70.0134993  95.0012589  10.0554813 104.4946204  24.8899703
   9.1377414 104.2474948  24.7763876  10.2224220 105.1245986  24.1889147
  83.4295863  90.8918129   7.4865775  82.8354377  91.4295374   6.9630675
  84.2205256  90.8192955   6.9523577  19.3001682  23.2750129  13.6193232
  19.8038752  24.0769433  13.4799819  19.6326620  22.6657533  12.9601721
  55.5396080  85.8707905  83.6883831  55.6352425  86.3638496  82.8735352
  56.4377785  85.7040691  83.9742661 110.0278872 102.2631274  38.4112505
 110.2683276 102.7537595  37.6253085 110.8635062 101.9756804  38.7791495
   7.1518005  88.0361496  25.0826125   6.3123286  87.6153265  25.2681498
   6.9844878  88.9701758  25.2084403  97.9841137  60.8744431  73.0416775
  98.7590218  60.8375263  72.4809694  98.2483768  60.4265118  73.8452625
  72.3844511  30.5784272  41.4353137  73.2756598  30.6035756  41.0869650
  71.8552477  30.2362394  40.7148413  61.7343981  22.7265739  18.3472876
  61.9186670  21.7875528  18.3244662  61.7501719  22.9961347  17.4289660
  36.2063725  52.1214246  33.1368975  35.9083969  51.7531633  32.3051314
  36.1145908  51.4034700  33.7632803  20.7568915  -0.1392985  19.1409163
  20.0279457   0.4424524  18.9254145  21.4645178   0.4500198  19.4020514
  14.9753458   2.8484344   5.2562003  15.3501160   3.2364177   4.4654707
  15.5868323   3.0868816   5.9529547  14.0758289  84.8041879  26.9285254
  14.7251857  85.1642047  26.3244204  14.2014182  85.2992736  27.7380709
 101.4845437 105.1005612  26.5550761 101.9021958 105.9616099  26.5748934
 101.8433589 104.6427594  27.3152785  29.5505411  24.7168540  28.6382441
  30.2545006  25.3588437  28.5459189  29.9469692  23.9952754  29.1265063
  41.7356569  27.3374509  16.4312987  42.6099569  27.2516488  16.8113856
  41.4558108  28.2208204  16.6712527  99.8599547  84.1206084  14.2105441
  99.1542167  84.5369182  14.7053675 100.2250117  84.8251162  13.6751608
 101.7114276  89.4242893  22.9804186 101.3949031  88.8659583  23.6905627
 101.8902987  90.2662073  23.3992342  14.5351584  31.1994218  25.8775858
  14.8119719  30.7382249  25.0858168  13.6410887  31.4843129  25.6886248
  85.9682178  54.6785688  53.1440163  85.9325981  54.2653608  54.0066957
  86.8747330  54.9733019  53.0568695   0.1952041  71.2378023  60.0869421
   0.1404680  71.4900671  61.0086779   0.8715499  70.5608640  60.0636439
  23.5108502  26.5316438  10.9793334  23.1739838  26.9195031  10.1716666
  24.1190130  25.8539914  10.6841044   3.4892333 102.3425589  33.3436350
   3.8728679 101.7090808  33.9500765   3.0553115 101.8063699  32.6799826
  24.9557365  88.0436741  78.3518939  24.7220195  87.2532140  78.8384966
  25.6401695  88.4558569  78.8790469  69.5474131  13.1907176  33.1302886
  69.7055990  14.1282176  33.0193762  68.6008532  13.0935811  33.0262713
  82.1218777  83.2427883  94.2934036  83.0618858  83.4120560  94.2304420
  81.9483566  82.5972080  93.6083221  28.3257658  45.6103849  19.5782332
  27.4804194  45.9421396  19.2756609  28.9042313  46.3726758  19.5556120
  13.9387495  16.1003637   7.1138529  14.6871740  15.8943557   6.5538077
  14.2475874  15.9209537   8.0019240   0.7989294   3.7277269  17.1016364
   0.1557977   3.2384395  17.6146750   0.3248365   3.9931440  16.3135867
  51.3707716  10.7201433  23.1450705  50.6797106  11.1272716  23.6674838
  50.9025843  10.2230691  22.4742846 112.9965323  85.5894838   5.6281523
 112.1864051  85.7040249   6.1249403 112.8433150  84.8080645   5.0969843
  57.6418543  24.5696831  95.1976109  57.1633530  24.8814511  95.9657764
  58.4670305  25.0544119  95.2164459  48.1537325  15.6101941  20.7708506
  47.6292879  14.8268174  20.6050162  49.0434248  15.2804803  20.8972315
  51.0108471  57.1512890  89.3165684  51.1108160  58.0387592  89.6609974
  50.6494141  57.2743320  88.4388161  85.5529183  87.4132524  24.9289851
  85.0421256  86.6645561  24.6211295  86.3936585  87.0381270  25.1910357
  12.0539249  97.9605733  10.5781893  12.1907867  97.0967685  10.9672217
  12.7342571  98.0322467   9.9086813 111.4283466  35.4950142  87.1207714
 111.0317039  34.8462009  86.5394306 111.6154003  36.2426615  86.5530872
  25.0780327  27.3272657  60.4814486  26.0344870  27.3569726  60.4582171
  24.8112185  27.4934911  59.5773367  52.7936411  63.6229038  88.9372444
  53.2465315  63.6964941  88.0971813  53.4952116  63.5092258  89.5784283
  89.1355246 109.2353545  36.4785819  89.2983455 110.0090419  37.0181422
  88.2737416 108.9258872  36.7574934 108.2596558 103.0752192  13.8498549
 107.4565143 102.5917159  13.6564116 108.7848729 102.9955302  13.0535941
  17.9980786  32.3170614  33.0452590  18.6091501  32.2347593  32.3131136
  18.4606297  32.8602552  33.6833910  98.6453504  96.9400464   6.2171320
  98.4564465  97.8514252   5.9936862  98.6872596  96.9316302   7.1733813
  83.3290863  48.9991045  78.5885477  83.1331253  49.9028635  78.3414602
  83.4993076  48.5552025  77.7577639  94.8597050  87.2941494  78.4654379
  95.6926060  87.7516556  78.5803556  94.4683743  87.6997948  77.6917839
  26.7166961  96.4527474  11.6812949  27.0222915  96.6792689  10.8029227
  26.7581142  97.2754203  12.1688704  81.3009167  91.0791492  60.1738691
  81.6045475  91.7904472  60.7378578  80.7288170  90.5559063  60.7352638
  63.6261351  31.5807676  25.8961920  63.5672648  31.2541246  26.7940096
  64.2377169  32.3152684  25.9481673  38.9867843  70.0014566  25.2317385
  39.9278892  69.8930369  25.0946002  38.9102805  70.3097986  26.1346774
  91.9056148 109.0250216  50.3721003  90.9696120 109.1653310  50.2291064
  92.1325463 109.6270953  51.0807852  77.8947830  54.7209835  78.4161663
  77.3452616  55.5044651  78.4365702  78.7658596  55.0452757  78.1874990
  22.1745170 109.5793591  21.2334780  22.8409637 109.6217070  21.9192557
  21.6096080 108.8515435  21.4930872 113.1697053  85.8000027   2.4578909
 113.6644381  86.5238105   2.8420405 112.9162425  85.2594219   3.2060675
  27.2766955  12.5541162  38.3219866  27.2258122  11.9226074  37.6044707
  27.5820572  12.0418596  39.0707068  26.7136223   2.6233672  -0.2632566
  26.3702185   3.5167217  -0.2783819  26.8333132   2.4284887   0.6662230
  21.3316662  35.4689168  11.5812926  22.0855839  34.9331521  11.8278651
  21.4002163  36.2475633  12.1337752  14.6684296  14.1617965  56.3668875
  15.5394013  13.8326358  56.1448626  14.4461043  14.7543763  55.6487898
  53.0404646  18.9653920  30.4221873  53.9624865  19.1757488  30.5700259
  52.6430304  19.0062093  31.2920241  69.1019440  90.6492424  81.2798214
  70.0456858  90.7505417  81.4035988  68.9911318  90.5767727  80.3318214
  20.0095637  16.1183261  40.7971529  19.0830881  15.9938764  41.0030512
  20.0694544  15.9568309  39.8555712  73.9338762  29.8055505  30.7827906
  74.5734102  30.0658178  30.1198534  74.4504530  29.6847486  31.5795283
  70.7202053  84.2123890  83.3242798  69.9026680  83.7268066  83.2144070
  71.2802362  83.6264324  83.8334560  74.5070410  67.7022171  92.1289730
  74.6735239  66.7661667  92.0179844  74.5932531  67.8508234  93.0706310
  50.1921255  17.8412055  16.3927798  50.0480063  17.5784301  15.4837088
  50.2187426  18.7976121  16.3642935  24.2189486  20.1124858  50.8790926
  24.0695412  20.2318668  49.9411921  25.0227673  20.6005811  51.0576109
  33.0370314  36.0750436   9.6063571  33.3603603  36.4893197   8.8063101
  32.9917700  35.1432275   9.3921046  43.1222326  13.8097810  30.1204543
  43.1992895  13.0550002  30.7040648  42.2023661  14.0672397  30.1820426
  64.3569929  34.4246530   8.7715201  64.3266089  35.1619005   8.1617884
  64.6544630  33.6863088   8.2399420  76.0988951  83.6205101  79.4921970
  76.2321711  82.6805687  79.3698359  76.9035816  83.9237881  79.9125910
 107.3309517  83.2096577  90.5612659 107.0575237  82.3112965  90.3757381
 106.6002178  83.7494946  90.2598667  63.1067610  86.9329929  85.2565193
  62.8403759  86.4921093  86.0632992  64.0254688  87.1602631  85.3998852
  76.2133104  37.6861047  14.2019705  75.3105051  37.7451944  14.5145087
  76.6987784  38.2982301  14.7550158   7.9431213 103.0878363  28.0391364
   8.8849986 103.2326375  27.9490237   7.6833499 102.6801263  27.2129778
  39.2008383   6.6326427   5.8360915  39.6302921   7.4837732   5.7502036
  39.8867924   5.9966802   5.6329970  74.6430874  76.2919950  92.3016739
  74.2770195  76.2552452  91.4179993  74.5979691  75.3894711  92.6173401
  48.1476099  27.1092462  25.0239043  48.9447767  27.1944188  25.5468802
  48.2341463  26.2593984  24.5920424  17.7117027  82.0994507  42.4145560
  16.8234599  82.0611606  42.0599036  18.0929816  81.2486087  42.1979193
  18.5286123  13.9105844  20.7142024  18.5284359  13.7021398  19.7799735
  18.9476759  13.1559467  21.1278967   4.8421348  86.4068185  20.7668166
   5.4627097  85.7030736  20.9561781   4.2855991  86.0548888  20.0720839
  36.2799675  29.0038060   7.6119189  35.8464462  28.6609029   8.3933978
  37.0547754  28.4517907   7.5061564  16.9938976  16.3782930  21.3934950
  17.5652725  15.6126260  21.3342051  17.5755341  17.0913600  21.6570525
  38.2530672  17.9807472  33.0800108  37.9992230  17.2838687  33.6851172
  37.4939282  18.0887555  32.5070624   2.9501766  92.0584011  84.3328667
   3.7252850  91.5865135  84.0282917   2.5867886  92.4575520  83.5423851
  28.4808791 107.8715668  17.8822951  28.2584918 108.5720692  18.4955458
  29.3781722 107.6290141  18.1109194 104.3675215  12.2361039  18.1026225
 104.4659407  11.9841098  19.0208010 103.4300787  12.1494626  17.9296450
  16.0904086  94.1157590   6.8646006  15.2366889  93.7939487   6.5750746
  16.7158950  93.4776889   6.5212969  85.8877945  69.1652489  72.3670959
  86.8320179  69.0090322  72.3832035  85.7124329  69.4815207  71.4808369
  13.6025298 106.1621104  26.2715296  13.4714378 105.2368651  26.4788107
  12.8809226 106.6108475  26.7121462   1.6598905 103.7323199   2.8433661
   2.2798980 103.1204186   3.2401137   0.8125318 103.4909783   3.2174925
  51.4099009  44.9347829  11.0713820  50.8061010  44.1972303  11.1589579
  51.2694628  45.2547883  10.1802592 113.9001721  95.9837542   5.0901942
 114.6747273  95.7289944   4.5887904 113.8286656  95.3186856   5.7748847
  32.8061468  24.2427587  26.7381339  32.0700771  24.2744588  26.1270480
  33.4070952  24.9185705  26.4245085  12.3536361 101.2361441  15.4331545
  12.6516975 101.4358531  14.5457415  12.8808845 100.4827939  15.6990580
  62.9852629  66.4115381  94.0199566  62.2568750  66.3385153  94.6366882
  63.2190943  67.3396301  94.0342808  72.8808689  91.0631084  68.2935381
  72.5115204  90.2496529  68.6371994  72.1623039  91.4649010  67.8052139
  49.9496634  13.6810254   7.5803141  50.7530100  13.5004138   7.0922141
  49.3664820  14.0879869   6.9396071  47.4901945  33.5271501   9.3591837
  46.7271025  33.2135629   8.8738112  47.4315054  33.0878686  10.2076010
  77.4060059  85.5066776  92.8024769  76.9971085  85.4605961  93.6667156
  76.6817808  85.3869057  92.1881580  95.8586216  78.3849812  76.0324717
  95.4869652  78.1521273  76.8832874  95.2362251  79.0110588  75.6624889
  26.7937244  94.5833836  33.2423834  26.5681995  95.2323209  32.5758605
  26.9028724  95.0927983  34.0453867  22.8547633  88.4938680  59.5955901
  22.7710498  88.2983957  58.6623148  22.9544032  87.6375972  60.0116496
 107.6244563  89.2029033  16.8939261 108.1766576  88.4505997  16.6809897
 108.2415170  89.8872243  17.1530966  16.9724304   9.6619939  18.4792571
  16.0760433   9.9394845  18.6682658  17.4664719   9.8966264  19.2648177
  34.0109570  28.1989049  13.0281405  34.5131142  28.5141610  13.7795977
  33.2625515  27.7437734  13.4141116  55.2286339  94.4111252  78.3810377
  54.3358421  94.0660286  78.3887482  55.5325556  94.2691517  77.4845409
  33.1954701  53.8362932   5.2696185  33.5284598  54.1603708   4.4327597
  33.9779932  53.7111711   5.8064894  17.1985752  19.8742627  12.2696261
  16.8365175  20.5115842  12.8852324  17.8462298  20.3681611  11.7667918
 107.8726548 104.0762387  21.4586977 107.4231023 103.4222279  21.9938712
 107.4661464 104.9072657  21.7044024  20.9103645 103.2956944  15.1824145
  21.5851558 102.9107438  14.6232180  20.1964915 102.6581536  15.1698355
  53.0473328  97.2815800  89.0632343  53.1615639  96.3312435  89.0696907
  53.4674835  97.5678062  88.2521915  57.7521307  55.7612371  11.5261893
  57.8814108  54.9091195  11.9426112  58.5518725  55.9042596  11.0200266
  23.3038122  15.6180047  24.2358927  23.3949024  15.5443668  25.1859049
  24.1406281  15.9782123  23.9422564  50.8467276  25.2903127  48.0041079
  50.2094729  25.5983972  47.3597388  50.4777796  25.5492067  48.8485484
  26.5383751  12.5359344  25.9371047  27.3452551  12.4083947  26.4360098
  25.9426195  11.8644714  26.2694411 107.4674881  43.9813947  11.8522887
 106.9672406  43.1864881  12.0369772 107.5465525  43.9984464  10.8985095
  64.5135386  38.1354760  14.2730956  64.7995360  38.2968759  13.3740000
  63.5819513  38.3554410  14.2712454  81.0891914  64.0939283  70.3525543
  80.7685947  63.8406944  71.2181902  81.2819672  63.2640028  69.9163198
  69.1138935  57.7065516  81.9163704  69.3391037  57.6729584  82.8460979
  68.5815048  56.9245577  81.7704868 113.7220669  83.6293602  81.8639660
 114.0928459  83.3210373  81.0371113 114.3464375  83.3397675  82.5292015
  70.1012308  42.0118474  29.2673831  69.9732191  42.6200151  28.5393767
  70.8708937  42.3472261  29.7271304 104.1969013  49.8760653  91.8134499
 104.4206333  49.3758774  91.0286045 103.2553387  49.7424603  91.9223022
  74.9826510  13.2589816  46.0783915  74.5721037  12.3986053  46.1645846
  74.3427927  13.7824439  45.5959086   1.8695176 101.0808287  17.8610091
   1.0594714 100.5763207  17.9353861   1.7511810 101.8142472  18.4646086
  22.9259379   7.9131555  35.2705340  22.1212370   7.6693200  35.7279448
  23.5930569   7.3294877  35.6318049  17.0445616  25.3837919  30.9948306
  16.4652855  25.3631448  31.7565684  16.9225723  26.2581014  30.6247954
  10.1118166  30.6206464  37.4360899   9.3537695  30.2076101  37.0225672
  10.7288296  29.9024915  37.5767283  57.3780615  17.7608823   6.5132098
  56.7689402  17.9731845   5.8060126  57.1294291  18.3474111   7.2276263
  51.8113882  19.6416330  21.6199927  51.3739187  19.0719938  22.2527365
  52.3104555  19.0432596  21.0640196  34.2008240   7.0308399  35.2214293
  33.3253891   6.9487428  34.8431353  34.0613825   7.4874400  36.0510687
  97.4494362  83.9486599  65.5809641  97.5579166  84.8744011  65.3630829
  98.0219746  83.4893227  64.9666119   6.7225421  82.4711834  42.9564909
   7.0367301  82.2266660  42.0860152   5.8925212  82.0039998  43.0515055
  33.9872772   9.1381263  27.3652796  34.8733837   8.8562726  27.5924448
  33.4520561   8.3511352  27.4673323  93.0416554 106.7660056   9.0429644
  93.5184258 106.2746297   8.3740286  93.7259644 107.1608220   9.5834021
  36.6835768  82.3924112  10.4093985  37.0486099  81.8450403   9.7141509
  35.7376368  82.3623990  10.2661280  98.6966133  38.7395954  75.6483364
  99.5625877  38.9069009  76.0202646  98.3682346  39.6056890  75.4069233
  97.9313469  78.0396175  90.7472038  98.6218452  77.7009392  91.3170624
  97.2402763  78.3184195  91.3479710  50.1650221  54.2372655   7.9730277
  50.0065024  54.9621248   8.5777430  49.4195635  53.6507463   8.1015448
  48.1291086  15.8519029  44.6513514  47.5281222  16.4675521  44.2318110
  48.5101206  16.3460922  45.3771929 100.5287522 105.3938018  31.9296031
 101.3606948 105.5956231  32.3578124 100.6045360 104.4725047  31.6811900
  72.1311426  93.7697124  93.9734268  72.2699356  93.8351440  94.9182510
  72.3007345  94.6525574  93.6447239  37.2856409  68.5924768  14.8506598
  38.0868752  68.5144948  15.3685145  37.4737293  68.1118058  14.0445570
   6.0355885  39.5146703  23.1072382   6.3319189  39.4769620  22.1978430
   5.5933363  38.6778306  23.2499270  78.4817028  21.8584275  77.4646759
  78.6198854  22.6385856  78.0017900  77.6680231  22.0340300  76.9921064
  48.0493224  69.2128180  27.2235255  47.9346622  68.4182893  26.7021708
  48.5082591  68.9188073  28.0103926  47.4080610  83.5783768  79.4012451
  46.7096472  83.6426830  80.0526333  48.2070398  83.7869358  79.8853588
  42.7239097  88.8248692  12.6507048  43.3636916  89.1346322  13.2917647
  43.1911052  88.8481246  11.8155818  17.2438396 104.6859036   5.6674819
  18.1226218 104.7356091   5.2913146  17.3365176 104.0958844   6.4154963
  71.9822390  34.3265008   9.0799288  72.1680529  33.4773206   8.6791853
  71.6129477  34.8509645   8.3694415  52.5901491  10.3141355  19.2902903
  52.2210486  10.5821943  20.1318125  52.5919611   9.3575095  19.3233828
  93.5653877 105.2924919  79.4156456  93.6436749 104.3666744  79.1855192
  94.4146156 105.5174732  79.7956896  36.5400631  48.0858468  14.5217757
  36.3072426  47.6520490  15.3426604  37.3686392  48.5264539  14.7103362
   7.0037139 102.9706775  53.1975894   7.5572170 102.2297679  52.9507784
   6.2225307 102.5696145  53.5785441  43.1321967 104.2973719  25.9729533
  42.4184478 103.8656483  25.5034689  42.7229942 104.6415911  26.7668585
  16.3301785  50.1098108  35.6546549  16.4391977  50.2905511  34.7210173
  15.9085257  49.2510175  35.6847243  11.1482317  51.9566201  30.6901030
  11.6368420  52.1042108  29.8803381  11.8226893  51.8145227  31.3542895
   6.6532863  87.5277124  36.3524966   6.4275611  88.3413015  35.9015517
   6.2955821  86.8372856  35.7943015  44.6146376  16.2683391   1.7752985
  45.3098566  16.6527366   2.3092894  44.4789583  15.3977441   2.1493201
  25.5921108  27.6163530  74.1995196  25.0567085  27.5467538  73.4091143
  25.6593735  28.5574102  74.3611483  63.4286005  11.3910150  26.0601382
  64.2817576  11.5366458  26.4689593  62.9197008  10.9286451  26.7260699
   7.5607646  82.8398476  23.1822447   8.3884490  83.2805954  23.3743529
   7.6151145  82.0105849  23.6572222  92.8641129  62.0868969  88.6772633
  93.6842537  61.9431400  88.2051086  92.6770496  63.0175829  88.5545349
  32.7465040  27.6522302  18.4792952  32.7319700  28.1307935  17.6504473
  33.5857470  27.1919107  18.4753947  99.4665307 108.7069426  25.2391295
  99.6272010 109.4404803  25.8327155  98.9700574 108.0787288  25.7636218
  65.1190359  15.7394265  21.6350703  65.5692942  14.9009990  21.7377524
  64.1950113  15.5058049  21.5465693   6.4512027   2.5171221  84.7684765
   7.1608222   2.0809973  85.2401257   5.8851684   1.8035258  84.4741726
  58.5080416  26.9668149  29.2481665  57.7880175  27.0403718  29.8745684
  58.1014616  27.1252012  28.3962111  88.1235123  57.0411205  89.9917221
  87.5775814  57.0796824  89.2064190  87.6892281  57.6243448  90.6142044
  22.7183688  35.7608641  77.6114702  22.3424686  34.8892153  77.4883604
  21.9601882  36.3378371  77.7036428  74.6985037  50.8227109  18.3633189
  75.0816805  51.5506696  18.8526873  74.5392973  50.1479196  19.0232806
  57.9585726  45.0710725  27.1686034  57.4818785  44.2413568  27.1446566
  58.2870848  45.1843881  26.2767081  46.6230089  72.0421075   9.7592787
  46.5355284  71.0892057   9.7357897  46.7108042  72.2972822   8.8409094
  85.2298546  19.1428626  78.8839483  86.1561966  18.9275563  78.9924669
  84.7915077  18.6823702  79.5995092  75.3505707  26.1289835  91.3340282
  75.3302097  26.0559177  90.3798389  74.9314785  26.9694734  91.5188789
  56.1750889   3.7119448  58.7352657  57.0755434   3.4515783  58.9292383
  55.6417370   3.2023570  59.3452549   4.0134555 109.3047198  93.2304096
   4.6200067 110.0429681  93.1728172   4.2284185 108.8824429  94.0620995
  67.6434565  22.7995372  54.8398590  66.8353939  22.4525261  54.4619083
  67.3670149  23.2134223  55.6574821  93.0472964  43.7187861   6.4423899
  93.0560559  44.6757386   6.4622836  93.9707822  43.4699546   6.4810233
  87.0603532  53.0186099   1.8839793  87.5976056  52.4395664   1.3433318
  86.9270486  52.5315894   2.6971678  57.9336637  63.7992202  14.1251139
  57.9703027  63.8572024  13.1703810  58.7164146  63.3033298  14.3651633
  82.4212808  70.2135216   1.6133646  82.3383731  69.4175289   1.0882430
  82.1384114  70.9166823   1.0287432   4.5654548  63.7754409  20.9192042
   5.1631034  63.2399134  21.4409880   3.9276374  63.1524305  20.5709605
  59.2380762  32.9056573  79.2552423  58.4546709  33.4029317  79.4902563
  58.9891005  31.9906759  79.3858242  40.1484823   9.2294073  83.6881542
  40.7149935   9.1520643  84.4558239  40.0912714   8.3388251  83.3419991
 101.9679660  17.6011716   0.5356078 102.5740022  18.2501875   0.1782088
 101.1956424  18.1076108   0.7871203  88.4038544   7.7940047  83.7198067
  88.8205528   8.6458397  83.5895443  87.5644875   7.9984999  84.1319656
  83.3019257  13.8242221  61.8806124  83.1833744  12.8906953  61.7053843
  82.9381657  13.9515388  62.7568007  39.2928219  35.0609064  86.7076492
  39.3941498  35.3573227  87.6121330  38.9170218  34.1838551  86.7836952
  80.7999581  55.2906725   5.6317667  81.7207307  55.2877219   5.8933119
  80.3434533  54.8651264   6.3575415  88.0387372  86.8248592   9.1612200
  88.1945962  85.9251200   9.4482855  87.1057767  86.9686447   9.3197779
  84.8780698  72.3579524  18.9929919  84.3800515  72.0930670  18.2196574
  85.5890101  72.8973816  18.6468462  92.1324921  10.4681826  94.9255466
  91.5699387  10.8397925  95.6050014  92.5136566  11.2291574  94.4875240
  23.8834823  87.5761829  25.0135378  24.1639579  88.4902774  25.0581984
  24.6905006  87.0725547  25.1198630  62.9953146  12.2282004  91.6089439
  62.3247576  12.7866840  92.0022392  63.6811972  12.1726561  92.2743130
  82.2935695  77.9598389  30.7386450  82.8788012  77.4996625  30.1370005
  81.4320487  77.5760136  30.5752520   4.4475616  68.5914706   0.8545260
   4.7126640  68.6760293  -0.0613351   4.9250377  69.2866669   1.3072352
  16.8764842  88.9785968   8.8891177  16.2943042  89.1052709   9.6382861
  16.4360965  88.3197366   8.3522753  15.7493239  84.2917692  78.8508081
  14.9688274  84.6353017  78.4160185  16.3925487  84.1967212  78.1483412
  96.5733117  81.2038003  26.9085459  96.7167062  80.2835761  26.6875033
  97.1747273  81.3724242  27.6338725   4.7595626 101.6747688  78.6581516
   3.8865119 101.7449712  79.0442657   4.6474629 101.0760533  77.9197741
  88.8332862  88.6376248  16.4695220  88.7428922  89.5397006  16.1624102
  88.8455790  88.1123195  15.6694369 109.8311013  71.0124801  10.7831816
 109.9640006  71.8520485  11.2232832 109.3123645  70.4975425  11.4012293
  80.8263969  33.3838940  94.4909954  81.7242146  33.5684037  94.7668839
  80.7718182  32.4283600  94.4766617  30.5787802  28.1157279  82.0338345
  30.9444213  28.8555074  81.5487957  29.7519851  27.9242229  81.5911579
  99.2894000  57.6878677   4.6311526  99.5614499  58.4995682   5.0593524
 100.1035184  57.2019052   4.4996981  12.2179109  76.2658845  94.6843719
  11.8719894  75.6535994  95.3337383  11.7381745  77.0789682  94.8424053
  89.6945971  80.7061230  10.0227789  89.9733180  80.7510863   9.1081576
  88.7898654  81.0185300  10.0130991 102.0191878  27.1215711  11.3844351
 101.4220017  27.8597866  11.2634520 102.0239800  26.9697724  12.3295073
   9.6380199  69.4860957  18.9934210   9.5737804  69.8682915  19.8686461
   8.7294353  69.3640743  18.7180762  29.3138051  25.3865957  83.3729458
  29.9818230  25.9869361  83.0419159  29.2823720  25.5586100  84.3140316
  25.3402484  52.5679181  24.0243010  25.8418430  52.1295301  24.7116522
  24.4978202  52.1135257  24.0157084  50.8109570   9.6141797  69.9492311
  50.9299088  10.5418348  70.1530409  51.2140846   9.1536522  70.6851912
  60.7819748  20.8757734  67.0624638  60.3926992  20.0411201  66.8016005
  61.0220051  20.7515097  67.9807138  34.0759873  20.5627751  91.3523102
  34.8688126  20.6189251  91.8857002  33.7219691  19.6935236  91.5402126
  18.6565555  70.5828903  17.8403811  19.5906795  70.7907282  17.8615622
  18.2435096  71.2850366  18.3429865  45.0233728  90.1455080  85.6806087
  45.1335794  90.7507180  84.9472618  45.2785760  89.2929899  85.3280258
  87.2157735  81.4285193  37.9498248  87.5683850  81.6525327  38.8110499
  87.8625745  80.8312236  37.5741629  22.3948365 109.7444120  87.4843979
  21.4950973 109.5517857  87.2205925  22.6264363 110.5304161  86.9896317
  30.5466920 101.6867833  80.4677391  30.9095698 101.9421612  81.3158798
  30.6418162 100.7346325  80.4434299  54.2251062  12.6514006  87.6950932
  53.8359165  13.3320594  87.1460342  54.7965574  13.1273997  88.2976723
  59.9154753  74.6007906  23.1532244  59.8995322  74.7474466  24.0989928
  60.8334392  74.7172187  22.9082350  86.7104644  74.4952927  12.2700457
  86.7425269  73.7213348  12.8323607  86.4081544  75.1974760  12.8460555
  72.6793283  79.3221865  22.8042178  71.9476265  79.7576581  23.2414965
  73.2285804  80.0384794  22.4856619  60.9073973  60.0208855  87.4869823
  60.8615589  59.4415522  86.7263889  60.5818081  60.8622742  87.1671581
  34.1989756  31.0222197  89.4827175  34.8691726  31.5860939  89.8688793
  33.4097528  31.2043619  89.9927998  37.6230413  94.6621822  67.8205252
  37.9929763  94.2262827  67.0528173  36.6988975  94.7855364  67.6037979
   7.9951156  53.1166109  16.3895468   8.6418594  52.8400017  17.0387320
   7.8229869  54.0346127  16.5990214  21.9676190  87.3293983  76.0643864
  22.8793269  87.5796019  75.9146500  21.4645320  88.1123935  75.8406639
   9.5933896 109.0710742  74.9287510   9.9926931 109.8528331  75.3103781
   8.6612922 109.2814278  74.8723745  78.6392069  12.3219824  77.3741150
  78.1485367  12.4647808  78.1834888  78.0637789  11.7760408  76.8383360
  46.2277508  50.7218027  86.5167427  45.8464003  51.5721416  86.7352009
  45.9059668  50.1325941  87.1990299  56.6784382  18.1686199  93.1944466
  55.8880377  18.6766613  93.3771801  57.3981571  18.7432849  93.4552097
  56.4511806  64.1410164   9.3407778  57.2645384  63.6385785   9.2934851
  56.1139399  63.9686237  10.2198653  73.4869164  92.6808773   4.3453936
  72.8508300  91.9721065   4.4416766  73.7010378  92.9341470   5.2433066
  72.0995426  54.3655872  81.4706039  71.5710783  54.6685076  82.2089863
  71.5869093  54.6000862  80.6970119  74.6211404  26.0672079  18.5844187
  73.6734170  25.9448920  18.5288195  74.7447485  27.0140563  18.5178427
  63.2841444  10.5179107  75.7146788  63.4684849  10.4457736  76.6511869
  63.2729673   9.6131569  75.4023838  50.1093531  19.4968843  79.5561171
  50.8568001  19.7470522  79.0130091  50.5012274  19.1229057  80.3452969
  60.9066868  20.4229140  86.4859581  61.0695410  20.3399920  85.5463696
  61.3831043  21.2123847  86.7428589  73.8428879   9.3096870  76.4303589
  73.7958288   9.7525078  77.2776651  73.1195927   8.6829543  76.4471579
 103.7617845  78.3171688  22.8551440 103.9284390  78.4709416  23.7850909
 103.4808034  77.4032484  22.8100924  28.5805368  20.0727797  93.8883305
  27.9616785  19.5248723  94.3710804  29.4423079  19.7507584  94.1526794
  67.9631424  40.1611233  70.4715633  67.2958136  40.1395702  71.1574507
  68.3747482  39.2978215  70.5106544  30.4260707   6.1351341  77.5910425
  31.0465169   6.8009013  77.2943401  30.9761858   5.4084581  77.8835249
  79.0310717  34.1373062  76.0310555  78.7910080  34.9970913  76.3765574
  78.8400888  34.1935706  75.0947905 105.5475158  39.6609472   5.1424460
 105.4336900  40.2392505   5.8966593 104.6587008  39.3913041   4.9110846
  90.3784275  26.5194798  73.0979347  90.9626102  27.1900463  72.7439642
  90.9593487  25.9160638  73.5612440  77.8985423  69.5149504  12.0418982
  76.9624275  69.6606980  11.9052271  77.9430527  68.9538310  12.8161101
   5.8261550  93.8713465  15.9928469   4.8917735  93.8661681  15.7851462
   5.9461368  94.6492897  16.5374999 111.2395209  53.6542335  11.2627081
 110.9351415  54.4798408  10.8859400 111.1266107  53.7657051  12.2066741
  62.5623751  30.6467700  91.8099117  61.9546461  29.9727988  92.1143150
  63.3606625  30.1671743  91.5886593  44.3735552   6.6880584  82.8783798
  43.8495111   6.6301334  82.0794678  45.1187038   6.1088848  82.7185631
  80.0334835   2.7720979  88.4204197  80.8418083   2.6585823  87.9204655
  80.2201462   3.4978157  89.0160084  60.4621071  74.0024958  40.4480319
  60.2849072  74.5907615  41.1820464  61.3364071  74.2508136  40.1477484
  99.6392602  59.6261303   6.4679389  98.8426846  60.0967516   6.2225394
 100.3380793  60.2737246   6.3757185  96.5455407  58.3444698  26.3509707
  95.7321567  58.4581949  26.8425993  96.9984883  59.1830025  26.4400534
  44.5036364  10.4488194  79.9324846  44.4624043  10.0812888  80.8153534
  44.2406988   9.7278452  79.3603897  17.7529508  88.1352674  85.5550957
  17.1870357  88.5280143  86.2197208  18.6392242  88.3832537  85.8182526
  32.3987132  89.8669659  69.9528599  32.9431468  90.5534863  70.3382349
  31.7135984  90.3409420  69.4814873  92.8944272  58.2839428   4.4627623
  93.0447024  59.0129961   3.8609843  93.6718673  58.2700057   5.0209860
  92.3660201  71.1215387  14.0429549  92.2375125  70.4708277  14.7330908
  91.5436715  71.6108261  14.0189700  97.2439021  60.1751320  39.6024470
  96.5775365  59.9691497  38.9468817  97.0289630  59.6134500  40.3471236
  33.7749624   8.7934309  72.9649115  33.0167389   8.7470073  72.3825216
  33.5408688   9.4605833  73.6101532  96.6760320 109.3992244   8.0783038
  96.0565776 109.8912154   8.6172442  96.4816445 109.6710597   7.1813349
  83.6087912  52.2335268  21.3695578  84.5027226  51.9069607  21.2672190
  83.0669373  51.5995036  20.8998255 112.7340423 106.3089358  76.1359787
 113.3593690 107.0160752  75.9773922 113.1344234 105.5397623  75.7306433
  68.1557703   6.1805832  57.5505447  68.5001421   6.9649786  57.9775858
  68.9078569   5.8091640  57.0894194  47.3192006 108.1472722  94.3616199
  47.9655820 107.6071869  93.9069462  46.9097501 107.5526344  94.9901104
  95.8470363  90.0728474   0.4653410  95.1557177  90.3394662   1.0713343
  95.7235259  89.1293751   0.3612189  76.6511458  57.0994843   8.7164549
  76.3811702  57.3945963   9.5860819  76.1232633  57.6211265   8.1119208
  70.6257433  28.5915433  14.3010287  70.9765428  28.9980565  13.5086207
  71.2149924  28.8787494  14.9985461  64.5546818  13.5952365  70.4725456
  64.6459675  14.3863595  71.0036039  64.3680382  12.9019988  71.1056471
  75.8323193  14.3896937  51.9149160  75.1662397  14.8544896  51.4084196
  76.2458229  15.0692236  52.4473476  80.2853507  44.8235093   8.7530283
  79.8505134  45.1124690   7.9507498  80.6055612  45.6305866   9.1559271
  20.5420947  35.5162311  86.2250137  19.7893775  36.0752726  86.0323524
  20.4955316  34.8182654  85.5716324  13.5587561  21.1565924  89.5254421
  14.1347599  20.5627060  90.0068474  13.7746751  21.0060525  88.6051464
 110.4778642  94.5577918  10.6716208 109.6188754  94.9650346  10.7835059
 110.6246346  94.0801154  11.4880328  61.1543751  32.7046132  82.8301239
  60.8053207  33.5107398  82.4499321  61.1145592  32.8488708  83.7755585
  68.9896196  60.9522866   6.5142684  69.6352452  60.4231863   6.9827227
  68.2619447  60.3524373   6.3502459  79.4956493   8.8190126  50.3984451
  79.2028475   8.0187649  49.9624348  80.4478836   8.7326300  50.4433393
  50.8407408  89.1484915  21.3421301  50.7574278  88.2766090  20.9559779
  50.6007463  89.0274940  22.2608141  32.5321036  96.8617653  81.0529900
  33.3172303  97.3324572  80.7732582  32.5555545  96.0421072  80.5591869
 106.2098569  91.2339769   4.2982440 107.0475024  91.0592686   4.7272639
 106.4435214  91.4493595   3.3953433   0.0561441  85.2772842  22.8034071
   0.8890403  85.7092868  22.6139597  -0.1259267  84.7550164  22.0221858
 105.3742618  94.1603409   6.0145335 105.5775184  93.8127266   5.1461558
 106.2249392  94.4016896   6.3810400  57.5731134  34.4029307  87.9222584
  58.0467033  35.2258825  88.0434990  57.1931219  34.2165446  88.7808037
  81.7775220  77.5619732   9.3471484  82.7260512  77.4468814   9.4043879
  81.5242595  77.0762573   8.5621790  41.1816597  23.5844612  82.9104710
  41.1137438  24.4347763  82.4762058  40.8855915  22.9552603  82.2526836
  68.4771818  88.9209066   1.8224673  68.5156506  89.8486553   2.0549254
  68.2744140  88.4760080   2.6453738  73.6532068  36.0577202  83.8083744
  74.5934296  35.8795118  83.8297367  73.2519913  35.2064371  83.6335278
  77.5011349  49.1003799  74.8786020  77.5052166  49.5783997  74.0493155
  76.7733240  49.4804859  75.3705788  66.3170338   1.9026323  81.0693264
  65.6206274   2.5321603  81.2562656  66.0147667   1.0860284  81.4668465
  75.8986378  11.2791669  81.5590382  76.6052055  11.6451800  81.0270309
  75.1076412  11.7111552  81.2366390  71.2525892   2.2457814  88.0684376
  70.6432676   1.6706821  88.5312748  71.0129404   3.1276178  88.3533382
  48.7311251   9.4043350  10.1140646  48.8674242   9.5833921  11.0444312
  48.3675558   8.5191583  10.0912623  38.6686254   9.3529379  81.2765121
  38.9018106   9.3517649  82.2048664  39.5075321   9.2986763  80.8187675
  93.8539380  69.1407893  38.0497317  93.5084504  69.2789589  37.1678118
  93.2468862  68.5182737  38.4499697  94.4159240  47.3278300   9.8619036
  93.9291686  48.1362896   9.7016005  94.7046155  47.0459591   8.9938979
  22.9650426  13.9674222  83.9724255  23.0228853  14.7521973  83.4274387
  22.3006105  13.4272242  83.5447025  96.5909100  16.9102049  84.0229893
  96.5038013  16.0390902  83.6359501  96.2540913  17.5048482  83.3527756
  35.5766392  15.8046246  91.4138031  36.4681530  16.0447311  91.6663551
  35.3603625  15.0610423  91.9764233   6.0237754  81.1704837   6.9565062
   6.6025794  80.5555092   7.4070887   6.5088142  81.9956742   6.9508795
  99.7408104  17.9314184  66.1525393 100.5627537  17.9543281  66.6425467
  99.9721527  18.2539892  65.2815247  55.1044607  61.7381859  77.2216415
  55.8706474  61.4415264  76.7305422  55.2235365  61.3695335  78.0969381
  37.0628548  11.7578292  78.0015326  37.5161314  11.6795933  78.8409662
  36.9873595  12.7010512  77.8570938  57.3229790   8.6060667  91.1359787
  57.7396631   8.1299210  91.8542385  57.5173140   9.5262581  91.3140583
  34.0211749   3.6936343  82.9474926  33.4052420   4.3774167  82.6842403
  33.9579892   3.0351022  82.2556973  63.3852720  48.9202404  91.5592194
  63.0149460  49.1777229  90.7149506  62.6585293  49.0072298  92.1760750
  95.2868098  76.8090521  10.6892924  94.8341578  75.9723197  10.7952075
  95.9099120  76.8378626  11.4153437  27.5302661  69.7680329  19.2816119
  27.6560081  70.5655871  19.7957377  28.4172405  69.4787358  19.0675501
  77.7856225  70.0163923  33.0467371  77.6663345  70.9458671  33.2418780
  78.1676835  69.6512185  33.8448004  80.5893296  63.8791142   8.4936099
  80.6602305  63.2268922   7.7966074  80.4789418  64.7108917   8.0329661
  42.0923853  25.9854603  87.0052528  41.6824961  26.7284632  87.4481678
  41.4464474  25.2820301  87.0698929  49.2208481  23.6675048  79.7127151
  49.3258858  22.8095651  79.3014574  50.1008558  24.0440702  79.7093773
 106.7779368  81.5825377  31.1562590 106.0522384  81.9117413  30.6259493
 106.3552350  81.1210571  31.8805460   3.9878047  59.7929339  23.0638556
   4.4892181  59.0379600  23.3718066   3.3767856  59.9813406  23.7761645
   9.8633498  27.7669597  63.3686543  10.7723653  27.7756882  63.6684036
   9.8273158  28.4443855  62.6933575  46.3826466  51.2305546  94.6049786
  45.6748295  51.3518095  95.2378559  47.0325899  51.8917465  94.8429489
  99.9573535  86.3185106   0.5925135  99.8239106  85.9396277  -0.2763219
  99.7481364  87.2462354   0.4839568  95.6450242  24.7130166  20.2868227
  95.9340114  25.6254588  20.2738528  96.4135140  24.2144166  20.0092368
  95.9777087  77.2596203  24.4815783  95.3875750  77.5541483  23.7878756
  96.8453330  77.5449191  24.1951136  92.5691384  86.5831791  31.4833788
  91.8917531  86.3234459  30.8589415  92.0919579  86.7627083  32.2934966
  94.0034551  83.7946187   9.1473059  93.8436145  83.8059984  10.0909953
  93.3287019  84.3676315   8.7831740 110.3676814  50.7124515  19.7454504
 110.2958602  50.0998239  20.4774050 110.4888696  50.1545302  18.9771513
   6.5086490 107.4999793  92.0764923   6.3648110 108.4128805  91.8271828
   5.6578189 107.0801630  91.9497013 106.3600224  79.3171249  28.2088999
 107.0651692  79.1664778  27.5793700 106.4997882  78.6568199  28.8876490
  70.4416323  20.6059861  86.8009472  71.1757231  21.2018895  86.9500828
  70.2592993  20.2303076  87.6622486  31.8062080 105.5126916  42.9199271
  32.3494876 105.8843814  42.2250037  32.3700584 105.5178796  43.6934142
   6.4696468  60.9508894  17.8061251   7.1472705  61.6200392  17.9024939
   6.5052665  60.4544507  18.6237483  64.3835592  10.8767176  78.3045292
  64.8995447  11.6777039  78.2128334  63.8118935  11.0445225  79.0537071
 108.0130786  72.2283183  14.6619563 108.8638848  71.9765089  15.0210623
 107.5071305  71.4158140  14.6525054  57.2822332  24.4313908  72.7888012
  56.3611650  24.6519923  72.6502323  57.2641373  23.7156653  73.4241295
 103.8912696  66.0489605  13.0739741 104.3051356  65.9939276  13.9353232
 103.0157060  65.6851242  13.2052664  72.8267783  72.9387353   8.8080744
  73.0612415  73.6656462   9.3850188  73.5999435  72.3744248   8.8074927
 101.4962673  31.8439293  90.3792095 101.4852428  30.9266329  90.6524849
 100.5899143  32.0322037  90.1356697  66.9994778 109.8518239  22.6966815
  66.9674868 110.2086173  21.8090395  67.8506774 109.4172059  22.7495913
  45.3566837  42.2989416  88.3146572  44.7224188  42.7741337  87.7778721
  44.8506927  41.5904331  88.7124157   1.5032161  76.5624581  11.9263892
   2.3365176  76.6249834  11.4595656   1.1303104  77.4422084  11.8696742
 112.8572768  70.6697260  19.8273043 112.2113627  71.0830997  19.2544608
 113.0829162  71.3487576  20.4630999 107.1124286  67.4715243   7.2232012
 107.5031775  68.0206404   7.9029135 106.2343711  67.2747944   7.5496058
  67.3578548  15.8595824  93.1697941  67.9589510  15.2958381  93.6567307
  66.8161440  15.2528107  92.6652050  56.1383724  31.2343431  93.2381535
  56.3145876  31.2054634  92.2977638  56.0342407  32.1655250  93.4338379
  57.4738455  77.6209784  91.6916656  58.0643511  77.0548010  91.1946964
  57.8893375  77.7060270  92.5497818  59.5541668  15.6147146  90.3091049
  60.0266361  15.6136954  89.4766426  59.5727301  16.5283704  90.5939198
  58.0921030  36.0520434  93.7337399  57.9938459  36.9858718  93.9195824
  57.5435495  35.6186891  94.3875885  62.4172783  43.5762453  93.6222935
  62.6418829  42.8100157  94.1501999  63.2618141  43.9563513  93.3803940
  56.3147211  45.9059191  77.2168493  56.8612051  46.6310120  76.9138336
  55.7966089  45.6599617  76.4504957  18.2947093 110.1695521  74.4508743
  18.2262021 109.5586113  75.1845551  18.0024701 111.0077239  74.8090553
  82.1760654   5.3274989  63.1817293  81.8807125   5.4334760  62.2774267
  83.0844593   5.0358248  63.1043863  96.0039824  74.7514675  30.3486018
  96.4908332  75.4268060  29.8762373  95.8082169  75.1471673  31.1979060
  11.7564643  55.4240203   3.1955294  12.3303951  55.2048078   3.9295535
  12.0083488  56.3148799   2.9523043  50.0983477  31.3779497  90.6609058
  49.4671059  32.0330286  90.9586239  50.9284353  31.8516946  90.6084728
  98.8190860  91.2311135   5.7964091  99.4187755  91.9702063   5.8981280
  98.7220830  91.1299501   4.8495249   1.1266816  72.8187798  30.5550627
   0.8954204  72.7122961  31.4777808   1.8994010  73.3836065  30.5654482
  67.1882010   0.9868300  68.0131674  66.4349508   1.2558270  68.5389853
  66.9318771   0.1426499  67.6418304   2.2205127  77.8585635  33.1876330
   2.8520740  78.5184656  32.9014830   1.9971288  77.3790227  32.3899035
  56.1785412  10.1826251  75.5781460  57.1183157  10.1169527  75.7477045
  55.7675171   9.8327935  76.3686609  91.6062850  79.3043910  16.6403918
  90.9626025  78.8768516  17.2053008  91.9918317  78.5900102  16.1331992
  48.6540651  33.7405181  90.0479603  48.0028963  34.4290423  90.1826572
  48.7287188  33.6642504  89.0967274  71.4130735   1.0818661  46.3065386
  72.2210217   1.2440606  46.7935133  71.4902687   1.6295004  45.5252790
  83.5161591   6.2193394  66.3042498  83.7334442   5.3417265  65.9899044
  83.8825417   6.2547940  67.1878433  79.2905301 102.5853024   6.9410662
  78.5462088 102.9419289   7.4258666  79.5801181 101.8371115   7.4631552
 100.1244658  97.5128804  33.1825976 100.3411454  98.4389697  33.0747084
  99.8783368  97.2206651  32.3049502  50.1514530  21.7938280  92.0571709
  49.2424297  22.0935392  92.0658493  50.1200104  20.9463739  91.6132450
   4.4340099  91.1096822  21.5980391   5.1045669  91.6985904  21.2519602
   4.5643390  90.2908836  21.1196951  72.2317171  45.7441235  77.6253748
  71.5154314  46.3650370  77.7581596  72.4863672  45.4796124  78.5093546
  72.1326637  39.8169374  94.5632362  71.2734985  39.9541259  94.9623013
  72.7482319  39.8754859  95.2939034  71.0863733   2.7799106  83.2223892
  70.2340746   2.3444386  83.2359028  71.2843847   2.9474327  84.1437721
  69.8513478  80.4187046  13.1197218  70.7021707  80.4355083  12.6814894
  69.9119681  81.1025129  13.7867789  63.2817859 102.1438132   2.1472888
  62.5860685 102.5978862   2.6227049  63.0154461 101.2244330   2.1534113
  23.2529194  23.1217241  19.5089488  23.8626988  22.8402089  18.8269286
  22.9608233  22.3080253  19.9198107  82.3550987  66.4627409  91.7476177
  82.6341343  66.7425013  90.8757782  83.1003284  66.6639185  92.3136520
 116.0337657  52.6526797   6.3598780 115.2940434  52.0718942   6.5380148
 116.6302842  52.1248464   5.8290438  63.5181904  38.2308245  81.0707283
  63.2811308  37.3129654  80.9381962  63.1566238  38.4499812  81.9294930
  58.2680893  17.8952384  84.2065430  58.5181141  18.1870306  83.3298588
  58.1663656  18.7040532  84.7082424  94.3263501  79.6365796   2.7341132
  93.3766526  79.7557007   2.7448992  94.4487494  78.7037812   2.5576453
  72.1766329  23.5912800  81.0770798  72.4633026  22.7784038  80.6608105
  71.2207699  23.5534549  81.0434246 104.3880481  86.0417901  48.1778864
 105.1724500  86.0788642  47.6305537 103.7545079  85.5498992  47.6554827
 104.4082260  17.5393951  72.4013948 103.9186192  18.3332312  72.1861219
 104.5515060  17.1102166  71.5578842  45.9581947  10.7256806  84.6914959
  45.0611019  10.8726621  84.9912453  46.5013599  10.9270930  85.4534912
  14.2414647  95.5286836  64.3224239  14.1713267  94.8426603  64.9862623
  13.5870725  95.2933203  63.6646986 113.1352967  86.2801443  10.5868392
 113.1063193  87.1802340  10.2624468 113.6624354  85.8096729   9.9410681
  74.5548552  44.2042850  36.5037493  75.0495285  44.2979286  35.6896548
  73.6376780  44.2354928  36.2316470 103.9590711  90.1702128   5.6270270
 104.7226638  90.4176436   5.1055579 103.2121724  90.5102669   5.1343398
 112.0551557  56.5791485   0.2145915 112.0192117  55.7967649   0.7648806
 111.5053147  56.3669461  -0.5396505  63.3505887  60.7710759  17.2909884
  64.0465659  60.1285599  17.1530776  62.5504965  60.3185461  17.0239691
  71.9241995  76.3096844   1.9622092  72.5863546  75.8233581   1.4710097
  71.2680811  76.5489183   1.3075976  18.2886375  62.7630882  21.3003115
  18.6816562  62.8098826  20.4287772  18.5067332  61.8856619  21.6146140
 106.1482525  21.2718034  58.2861996 106.7657280  21.4344168  58.9993048
 106.5150547  21.7447901  57.5392294  59.9134541  18.4469938  66.5477705
  60.1479101  18.2007229  67.4425411  59.2823458  17.7815235  66.2737608
  92.6210421  59.1887401   8.5703520  91.8553990  59.2389150   9.1426425
  92.6063651  60.0095640   8.0781512  82.1853447  10.6918752  82.0692158
  81.6197109  11.4487898  82.2220707  82.1453667  10.1941848  82.8858757
 100.3808946  93.2614599  21.6342501  99.7643918  93.0516778  20.9327178
 101.2190741  93.3827625  21.1881880  -0.1545066  94.5846628  89.0606499
  -0.1584834  94.9049305  89.9626732   0.5246550  93.9102506  89.0489388
  27.9220819  57.4816608  82.9026222  27.9874086  57.2222281  83.8216782
  28.4133315  56.8105412  82.4287987   7.3507369  55.5879916   8.3549551
   7.4183524  54.8729785   8.9877371   7.4144424  55.1593292   7.5014739
  38.9986634  13.4632993  84.2437458  39.8454118  13.5639870  83.8088703
  38.3904505  13.9676690  83.7034512  43.8607216  17.9146802  83.2692337
  43.0707979  18.2889664  83.6593246  44.5616722  18.5137784  83.5261059
  55.9964418  38.9731479  91.6410351  55.6412888  39.7833109  91.2753391
  55.4121828  38.7628579  92.3694897   0.2925790  54.4121729  36.4491992
  -0.4148042  53.8128161  36.2112669   0.5224622  54.8489373  35.6290583
  59.4238520  59.6906996  92.7692127  59.5445776  60.1276875  91.9261837
  58.5398769  59.9365044  93.0419827  55.5764866  13.4761751  89.8552132
  55.8458185  13.8643622  90.6876850  56.3964510  13.3246851  89.3851662
 109.6503353  33.1038356  64.1472816 108.8002872  32.7236485  63.9256620
 109.4390202  33.8608384  64.6936560 105.5858487  87.4885069   4.2782454
 105.6714791  88.0520426   3.5092692 106.4168233  87.5890313   4.7425799
  75.4316568  49.5856619  84.2602921  75.8851242  48.9604712  83.6948395
  76.1012840  50.2296638  84.4907093  41.0100332  55.1152254  29.2169146
  41.7150566  55.6364553  28.8328700  40.5763231  55.7116569  29.8271613
 101.1380309  71.4445303  12.0380358 101.7600936  71.8486331  11.4330725
 100.5113524  70.9941541  11.4717631  52.5187874  25.5914402  88.6236191
  53.2718658  25.6774163  88.0390549  52.8890133  25.6635618  89.5033741
  96.9157380  77.0293532   0.2046351  96.4769906  77.8765617   0.1273875
  97.4485225  77.1068226   0.9960703  60.7366180   9.7111738  61.9744015
  60.1193333  10.2545714  61.4845943  61.4589071  10.3019822  62.1876383
  91.4186019  94.1373835  29.1174845  91.2148494  93.2043420  29.0530638
  91.7187709  94.2553292  30.0187163 103.3433312  78.3950315   1.4296298
 103.5515517  78.2395492   0.5083804 102.8286284  77.6314960   1.6910223
  72.0546722  23.6844134  76.2444353  72.5185680  23.2631636  76.9680214
  72.6313353  24.3988848  75.9738350  52.3898935   6.1067688  93.1893253
  53.0711174   6.2880200  92.5417805  52.4009705   5.1547915  93.2885551
  20.6465936  12.5507307  58.4121561  20.7721925  13.1937528  57.7143145
  19.7445333  12.2502792  58.3014822  52.0087194  26.2819409  94.9366665
  52.9603529  26.3848543  94.9421310  51.7131710  26.8259478  94.2066383
  51.8608809  16.8408000  71.5158653  52.6330185  16.8833482  72.0799828
  51.2916517  16.1968148  71.9371653  96.3699150  49.5098639  90.2049541
  96.3444519  49.4419193  91.1594009  96.7107010  50.3883171  90.0363731
  30.3795505  28.8901234  84.7775078  30.6562090  28.4302616  83.9849091
  29.5002699  29.2093849  84.5746136  67.1323604  64.4843028  24.0277533
  66.5393943  64.1970436  23.3334116  66.5905303  65.0351016  24.5927863
 108.2153117 103.9397972  83.5253525 108.3982217 104.8521959  83.3010674
 107.8002178 103.5791420  82.7418613  49.5874977  58.3249855  94.9953747
  48.7756062  57.8687620  94.7741795  50.2537346  57.9060316  94.4505501
  37.1845555   6.0643512  71.3633585  37.7738643   6.6646594  71.8200588
  36.3080597   6.4003193  71.5507460  72.0333290   5.7248843  65.2067995
  71.6285133   4.9159515  65.5198193  71.4494228   6.4189029  65.5127764
  50.5343914  14.2709565  79.8912716  51.2637424  14.8802376  80.0055408
  49.7548008  14.7916532  80.0845146 115.2085018  50.5672789  76.4070702
 115.9447479  50.1025915  76.0092735 115.2411938  50.3210831  77.3314905
  82.4511355  83.2588206   7.4748759  81.4983434  83.1672941   7.4682192
  82.7735871  82.3896204   7.7130942  21.0819209  90.4370461  16.9212298
  20.7632888  89.5928441  16.6018157  20.3201640  90.8376442  17.3401217
  95.1554507  68.8537000  12.7337508  94.4808453  68.5815452  12.1116023
  94.6679562  69.1323958  13.5089354  54.1932487  35.9425211  91.8392849
  53.2474375  35.8610463  91.7166901  54.5291328  36.1641026  90.9707737
  95.0208473  36.3512301  65.7931566  95.4805660  37.1790481  65.9331751
  95.6911087  35.6802011  65.9223890 101.8250340  43.5923372  47.3386721
 101.0429591  43.1912683  47.7178053 102.3258323  42.8558563  46.9879202
  81.0182476   3.3854327  92.9620075  81.5058422   3.9300284  92.3440361
  80.1103497   3.6749572  92.8717899  42.4004043  72.8321276   0.9947066
  41.4769328  73.0737053   1.0658412  42.4125922  71.8863772   1.1418108
  46.6364288  37.6424813  87.5894356  46.6494560  38.1184101  88.4198284
  47.5101948  37.7770901  87.2224998 113.4131444  21.1076259  14.0470366
 113.0894220  20.7495260  14.8735957 112.9002607  21.9048261  13.9141802
  42.1905565  42.7035522  89.6728230  42.3469973  43.3563805  88.9904976
  41.2450933  42.5557756  89.6506691  74.0128154  52.3099743  28.0687003
  74.8246306  52.6999956  27.7445559  73.8401383  51.5836786  27.4696116
  65.1281709  79.4125257  16.5512614  65.4930157  79.2485343  17.4208788
  64.5269913  80.1464806  16.6782622  92.0151520  52.1698666  85.4334927
  92.7446651  52.3473454  86.0272408  91.2542725  52.5568581  85.8665466
 102.6987857  86.2446676   0.8749918 101.7501277  86.1530577   0.9637789
 103.0030507  86.4526115   1.7584090   2.5424064  57.7648820   7.1524481
   2.0786823  57.1269001   7.6948218   2.3488773  57.5003460   6.2531142
  86.1493176  89.9637304  14.7787051  85.7535333  90.7396661  14.3818335
  86.6439170  90.3022729  15.5250315   1.6116441  69.6977840  22.8319029
   1.3897145  69.6078692  21.9051413   1.3428272  70.5883966  23.0572466
  85.4802770  87.0931278  21.3863329  84.7908801  86.8128024  21.9883208
  85.6774634  86.3129459  20.8680014   0.6861509 104.0652715   8.9932589
   0.3128303 104.9404965   9.0973906   1.6133607 104.1736470   9.2048602
 110.6833571 106.6736327   2.9593138 111.4096469 106.8216286   2.3536448
 110.7789821 105.7602988   3.2293372  13.0477107 102.4453984  50.8068709
  12.1060622 102.3583566  50.9550433  13.4165633 102.5759326  51.6804556
  70.2027321   9.4822407  91.9162941  70.0782490   8.5485876  92.0866680
  71.1219597   9.5585561  91.6604996  70.4217863  38.8113976  86.3670158
  70.4862452  38.3017707  85.5593300  71.1891651  39.3833399  86.3512230
 101.7376346  77.5813018  12.4442725 101.5667504  77.5396906  13.3851771
 100.8731717  77.6922618  12.0485167  13.6102164  87.0388590  23.3821539
  14.4130481  86.5273891  23.4826140  13.8664878  87.7821074  22.8361277
  85.2311897  13.1700027  80.7532978  85.4560852  12.3450232  80.3231049
  86.0756207  13.5629427  80.9741306  99.5284861  73.1515787   4.2058043
  98.9184064  72.4933599   3.8729720  99.2806643  73.2656322   5.1233058
  80.4838562  11.9541717  95.0471973  80.3547096  12.5411594  94.3022156
  81.1036396  12.4162889  95.6116009  82.3572081  46.5635048  39.1775755
  81.7877931  46.2186389  39.8653750  83.2445306  46.3895254  39.4916110
  68.3526945  23.7761497  61.8456221  69.1260719  23.2177711  61.9251823
  67.6233387  23.1632805  61.7525291 102.5262088  94.5724378  15.7696013
 102.3222274  93.9589082  16.4754347 102.3229569  95.4336415  16.1346392
  85.1700115   9.8358887  70.6659698  85.3566933   9.6722466  69.7415209
  84.3566990   9.3599319  70.8339739 115.1277846  67.5856779   2.9141001
 114.4560784  68.1325243   3.3215289 115.9124297  67.7378009   3.4408049
  69.0219498  11.9588602  75.3977633  68.4587002  12.2198164  76.1263800
  69.1336823  11.0145795  75.5076838 106.0124225  32.0325433   9.2035155
 106.0988444  32.3532949   8.3058028 106.0333556  31.0791980   9.1202788
  45.2210951   2.7376959  87.1357441  44.6971655   3.0978927  87.8512859
  45.0014925   1.8061066  87.1235085  87.3973817  89.8684774  32.2003035
  86.9950837  89.8483096  31.3319830  86.7661685  90.3376756  32.7458815
  18.5598434  98.3229838   8.7533526  18.6421264  98.1100379   9.6829276
  18.0837882  97.5817023   8.3790545 102.2660750  64.4554119  20.4820113
 102.1253461  63.6414389  20.9656195 103.1299514  64.3507986  20.0832514
   5.1580775  61.6598563  14.1085391   4.2576278  61.3466112  14.1940073
   5.1498473  62.5263475  14.5151858  38.3998680  13.2426274  94.0345287
  37.5182223  13.5697985  94.2131042  38.7366128  12.9814982  94.8916435
  61.8150753  70.0470708   8.8739924  61.7239422  70.3225277   7.9618315
  60.9248942  70.0802611   9.2242865  35.0836354  84.4470536  79.7716522
  34.7591907  83.5621702  79.9388266  35.2564889  84.4649302  78.8303566
  46.9291955  99.6217917  71.3814116  46.2194043  98.9950441  71.2413454
  46.9345075 100.1586710  70.5889702 107.7046174  95.4540597   3.0427222
 108.2179088  94.6466766   3.0726962 106.7950219  95.1583396   3.0050425
 114.8650521  77.6001750   5.2706675 114.5168275  76.8082104   4.8610739
 115.7975549  77.4188720   5.3881602 114.5497239   1.6384362  11.5693717
 114.1040361   2.2451400  12.1605544 115.0460399   1.0604524  12.1488814
  63.7995195  18.5198331  86.8211746  63.3788109  19.3058538  86.4727402
  63.9761972  18.7292910  87.7383137  23.5991348  81.1739217  12.0553450
  23.9645255  80.9664188  11.1953024  22.6511729  81.1346374  11.9286398
  67.8073263  16.6000414  80.6226921  67.1566391  15.8994329  80.6672955
  67.4795818  17.2698677  81.2228203 106.9947404  48.9525728   5.7762579
 106.9264430  48.3679227   6.5310816 107.1759814  49.8127042   6.1551528
   8.2749618  89.6964632  11.8949084   8.6157859  90.5676161  12.0977931
   7.4416984  89.8620091  11.4538817  66.6630220  46.6232872  24.3570280
  67.4763775  46.9844770  24.7094822  65.9708977  47.0970440  24.8182774
  74.2006159   9.3830836  84.5168781  74.4145918  10.2986395  84.3374252
  75.0134516   9.0094382  84.8573399  71.3209915   5.4803038  82.1602440
  71.4018965   4.5281178  82.2152710  71.6995192   5.7041049  81.3100338
  54.0589762  10.8218300  79.8925686  54.7569418  10.4972148  80.4615116
  53.2601595  10.7160664  80.4092312  86.6931057  57.3189545  87.6825237
  86.5736961  57.3402452  86.7330456  86.4148521  56.4398146  87.9392624
  26.6549730  29.3165088  86.3070488  27.2167492  29.3136501  85.5320454
  27.1160102  29.8726964  86.9350052  90.3803176  60.7164655  31.2777857
  90.5713147  61.3260726  30.5649523  90.5551881  59.8516391  30.9066729
  83.4331131  30.7457829  94.5998669  82.8563881  30.8462238  93.8425446
  82.9346657  30.2022576  95.2100849  59.1773224  48.8297415  82.1844387
  59.0103674  49.5029545  82.8440952  58.4169531  48.8690615  81.6043282
  54.6440512  50.0306801  12.6356177  54.4027895  50.7430254  12.0435099
  54.3324548  49.2388914  12.1971945 100.6008119  80.6243001  28.8455920
 100.1875657  80.1156555  29.5432620 100.0596398  81.4101444  28.7693648
  92.5929088  71.9060825   1.1095290  92.7266711  71.9644807   2.0555357
  93.4770793  71.8782292   0.7438807  37.8015882 103.4493875  94.4547081
  37.1321469 104.0240120  94.8260403  38.6073905 103.9646303  94.4926834
  25.6278861  77.7340041   3.2390933  24.8767818  77.4981104   3.7835459
  25.2853931  78.3865486   2.6282553  36.8152499  57.0818233  94.1053963
  37.0808315  57.5797176  93.3322239  36.6568327  57.7466202  94.7756100
  33.9407730  41.2183523  93.2973766  33.1472683  41.2096119  93.8326359
  34.5851612  41.6823196  93.8319111  89.4992227  78.3878980   4.9819617
  88.9506406  78.9027940   4.3902163  88.9496535  77.6454173   5.2328162
  72.2259283  27.0129418  85.9339333  72.6564360  26.9914150  85.0792789
  72.7834797  27.5779963  86.4688015 112.0626468  55.5769706  19.1379885
 112.4103087  55.4666420  20.0229697 111.2918395  56.1331139  19.2510752
  74.5421457  47.8774500  68.0384254  75.1021147  47.6137829  68.7685871
  74.7342157  48.8067198  67.9127026  89.8174763   1.8232721  67.4758911
  90.2412891   2.6411980  67.2158766  89.1029358   1.7137635  66.8484497
  92.5498676   2.2189412  94.8886967  92.8233337   2.8652364  94.2377377
  92.0702457   2.7265203  95.5433464  70.3024578  40.1556063  65.2659798
  71.1743546  40.3884315  64.9468899  70.1349497  40.7734871  65.9775972
   7.1379227  37.1469951  76.9571638   7.7033181  36.4386439  77.2650528
   6.3419480  37.0635319  77.4822283  62.1663046  43.2591772  69.6066666
  62.0616198  43.2575178  68.6552143  61.5543604  42.5913477  69.9161196
  17.8822691  14.9603366  33.1166892  17.1714766  14.8004770  33.7375407
  18.4746248  14.2177104  33.2343726  71.7217112  33.3115411  73.8263178
  71.3288116  32.6818490  74.4307566  71.9103479  32.8016782  73.0384779
  53.2523060  46.2713671  89.2475891  53.1211901  45.4497719  88.7742805
  54.1683531  46.2450027  89.5239735  77.4070692  36.6413045  94.0161896
  77.2545099  36.3456917  94.9137306  76.7114449  37.2780585  93.8522434
   7.2331298  95.9716473   1.3295798   6.7900718  96.8200551   1.3409667
   6.5710319  95.3599749   1.0075430  89.9211806  92.7949224   3.0126147
  89.9470109  91.8617664   2.8009943  89.9280518  93.2337127   2.1619372
   1.9532884  98.3057652   5.8653788   1.6513265  99.0675269   6.3601260
   2.0513118  97.6168071   6.5226130  81.4678383  24.6891284  91.7557430
  80.5843925  24.3256068  91.8157959  81.8729496  24.2152953  91.0293865
  70.8116722  45.6807375  86.8619823  70.7728529  46.1751461  87.6806927
  70.2288342  44.9349689  87.0046806  91.4868355  35.4480410  88.6090469
  90.5503845  35.2603984  88.5452080  91.6502953  35.5345583  89.5482063
 113.8579524  16.2393331  15.1013426 114.2059815  16.4071798  14.2256026
 114.4393504  15.5722570  15.4663329  46.9550896  76.5847397  83.7730122
  46.8103933  77.4064875  84.2420769  46.3337374  76.6116762  83.0453968
  26.9638217  86.2202440   0.7649855  26.8604911  85.3635226   1.1792044
  26.7095340  86.8463050   1.4429335  14.1542972  97.5844680   8.7491087
  14.9552501  97.0605431   8.7633662  14.3351138  98.2813083   8.1182723
  11.6228355  97.3729049  38.6426119  12.1552051  96.5785752  38.6855845
  12.1148074  97.9602156  38.0687956  26.7277271   3.1462621   6.4605670
  27.0326025   2.4050855   5.9371714  26.7253859   2.8193282   7.3601965
   5.7861370  67.1843863  95.0577641   5.6878514  66.6371536  95.8369350
   6.3536209  67.9020405  95.3391361  19.8859102  17.1314287  36.6349272
  20.1961834  16.9510745  35.7475523  20.3771765  16.5243720  37.1884398
 109.9722290  58.7019205  81.0093307 109.5484066  58.8655996  81.8518353
 109.2730141  58.8096142  80.3645515  80.4210186  71.4525175  90.4085827
  79.7634935  71.9646454  90.8793449  80.3067970  71.7013407  89.4913673
  55.5417538  10.8980155  90.7915783  56.4931488  10.8224666  90.7183075
  55.3562927  11.8108368  90.5711365  30.3823150  53.4374751  19.6276335
  31.0170520  54.0408080  20.0140719  30.3308738  53.7002164  18.7086443
  74.3195248  25.1815486  76.7336559  75.0143766  25.8311534  76.6267490
  73.9657402  25.3507519  77.6068306  24.6043570   7.5255393   7.7156310
  25.0912888   8.1538295   8.2489066  24.3948967   8.0038785   6.9134097
  20.2259047  15.9016561   4.8677020  20.0901920  16.6776323   5.4114584
  19.5688040  15.2766513   5.1739935 109.9722165  89.7529517  12.1298365
 109.2853230  89.8105179  12.7939944 109.5047778  89.5548306  11.3183741
  58.9871025  55.5397129  89.9498558  59.0779257  56.4590025  89.6990871
  59.5414686  55.4469061  90.7246399 116.0628957  79.9808107   9.7390894
 116.1107558  79.3209849   9.0473036 116.6121358  80.6985889   9.4238715
   4.2223705  84.3791328   0.9552245   4.4315303  83.4907590   0.6666426
   4.7307456  84.4961940   1.7577700  84.8096466  42.1490574  90.5696392
  85.5342102  41.5252686  90.5235767  84.7291660  42.4889040  89.6784210
  92.3915595  35.5239533  16.6164259  93.0992526  36.1538611  16.7528777
  92.4941796  34.8907839  17.3269133 111.0383958  87.4888526   8.6175494
 110.3189391  87.3074971   9.2223029 111.0214156  86.7583881   7.9991965
  86.8402672  51.3561678  94.2148209  87.3236752  50.5379105  94.3288517
  86.6113186  51.6250753  95.1044846  34.8401673  10.3126668  41.1895422
  33.9264471  10.5786704  41.0866503  34.9910290  10.3345250  42.1345286
  40.9770679  18.4073162  77.3671293  40.8848143  18.8938391  78.1862831
  41.7981291  17.9253256  77.4659920  51.3394880  32.5403929  93.3715534
  50.5501699  33.0496597  93.5555553  51.2988949  31.8059802  93.9840984
 108.1209678  96.0146819   9.7671370 107.7059001  95.6831609   8.9708666
 108.9316911  96.4224444   9.4626860 108.9457339  70.7292507  20.9669451
 109.0640277  71.6375063  21.2449889 108.9936847  70.2224360  21.7775492
  15.8491290  72.9485725   2.4940066  16.6160835  73.2736240   2.9655413
  16.1242545  72.1009455   2.1446185  39.8829627  57.0639372  73.1354666
  40.2274227  56.2624788  73.5294676  38.9360046  57.0053053  73.2622051
  69.6537209  32.6260567  88.1136036  69.1145611  32.7063012  88.9004326
  69.0674829  32.2460365  87.4592781 110.4628676  84.1019975  17.3337607
 110.7343739  83.2552467  17.6880698 109.6043176  83.9347802  16.9449763
 103.2386893  96.0573684  32.3681311 103.5491485  95.4911433  33.0746989
 103.9847297  96.1282025  31.7726187  41.8198855   7.1825599   9.5940833
  41.9633848   6.8670558  10.4863219  40.9710009   6.8173742   9.3445353
  61.8548536  28.3512187  73.9970589  62.4057388  29.1301012  73.9189482
  61.9363737  28.0912375  74.9146605  77.0909977   6.6153610  61.3031673
  76.4394236   5.9154248  61.2610435  77.3800850   6.6188765  62.2156668
  57.1730804  12.4299717  81.4089108  57.5021029  11.5711963  81.1434269
  57.1874475  12.9506910  80.6058693  65.7849693  24.9064708  73.4022760
  66.6690874  24.7254372  73.0832243  65.2170944  24.7148395  72.6559353
  82.0191288  69.5593452  91.3860035  81.6629505  69.6285152  92.2717667
  81.4697361  70.1412153  90.8608150 101.4710301  99.3116294  15.1565890
 102.3331279  99.6736823  15.3613905 101.5272874  99.0669595  14.2328982
  13.0003894  90.1929913  24.7519259  13.7081779  90.7395135  25.0933604
  12.9532016  89.4549499  25.3596262  87.9756546  34.5144415  93.5619640
  87.4774647  33.8371062  94.0194130  88.8911724  34.3024945  93.7440300
  21.6735805  79.8908506  18.4922747  22.1082557  80.2192555  19.2793231
  20.7941211  80.2668606  18.5298018  24.4497550  78.0727373  12.3545317
  25.3163207  78.2380830  11.9831233  24.3247951  78.7749563  12.9928927
  24.5952732  20.2920055  11.9195036  23.9214546  19.6759605  12.2070651
  24.5941383  20.2198695  10.9650282  31.7952871   2.4028847  85.0953865
  32.6200628   1.9506608  84.9179935  32.0389342   3.3256960  85.1680946
  79.2570114  10.4130793  69.2542648  79.0823889  11.0674632  68.5778618
  78.5338783  10.5101931  69.8738432  94.3671703  31.7555666  84.9180889
  94.2073536  32.5369525  85.4473591  95.3111458  31.6110468  84.9833393
  86.4894676  50.6813335  90.6949234  86.6947269  49.9758911  91.3084888
  86.2064457  51.4074039  91.2507629  65.5575127  99.9631129  22.2935061
  66.2701863 100.1329671  22.9095225  64.8713392 100.5814229  22.5446944
  78.4995270   0.8387581  83.8215637  78.0146027   1.6235286  84.0769386
  78.6706400   0.3839873  84.6462727 113.0175513  91.4007078   1.5627627
 112.0869035  91.3891183   1.3391737 113.1286878  92.1955882   2.0843367
  64.9048328  25.3911734  68.6532164  64.2872620  25.8807850  68.1099653
  64.4264221  24.6022415  68.9080572  74.1870577   9.3337249  13.5004191
  74.2954809   9.0354394  14.4034628  74.2120058   8.5316514  12.9786067
  98.1658191  81.5135823   7.9001956  98.2699412  80.6281362   7.5517993
  97.3953313  81.4594398   8.4655814  75.1959229  68.2445955  95.1015663
  74.4122267  68.6998034  94.7936058  75.9070492  68.6084414  94.5741653
  96.0460091  32.1178150  91.4922905  96.0208416  31.7365742  92.3699284
  95.3219414  31.6979337  91.0279083  87.9110718  32.3020506  64.6657658
  87.1220684  32.7622676  64.3795824  87.8765488  31.4611506  64.2097759
  71.5125847  60.6170321  84.5933247  71.8582106  59.9506235  83.9994621
  71.3504362  60.1477098  85.4116631  25.5328447   7.7228355  24.9625067
  25.4686148   7.1217727  24.2203288  25.2881748   8.5752343  24.6022563
  59.9360085  30.4871702  86.4403248  60.6776428  30.9455681  86.0452557
  60.0574064  29.5721626  86.1868382   9.7748513  80.4883385  85.9223461
   9.6303314  80.2707767  85.0014687  10.7260937  80.5536842  86.0065842
  61.4936304  17.4218118  74.0801191  60.7516479  16.8568110  74.2956924
  62.1350813  16.8333244  73.6820555  71.5986443  54.2106104  88.2335281
  71.6746807  53.6886120  89.0322495  72.4334908  54.0823364  87.7831841
   2.2025932  86.1995517  39.6489577   1.7288459  87.0031319  39.4343524
   3.0266631  86.2714539  39.1673426   9.6292556  56.1468026  19.0158419
   8.8102115  55.8559590  18.6148409   9.7178710  57.0603050  18.7440161
  98.3352155  84.8638235  16.3445334  98.3747643  85.7352076  16.7386870
  97.7935857  84.3531309  16.9462447  74.3869734  42.2884274  78.8928270
  74.8991442  41.4993572  79.0696859  74.8924351  42.7584028  78.2296038
  15.4073966  50.7200159   4.3694071  14.7376502  50.7142492   5.0532393
  14.9568713  50.3944071   3.5901503  12.7190650  83.3489118   8.8927989
  12.9420245  84.0597330   8.2917552  11.9456828  82.9402624   8.5040621
  20.6513370  83.6279736   3.7000517  21.2833274  83.8370262   3.0122237
  19.7992004  83.6853681   3.2678465 100.2220887  93.2923446   5.8038191
  99.6506995  93.5476671   6.5280776 101.0493583  93.7395750   5.9822707
  20.8723510 100.4746924   4.3188433  20.1010383 100.1929389   3.8269858
  21.6140426 100.1575385   3.8035349  81.5897655  69.7305822  79.0086699
  82.3087978  70.0541782  78.4659815  81.3048458  68.9266396  78.5742426
  49.1949415   0.8950820  91.4078140  48.6886692   1.5094940  90.8763790
  49.9683189   1.3912243  91.6760635  89.6945971  92.6578699  45.1848273
  90.4483622  92.1359049  44.9098353  89.9857682  93.0963980  45.9842925
  46.7305279  47.8780079  93.5720825  47.1070147  48.6492443  93.9959717
  47.0705414  47.9063034  92.6777554   1.6098732   5.5343080  49.7857237
   1.2669319   6.0758424  50.4966164   1.3615364   4.6410814  50.0238657
  95.1669216  19.9760437  92.2469902  95.7191944  19.2101336  92.4038601
  95.7755661  20.7148099  92.2497272 110.2950066 110.2303181  45.7776598
 109.6836156 109.6088801  46.1729388 109.9555320 110.3710328  44.8938136
  82.1551323  18.1869352  93.6981964  81.5166378  17.5723827  93.3364105
  82.4056244  18.7367857  92.9557991   1.8341286  33.1837224   4.1320662
   2.4306996  33.0964708   3.3886199   1.3029081  32.3878431   4.1075758
  89.6743107  44.1134548  44.0383625  89.9154186  43.2998323  43.5955143
  90.1350975  44.7967577  43.5515308  90.6486988  75.2662992  77.3414469
  90.7910442  76.1480474  76.9972229  89.9742889  75.3768063  78.0116606
  76.5290308  29.4828963  83.6370277  77.2444487  29.8768139  83.1377983
  76.0917473  28.9038706  83.0127335  42.9285622  32.2786188  80.7205677
  42.0215225  32.1865773  81.0121822  43.4505844  31.9654226  81.4592361
 102.0245856  80.4940210  47.6742892 101.8098229  80.5094753  48.6069541
 101.3845366  81.0807310  47.2713713  99.6965408  72.8305817  61.1555147
 100.5883694  72.9631281  61.4769268  99.3470764  72.1267796  61.7021132
 110.6162375 103.6334573  12.1996169 111.2020606 103.6582290  12.9562048
 111.0048503 104.2465173  11.5756182  19.1846336  66.8370376  11.9588713
  19.2730106  67.7880214  12.0225291  19.7883762  66.4957033  12.6185946
  89.8757362  45.6627464  92.5512314  90.7867336  45.9561396  92.5353336
  89.9105930  44.7949028  92.9535484  72.8262568  25.2302742  93.2621861
  73.7232304  24.8961043  93.2623768  72.5977325  25.3034687  94.1888142
  28.8069881  62.4452160  12.1635298  29.5165027  62.7319984  11.5885691
  28.6922324  63.1675915  12.7809672  77.6436043  15.7019150  69.9637079
  76.7333508  15.4882944  70.1687241  77.7508307  15.4405129  69.0491581
  21.5270198  85.9048234  26.1705069  21.1697162  85.5358396  25.3627924
  22.1320689  86.5854655  25.8757643  84.0369415  51.0872650  65.0349951
  84.6085548  50.3209400  64.9877644  83.1747341  50.7301760  65.2478933
  90.3320408  27.8537488  81.4881706  89.6878338  27.5255084  80.8608913
  89.9375153  28.6510253  81.8416309  69.3191671  46.2378979  70.6697941
  69.0705013  45.8409834  71.5045738  69.2652559  47.1805143  70.8272839
 105.1544094  61.7787838  73.8052130 104.6445370  61.6890287  73.0001020
 104.5011997  61.7682886  74.5048141  94.7558183 100.1013289   9.3688349
  94.3258923  99.9088393  10.2021079  94.3813819  99.4698296   8.7546305
   3.7947429 104.9898730  23.4490065   4.1024459 104.8384629  24.3426661
   3.4204734 104.1511975  23.1792407  92.2178763  80.3745495  31.8635706
  92.6729077  80.0878082  31.0717635  91.8232984  79.5765529  32.2153430
 107.2478294  21.1671305  93.2886314 107.8401852  20.4179025  93.2253838
 106.7343044  21.0004044  94.0790272 107.5731009  76.4457808  -0.1579996
 106.8652171  75.9351049   0.2348666 108.3418292  76.2376176   0.3729872
  74.6120644  66.5818787  82.6784992  73.9513350  65.9576941  82.9786015
  75.4337931  66.0916424  82.7041054 100.9458894  90.6897698  26.2870078
 100.1301831  90.8151685  25.8021025 101.5162486  91.3957845  25.9829287
  23.3658279 105.9277306  72.4095873  23.1529868 105.6587373  73.3032183
  24.2953361 106.1539326  72.4425082   1.6263623  33.2551503  92.5037766
   1.2514061  33.5357332  93.3385944   0.9502930  32.7028942  92.1111202
  59.6375084  28.5506082  90.1647091  58.7635803  28.5875988  90.5534363
  60.1809025  28.1377029  90.8358765  31.9927818  36.0075902   3.7779669
  32.4349959  36.8554544   3.8204817  32.3892004  35.4951047   4.4825511
  52.3856592  27.0800734  84.0381622  52.0489502  26.6359782  84.8163891
  51.6123009  27.4722266  83.6327457  70.6097841  42.0891142  84.1467381
  69.6963787  41.8248987  84.0366840  70.6525183  42.9669952  83.7676239
  38.6019547   3.7837457  18.7215666  37.7695305   3.3158778  18.7879042
  38.4673674   4.4127082  18.0126814  82.6698226  96.7722903   1.8754248
  83.4943646  97.0185624   1.4562468  82.2089023  97.6014720   2.0028548
  15.6126255  47.2894812  85.6371403  15.5226940  46.4911032  86.1574650
  15.0931019  47.1226215  84.8507023  73.4863997  37.9962349  71.0909605
  72.6913929  37.5277543  71.3453722  73.7853575  38.4162521  71.8974590
  21.8629009   2.6403474   3.6481337  21.8705780   3.2788753   4.3611960
  22.7171785   2.2118234   3.7011485   8.9136184  82.6716815  12.3300890
   8.1440604  82.2138940  12.6684050   9.1355670  83.3042846  13.0133109
  47.0399840   5.1834058   5.5163245  47.2767050   5.4812812   6.3946490
  46.0851652   5.1184463   5.5346732   8.8202918  87.0429049  23.2215075
   9.6917594  86.8094812  23.5413126   8.3505405  87.3393188  24.0010695
  84.0145969   6.6816717  84.9021912  83.2944107   6.6631919  85.5324459
  84.7724247   6.3672131  85.3951931  99.6366119  10.1023912  81.0584831
  99.1877460  10.8926713  80.7581425 100.4708290  10.4181135  81.4057922
  87.2333545  76.5939198   8.3392577  87.6372594  76.6419612   7.4727778
  87.8140229  77.1051918   8.9028697  74.7239685  18.2540810  66.1195660
  74.2363501  17.4734914  66.3825083  75.2204561  17.9781127  65.3491259
  69.3980694  20.6530309  58.2478333  69.0346909  20.1401401  57.5259352
  68.7214804  21.3004851  58.4459829  92.1003980  70.1318525  46.9695429
  91.4087552  70.2296184  46.3150935  92.8621072  70.5600701  46.5788226
  70.3660440  41.9286156  68.1857872  69.5851040  42.3088741  67.7835846
  70.8862448  42.6839399  68.4598541 109.5030660  51.2452225  10.6814532
 109.9461955  51.1096461   9.8439078 110.0317544  51.9066314  11.1278395
  30.7939590  51.3446186   1.3959078  30.6476844  50.4585920   1.7272620
  30.1144660  51.4676566   0.7330470  43.2329256  16.4781856  15.9348349
  42.4583323  15.9185027  15.9896616  43.8925726  15.9328794  15.5061965
 115.7269353  62.7589552  16.4421896 114.9593085  63.2532553  16.1547045
 115.8649558  63.0362527  17.3478846  82.9327297  38.2070708  90.2708530
  82.7050591  37.3935461  90.7209396  82.5360966  38.1203103  89.4040298
  83.1277084  26.2947154  69.4590092  82.1713448  26.3313341  69.4432020
  83.3289433  25.5088782  69.9671364  83.5567093  47.9364014  89.3704033
  83.6749649  48.0165195  90.3168869  83.0349064  47.1414709  89.2606640
  97.2045517  16.1101878  95.0664234  96.5067482  15.9137511  95.6914997
  96.7972279  16.6971540  94.4293976  77.8322840  43.8861322  63.7238789
  78.5284948  43.2872963  63.9939213  77.1495771  43.7735176  64.3852854
  66.2261534  57.9313374  87.5827885  65.4197788  57.8314352  87.0768166
  65.9751129  58.4767103  88.3282948 102.6096791  57.4153526  18.9834456
 102.7457541  57.3536996  18.0379824 102.5847930  56.5061252  19.2816405
  69.4007635  33.5468435  80.2839756  69.7925520  32.8984976  79.6988487
  68.4933186  33.6191297  79.9880886  16.6237433  14.7610568  16.1064295
  15.8419258  15.3058099  16.0156397  16.3290484  14.0008354  16.6078715
  67.1492147  19.8175025  86.9110012  66.7300129  20.3530526  87.5845623
  67.3492861  18.9917004  87.3517418  97.7638817  32.0175600  66.6134882
  97.5716591  32.8497744  67.0455790  97.3790550  31.3551950  67.1874285
  50.9701330  21.6895532   6.2422900  51.0855658  22.4165868   5.6304602
  51.2754995  20.9206294   5.7609038  37.3250563  -0.0236655  15.1475863
  37.3440344  -0.5321170  15.9583621  37.6680643   0.8349609  15.3952460
  63.5179853  42.2347260  66.8271637  64.1171122  41.5430117  66.5464258
  64.0826988  42.9913902  66.9846106  94.5250988  38.8594651  85.1820469
  94.9017620  39.7386909  85.1457977  94.5963287  38.6061406  86.1023712
  43.1817102  68.5880280  80.5254555  42.2366905  68.4764004  80.6289673
  43.5219145  67.6961279  80.4547119  58.9581436  66.4845703  11.1395411
  58.7280411  66.9213067  11.9596343  58.7716812  67.1341942  10.4617171
  40.2099037  17.6694989  88.5363293  40.4046869  18.4887731  88.9913940
  40.7138872  17.7209496  87.7241802 116.8231124  91.9697772  15.4097800
 116.6757173  92.6637088  16.0524039 116.3291472  92.2485243  14.6387248
  20.0611193   3.3858251  31.3433985  19.1200096   3.2471465  31.2370543
  20.4436333   3.0713891  30.5242209  97.4309635  32.0832920  87.9214001
  97.3253727  31.9111800  86.9857407  97.2881413  31.2338185  88.3388042
  83.5299969  41.1728334  46.5641832  83.4646130  40.2190399  46.6114187
  82.9368591  41.4876461  47.2463226  70.1044798  53.2293606  92.3098660
  69.9310875  52.4688625  91.7550564  71.0382271  53.4038925  92.1920300
  65.8898241  26.6590738   5.6639723  65.8508665  26.0994005   4.8884253
  65.2675039  26.2649869   6.2752490  98.2445592  50.0803839  20.9535937
  97.5928182  50.1626019  21.6497950  98.5649699  50.9722535  20.8189158
  42.2851926 101.9072830  84.7217464  43.0839711 101.7846911  85.2347279
  41.8181497 101.0757553  84.8033714 113.9316273  37.5367332  90.4402733
 112.9921341  37.4419022  90.2834511 113.9911366  38.1408978  91.1803150
  55.0605852   9.5094775  16.5128760  55.0911123   8.6160945  16.8551592
  55.9059889   9.6292161  16.0802226 109.1429967  78.8198863   8.8434271
 110.0874347  78.7191354   8.9622836 108.7988490  77.9280840   8.8932089
  90.4862213  59.9777412  85.4826164  89.9612904  59.1775990  85.4616165
  90.3327370  60.3420925  86.3543510  80.5142975  33.3291388  56.9910383
  80.7301140  33.7545133  57.8209209  81.2997341  33.4377885  56.4548302
  68.0017662  41.8867874  80.1656914  68.8956070  42.2290659  80.1546288
  68.0843115  41.0138130  80.5495358  73.5247278  74.9189091  83.4204865
  73.8939095  74.6345568  82.5843811  74.2112207  74.7328806  84.0610695
   6.0802901  75.3460513   5.9021525   5.8414710  76.2056218   6.2490420
   5.8018077  74.7289060   6.5787653  50.2245617   5.6024140  83.5728550
  50.9198475   4.9555296  83.6926365  50.5628300   6.3968903  83.9859009
  99.2142695  90.9189330   2.9586749 100.1070422  90.5862652   3.0509715
  99.3251199  91.8329464   2.6969008 100.8861989  92.5554167  10.2607207
 100.6880349  93.4563695  10.5161528 101.0685939  92.1069585  11.0864596
 115.8800668  84.1035782  13.9564471 115.6891316  84.5713268  14.7694640
 115.5742806  84.6905576  13.2649474 113.6007375  99.0354596   4.1515498
 113.8647241  98.2753859   4.6700434 114.1188306  99.7583876   4.5053725
  50.4197502  28.5132408  89.9348831  51.3337088  28.7908196  89.8727226
  50.0049782  29.1765165  90.4864788  75.3701943  70.1320515  11.0249094
  75.3158516  70.9019385  11.5910868  74.5986670  69.6129309  11.2518363
 106.1744756  74.1722928  16.9885783 105.7332009  73.4349666  16.5668540
 106.2414330  74.8358701  16.3019804  54.5933962  60.9753561  86.3298798
  55.0954151  60.5233860  85.6516933  54.9127865  61.8773079  86.3032532
  25.2047951   5.9027623  23.1532053  25.0468952   5.3649473  23.9291338
  25.7049877   5.3355789  22.5664000  80.2499866  48.3212042  87.2993183
  80.4650879  47.5838661  87.8705406  80.0252819  49.0318632  87.8999138
   7.7492679  81.6585217  20.4518656   7.1752227  81.9410930  21.1638121
   7.5143302  80.7424603  20.3039984  62.1021843  45.9689569  82.0289803
  62.2924614  45.4057360  81.2787724  62.9080534  46.4673090  82.1648312
  86.6675091  50.0349712  71.4341402  86.8930149  50.9650564  71.4519835
  85.7169247  50.0211000  71.3226080  64.0404624 100.9050999  15.2355246
  63.7626165 100.0177441  15.0082831  63.2653040 101.4453898  15.0824122
  98.7648773  47.6526880  86.8360329  99.0978336  48.2072449  86.1304569
  97.8135586  47.6803398  86.7337704  84.7493744   6.7152226  91.7416668
  85.6381798   6.4123136  91.9274139  84.8107243   7.6700079  91.7708492
  18.6695350  81.9403683  17.6447634  18.1702388  82.4374305  16.9967989
  18.4940303  81.0240255  17.4308924  11.2367023  92.1549903  15.6969885
  10.8155120  92.9669247  15.9791045  10.9891761  92.0639454  14.7768359
  19.9145443  11.2630414   7.7661948  20.5565674  11.9689035   7.6900820
  19.6707756  11.2597751   8.6918215  80.6927013  28.6448646  75.2209568
  80.8893490  29.5495224  75.4641819  80.9732246  28.5758138  74.3083954
  73.8261700  63.1192303  80.2088451  73.8136768  63.3182955  81.1450386
  73.5426140  63.9306593  79.7876406   1.8904508 101.9490443  12.4983840
   1.5301240 102.7682696  12.1588664   1.4991964 101.8571435  13.3671240
  88.2185859  94.0562902  26.3210063  87.7603644  94.8580561  26.5728716
  88.2186383  94.0710316  25.3639178  87.5801182  58.7924576  80.5198669
  86.8746471  58.9146042  81.1551857  87.1442795  58.8271427  79.6683598
  49.9202919  54.3829298  76.3472462  50.7686806  53.9596796  76.4788914
  49.9404764  55.1450729  76.9260120   2.7291167  76.6348205  22.8195433
   3.0889285  77.0473848  22.0343260   3.2033218  77.0436154  23.5435919
  68.8131380  54.5966148  94.1868687  68.4621191  53.8117647  94.6076298
  69.2489672  54.2714834  93.3991051 107.2238749  44.6630035  40.6040625
 106.6384286  45.3010969  40.1962428 106.6906136  44.2475842  41.2817721
  25.2079833   6.8301905  77.7567005  26.0910667   6.7833174  77.3903847
  25.2359927   7.5772608  78.3544779  10.9951461 105.1594888  11.3223891
  10.3919852 105.9008561  11.2694315  11.4046539 105.2449141  12.1833376
  16.6926444  78.1217895   7.5017981  15.9506477  78.7101208   7.3620085
  16.9223846  78.2408081   8.4233622  90.4488754  59.0781593  80.1791096
  90.8539772  58.3474588  80.6462288  89.5663643  59.1366434  80.5451393
 109.4983292  17.4744081  82.7839470 108.8606167  16.9540203  82.2953415
 110.0417042  16.8271041  83.2333660  90.5811119  49.3876553  66.4677525
  91.2537861  49.0464783  67.0571041  90.5526543  50.3260422  66.6544628
  79.2980719  55.7437849  83.3449745  79.9408150  55.9767342  82.6750088
  78.8596869  56.5687609  83.5534477  95.5780697  69.6024799  85.6903076
  96.1724758  68.9963245  86.1324406  95.5219746  70.3551197  86.2790489
  32.7501548  84.3329368   2.2975592  32.4608863  84.7505437   3.1088309
  32.8712810  83.4127818   2.5318102  14.9926723  94.8476444   1.4459948
  15.3743900  93.9853082   1.2819724  15.7164062  95.4594670   1.3114123
  80.8164519 103.6166440  10.5360083  81.2854451 103.9145003   9.7565417
  81.5013427 103.4833203  11.1912779  53.6263323  74.9122095  82.4232864
  53.2353306  74.6055555  81.6051674  52.9035187  74.9073839  83.0507755
  21.5109885  94.4345485  15.2569346  22.1031535  93.7253152  15.0068335
  21.0752929  94.1153489  16.0471968 109.8935604  57.9577684  91.5661621
 110.0645733  57.0412207  91.7827797 109.6104908  57.9390287  90.6519604
  77.9439545  11.2251806  90.3193188  78.3805275  10.3734851  90.3034878
  77.2233629  11.1365914  89.6955204  92.2372818  44.6545792  94.7185993
  92.8157806  44.8253059  93.9753437  91.8455410  43.8026142  94.5264435
  94.0326023  17.8371966  66.5684652  94.8991108  18.1434822  66.8360424
  93.4457207  18.5626519  66.7817974  15.0813258  92.2446380  23.3731036
  14.7595847  92.7292929  24.1332488  15.5950511  92.8848706  22.8807406
  51.6605425  62.1310139  85.9242630  52.4201775  62.5444317  86.3344765
  51.0387659  62.8471994  85.7950211 103.5272694  30.4170704  58.0317211
 103.7685490  30.4883456  57.1081734 102.5704956  30.3889418  58.0278301
  73.3769798  41.8948412  75.0071907  73.6018658  41.5010834  75.8501720
  73.8372850  41.3583183  74.3618202 103.1825733  57.2379351  81.2064743
 103.4393597  56.3264656  81.3461876 104.0018845  57.6890802  81.0029221
  91.0354328  23.1405878  95.2056503  91.5136909  22.3431230  95.4326916
  90.1129818  22.8954315  95.2779007  11.8720020 105.9755479  19.7169356
  12.3494971 106.2136756  18.9222579  12.3862613 105.2658521  20.1017718
  82.0818233  52.6073694  62.5259781  82.8728676  52.8035212  63.0279827
  82.1207809  51.6626310  62.3770428  61.9463539  41.2702322  88.0663872
  61.4788342  41.1912107  87.2348690  61.3859129  40.8219957  88.6998081
  15.8653767  12.8309726  27.4022536  15.8611233  11.9523382  27.0225005
  14.9575693  13.1263875  27.3326163  39.7944386  15.6193685  10.1807074
  39.5170862  16.2726974   9.5384650  40.7430393  15.5598020  10.0674300
  72.3954439  41.2642241  86.0278320  71.6756296  41.2973452  85.3977585
  72.6292896  42.1810389  86.1727428  66.0840607  41.9014835  86.3497162
  65.3127003  41.4673424  86.7140675  66.8220568  41.3723803  86.6524315
   1.4718479  26.7961836  55.8342934   2.1259064  27.0191741  56.4966488
   1.7244095  25.9236097  55.5325365   8.7254966  97.5818167  11.3350062
   9.6204246  97.8460465  11.5483431   8.1806434  98.3003531  11.6560606
  81.2903023  53.1401539  90.1960182  81.7625904  52.5821781  90.8139515
  81.9580078  53.4255171  89.5723438  19.6636070  89.6801434   0.7669882
  20.0235618  89.4564329  -0.0912710  19.6050323  88.8431607   1.2277083
  50.9491808   7.1848058  16.0697035  51.5135367   7.7805900  15.5769877
  51.3002855   7.2036886  16.9599871  92.1193761  85.7096968   8.9182047
  91.5676946  85.9483681   9.6631293  92.2920340  86.5390597   8.4725813
   3.8556046  43.7459707  90.3372860   4.7110218  43.4022093  90.0797462
   3.9981217  44.6862698  90.4457188  81.7693138  44.4435978  60.9660196
  82.6716232  44.7629261  60.9755278  81.8055058  43.6094427  61.4341068
  63.8394547  80.4646301  85.6566334  64.3966627  81.2376785  85.5663300
  63.2459497  80.5082798  84.9069214  14.7878135  68.1747638   7.0816283
  15.2530635  68.2801889   6.2517790  15.3641666  67.6235615   7.6109938
  20.0574762  15.1134872  11.9516615  19.4109709  15.8164882  12.0153002
  20.0917942  14.7392320  12.8319888   5.4019130  80.4008232   4.0904955
   6.1831630  80.9161101   3.8895945   5.3610385  80.3907309   5.0467734
  29.4012046  21.7830658  81.2690067  29.7651267  22.0194530  80.4158211
  28.5108805  21.4889812  81.0764694 109.3205261  52.4152803  58.1979227
 109.3963909  52.4179792  59.1521072 109.0125942  51.5344238  57.9846287
  80.2434063  57.0397425  59.5940876  80.2666187  56.2267447  60.0987959
  80.0645256  57.7197933  60.2435207  75.5606539  10.0365781  27.8966288
  75.5990202  10.6442403  27.1580462  75.4200728   9.1793966  27.4945025
  29.5818103 107.4546538   1.8001418  29.4328941 108.1228553   1.1311392
  30.1843322 107.8661500   2.4197058   7.4820549   7.7646302   4.1416125
   8.3931715   7.4793624   4.0729098   7.4956686   8.4511899   4.8084597
  52.6486731  78.7466431  84.3237591  53.2168865  79.4197512  83.9491940
  52.9278612  78.6784315  85.2367878 113.5737610  16.7101312  84.9407578
 113.2553482  17.6127672  84.9312496 114.5189762  16.7882144  84.8114967
  60.8527422  84.4828129  94.3431854  60.8202410  83.8148308  95.0280094
  61.5567923  84.1956615  93.7617302  63.9005947  44.4861841  76.8799782
  63.7691641  43.9354420  76.1081982  64.4811821  43.9744997  77.4432993
  24.8237927  12.4582719   9.0322642  24.0007527  12.5132465   9.5178751
  24.5571024  12.3984765   8.1149153  88.0897903  64.3986177  85.1309204
  88.1335258  63.4845877  85.4117680  88.0246353  64.3532276  84.1770267
  66.1351854  24.4919967  47.3955969  66.6629107  24.5253944  48.1934790
  65.3027231  24.1108560  47.6748137 109.6430415 101.5723859   7.2414736
 108.9554185 101.4416991   6.5885310 109.1805047 101.5733968   8.0794959
  15.0661910 100.1869212  34.7767691  15.4351962 100.9144889  34.2760520
  15.7953323  99.8680650  35.3086619 105.6202001  91.8451391  17.4233870
 106.1490649  92.5025020  16.9712691 105.5251759  91.1357199  16.7878298
  28.1677277   1.2038278   4.8302035  29.0185339   1.6396140   4.7807173
  28.1702311   0.5894994   4.0961508  65.5470133   8.4644735  91.5143299
  65.6056499   8.4334284  90.5594349  66.2026691   9.1118562  91.7736340
  85.1078606  89.5974159  77.6072359  84.1548252  89.6537018  77.6764059
  85.2817535  88.6706066  77.4428558  11.5866817  85.1240788   0.9402899
  12.2483409  84.7474871   0.3601031  11.1056674  85.7397304   0.3872637
  49.8587401  19.0040206  28.8200526  49.4322664  18.8835429  27.9716258
  50.6868059  19.4370031  28.6125521  39.7265894   4.7770452  27.6983790
  40.2716953   4.8775434  28.4787611  40.3224165   4.9407148  26.9673304
   8.9189685 109.2597733   4.0753226   9.0696490 109.2028533   3.1317763
   9.7669090 109.0493785   4.4664149  99.6531660   7.9022502  39.0928988
 100.4051478   8.2239389  39.5901637  98.8935930   8.2806205  39.5357375
  67.9019594  62.5044060  92.6716518  68.5317898  62.3594046  93.3777046
  68.4419203  62.6366091  91.8924236  10.0464500  94.6899424   4.1597514
  10.0871337  94.2702447   5.0190787  10.6134666  94.1546045   3.6046557
  18.2050640  27.9680490   5.9462981  18.1945259  28.5525274   6.7042593
  17.2835428  27.8698491   5.7067351  52.9486656  29.7754216  89.9346447
  53.1743050  30.3608227  90.6575775  52.8129816  30.3584695  89.1877365
  62.2315502  56.7025709  77.9892349  61.6089725  57.4103498  77.8228664
  61.7009068  56.0002947  78.3653307  74.3705940  43.6713982  91.5246773
  74.9707317  44.1773510  92.0724773  74.0621185  42.9670095  92.0946884
  34.7701866   3.9224958   0.2191596  34.5226128   4.6292686   0.8153204
  35.4395659   4.3088960  -0.3455205  66.7711210  44.7105503  88.2977200
  66.7603493  44.0340710  88.9748383  65.8734465  45.0421381  88.2761383
 104.9381656  82.0626484   9.9038939 105.6174487  81.4474402  10.1801638
 105.4159326  82.8595696   9.6739439  92.7378559  43.5850286  76.5133810
  93.6329556  43.6223602  76.8504906  92.6198006  42.6730299  76.2477684
  57.8270531  29.2750978  92.0945263  58.2215786  30.1027179  91.8195248
  57.3659134  29.4875360  92.9059792  98.7348366  67.6531219  75.2674818
  99.2943382  67.7441454  74.4961786  98.9527607  68.4095430  75.8120632
  17.6047767 106.7458258   0.9842734  17.2708381 107.3094521   1.6821532
  17.4107898 107.2230635   0.1775221  98.5658836  60.0584507  93.5314178
  99.0747452  59.7747993  94.2909145  98.3703613  59.2495537  93.0584621
  99.1822690  89.5627175  12.0159201  98.5535449  90.2832232  12.0584635
 100.0305671  89.9914466  11.9027285 106.1935425  61.5414858  94.5376968
 106.8011856  61.8739510  93.8770485 105.7236385  62.3175001  94.8430347
 103.6159820  72.3490308  35.9582190 102.7262849  71.9961880  35.9453444
 103.5246343  73.2145737  36.3566260   2.6891846  41.9469929  91.9587994
   3.2650608  41.1937904  91.8273258   2.9798264  42.5870037  91.3090706
  98.9141560  30.8287168  45.8978510  99.5890427  30.6677699  45.2384090
  98.6814022  31.7499876  45.7824516  93.5335732  47.1947002  67.0741796
  94.0759373  47.9633570  67.2509480  93.9010620  46.8213749  66.2730503
  93.9583415 107.8889428  14.8199992  94.3285912 107.7124129  15.6848578
  94.0253800 107.0544730  14.3558840  80.4558182  82.4761200  76.2683439
  80.1111603  82.5182533  77.1603489  81.2060738  83.0705357  76.2731361
  60.6198406  53.9740753  73.9886475  60.7230473  53.1024456  73.6067629
  61.4456797  54.1348982  74.4451094  84.9293613  60.1365900  93.4007835
  84.6633244  60.7748890  94.0626240  84.1890049  59.5330429  93.3388519
 116.6327590  81.1612664  27.3595099 116.9522447  80.6380544  26.6243891
 117.0612687  80.7825957  28.1271224  39.3648798  13.3192920  17.2955660
  38.8772375  13.4366702  16.4802985  39.6915848  12.4206304  17.2519736
  79.7784216   2.0549011  13.7447981  80.6020624   1.8044185  14.1632704
  79.2245943   1.2780189  13.8219885   1.7340291 105.6974612  30.3744750
   2.6368488 105.4185830  30.5273489   1.5796197 106.3785325  31.0290961
  10.2152885 109.9210416  45.6077055   9.6274341 109.6822081  44.8910384
  11.0911811 109.7276221  45.2736048  78.7202692  84.7536850  77.9705191
  78.7712717  83.9018822  78.4041691  78.3734703  84.5588398  77.0998907
  86.6962528  54.6324205  46.8546915  87.4963665  54.8285055  47.3421383
  86.8120956  53.7300110  46.5572405  30.3813965   9.8658418   1.6102271
  30.2890045   9.8431300   2.5626807  29.4831068   9.9171352   1.2836127
  92.8158111  75.7931219  44.1415076  92.7933854  76.7263923  44.3530039
  93.7323207  75.6178485  43.9281325 100.2616787  55.7220125  71.0273647
  99.5831776  55.3738213  71.6058445 100.0373363  56.6468573  70.9245968
  33.5077412  22.6612138  17.9891448  32.9763825  21.8654775  17.9628138
  33.7903292  22.7304506  18.9010577  90.6927395  72.4493790  72.5562859
  91.6338921  72.3295164  72.6831579  90.3005314  72.1511650  73.3769417
   6.9536556 104.0953885   5.8537535   7.5695861 103.3747397   5.9861426
   6.2087310 103.6945544   5.4058127  62.0948076  22.6948452  87.5053120
  61.7526484  23.5467958  87.2344971  62.6412392  22.8874063  88.2672691
 112.3706550  91.6475139  10.6088404 111.6066379  91.7208134  10.0368838
 112.2015351  90.8663021  11.1354689  11.9688780  38.6068105  11.2659792
  11.4895613  38.2783746  10.5053095  12.3039658  39.4593095  10.9881453
  42.1979124  23.0453920  11.6239218  42.1259577  23.5514879  12.4331908
  42.0287497  22.1418094  11.8906645  49.1461737   9.4695091  14.6052508
  49.9077685  10.0101899  14.8146967  49.5023996   8.5886859  14.4891505
  40.9273750   8.6599016   5.2363162  40.4665930   9.2339229   4.6244196
  40.8273108   9.0870570   6.0870604  46.6511423  16.5047120   0.2615122
  45.7698233  16.4219999   0.6257395  47.2331793  16.3133621   0.9969382
 102.6745129  86.8965340  66.0672140 101.7978764  87.1141338  66.3840532
 102.9685020  87.6868725  65.6142521  26.4792693  95.1855288  30.3478293
  26.0777248  95.4778920  29.5295863  27.0439780  95.9123622  30.6105952
  96.7337418  75.4057646  92.5654602  96.6167641  74.4564867  92.6031399
  95.8643723  75.7616949  92.7491283  37.1777023  87.0992862  23.8302950
  36.6492427  87.6642690  24.3939833  36.7797340  86.2332235  23.9185195
 114.1064948 109.3278037  23.6563353 114.9252385 108.9379416  23.3499102
 114.0906924 110.1972018  23.2561736  20.8717788  97.8029500  15.0241141
  21.1558593  97.1431361  15.6567149  19.9516929  97.5965510  14.8596148
 113.0556220  67.6826297  15.5943732 113.6011523  66.9024525  15.6941180
 112.7730769  67.6620291  14.6800570 112.0523071  19.5015609  72.8483343
 111.6199017  18.7923193  72.3726940 112.4860096  19.0676498  73.5830832
  77.7414894  15.5837750  90.8284092  77.1633482  16.1187816  91.3722420
  77.2041512  15.3410935  90.0743484  96.3965321  19.1773832  88.3347988
  97.0959473  19.7535729  88.0264854  96.7984200  18.3092594  88.3676815
  26.4816136  30.9629869  81.3159752  26.5372891  31.9151807  81.3963509
  25.6375546  30.8073449  80.8922005 111.2111253 103.9349471  51.7981677
 110.4380340 104.4722997  51.6254859 111.9376105 104.5580397  51.8123011
  96.0766888  74.1768980  75.9684515  95.9890938  75.0822067  76.2667370
  96.8108368  73.8281107  76.4740419  74.0244865  77.8764963  94.4031906
  74.2411613  77.5075388  93.5469437  74.8040867  77.7194405  94.9359035
  60.1694536  65.9529686  94.3918228  60.5161858  65.1145601  94.6969128
  59.9334145  66.4203787  95.1931095  11.2075294  64.2321364   2.7790980
  11.9940246  63.6980681   2.6676611  10.6120837  63.6790113   3.2848029
  25.5351336  34.4242429   6.4756350  25.9002955  34.8740625   5.7136969
  24.5873482  34.4722127   6.3506083  82.0307636  12.3648393  88.2188225
  82.6075172  13.1216121  88.3230972  81.3725662  12.4688399  88.9059830
  69.6901972  -0.1238824   5.7871966  69.2171938   0.7012224   5.8953719
  69.6111948  -0.5583764   6.6364245   8.7930740 105.2039634   3.8802199
   8.0112422 104.9257479   4.3572669   9.3337596 105.6390153   4.5394759
  72.4153042  67.9904699  90.3829002  71.9424629  68.8132143  90.5083656
  73.2239676  68.1002808  90.8831406  60.5545759  66.6674376  86.0808563
  61.2316227  67.3302746  85.9448719  59.8412418  67.1385336  86.5114975
  80.9819984  68.9569092  84.6376801  81.4149761  69.2297077  83.8287640
  80.6011486  69.7618723  84.9887085  36.0691292  48.4204912   4.3009333
  36.4694721  47.5569009   4.2001299  35.4126341  48.4627961   3.6056284
  94.2373180  75.8925438  94.3530464  94.0596962  76.7791700  94.6670246
  95.0686264  75.6550360  94.7638321  72.0814991  24.5641327  72.8341293
  73.0013418  24.4255257  73.0597734  72.0733404  24.6074247  71.8779421
  51.9977553  36.4709138   4.5503191  51.9385798  35.5155610   4.5558981
  52.9190428  36.6527414   4.3648295  84.1229630  45.8098936  80.3961372
  84.6734428  46.2232637  81.0612106  84.0592194  44.8956537  80.6724167
  27.7585585   4.2019843  23.0833773  28.4896357   3.7355232  22.6781992
  27.0360071   3.5743570  23.0680422 110.8989781  89.8897062   3.8333277
 110.8571929  90.2826010   4.7051768 110.4593247  90.5216680   3.2645087
  93.0337143  28.2268119  68.6297035  92.8188896  27.4161386  69.0911055
  93.2946491  27.9419994  67.7539062  85.9878826  44.9852991  66.6478109
  85.5151463  44.5205641  67.3382998  86.6791821  44.3792915  66.3812017
  26.9910080  23.9759445   0.5521731  26.5775377  24.8114919   0.7692866
  27.0206625  23.9648151  -0.4044958 101.9634170 110.2267705  18.5995535
 102.5463361 110.8604537  18.1813578 102.2157163 109.3839751  18.2223563
  17.0830692  91.0345279  27.3156600  16.8393768  90.3472839  27.9357676
  18.0119765  90.8820949  27.1420626   0.1545013 109.1003381  10.5224566
   0.2606357 109.3498765  11.4404444  -0.2749240 109.8539029  10.1175169
  67.6029951  17.7388667  25.4799704  68.0165178  16.8818044  25.3766493
  67.3643763  17.9985093  24.5900969  74.2689133  44.3630219  84.2641068
  74.2993784  43.9832401  85.1422119  74.5813417  45.2603102  84.3802643
  77.4858570  47.7637577  79.2239761  78.3161354  47.3218346  79.0462923
  77.4749136  47.8799963  80.1740265  52.2677786   7.6137637  36.0547118
  51.9349177   8.0696344  36.8277697  51.8574793   6.7497157  36.0910182
  89.9097633  67.2755241  91.6763687  89.4645405  67.1354914  90.8406639
  90.6512070  66.6704464  91.6570759  45.3415663   2.4995565  17.5047068
  46.1087591   2.0646047  17.8768115  45.1514895   2.0078658  16.7057471
  80.1584625  14.9679267  90.1555252  79.2402411  15.1588857  90.3469372
  80.5008793  15.7825792  89.7876644  88.0979443  76.6217232  69.9572611
  88.9855385  76.3125658  69.7760630  87.8440571  76.1644936  70.7589531
  38.3339340  10.1718520  56.5387206  37.7298481  10.7335090  56.0530715
  38.9011700   9.7930717  55.8671526  11.5146191  28.1625604   0.5082850
  11.0366518  27.8954076   1.2933974  11.4440138  29.1171026   0.4980902
 109.0813035  79.6022712  22.5321059 109.8906058  79.2292891  22.1826128
 108.8622445  80.3097854  21.9257502  27.0132793 106.0219966  12.2686057
  27.3506606 106.5887700  11.5749411  27.7431834 105.9330378  12.8814368
  96.2691402  61.4756346  93.8196182  96.3329887  62.0315313  94.5962334
  97.1422672  61.0949039  93.7251472  15.9055770  59.5433463  12.7583365
  16.1080898  59.9781497  13.5866885  15.3996623  60.1897524  12.2659544
  78.9939642  23.1991029  69.6214962  78.5249376  22.5123954  69.1474915
  79.5476389  22.7260208  70.2426767 104.5141506  28.9698601  92.6545906
 105.0198650  29.0582252  93.4624672 104.8329067  28.1580925  92.2600651
  63.5256481  31.2385774  76.9700146  63.0751896  31.2799120  76.1264420
  62.9406548  31.6927719  77.5764227 109.7424889  59.0681124  94.2166710
 110.2192974  58.3793402  94.6797848 109.8253059  58.8363266  93.2916546
  62.9247839   7.0085334  10.5661158  63.6504442   7.5442790  10.8864645
  63.1936915   6.1079549  10.7474284  46.3672412  94.7198401   2.9192976
  45.5161823  94.2852054   2.9741721  47.0043433  94.0117656   3.0140261
  12.2213805  88.7479888   0.6963210  11.8384135  89.5941363   0.4648070
  11.5241111  88.2898317   1.1655097 116.6597384  94.1375123   4.8650794
 116.2699288  93.3535085   5.2518801 116.5699691  94.0087162   3.9208369
  55.0906450  41.2403344  20.3932909  55.5323393  40.5773877  19.8625903
  54.1791899  41.2118291  20.1023154  87.1590519  46.8682861  92.4497128
  88.0647945  46.7284155  92.7259541  86.6476917  46.2683773  92.9927063
  86.7190713  89.5570265  29.3838744  87.1750754  89.9984418  28.6673216
  87.2642535  88.7955247  29.5816664  65.6950903  48.6331987  68.9617109
  65.6141758  48.7812853  69.9039173  65.5681467  47.6903963  68.8556671
  91.9654179  37.7547717  40.4258013  92.7638340  37.5049543  40.8909464
  91.5231800  38.3625793  41.0184479  35.9912092  16.5986347  11.7161326
  36.2285359  17.3854017  12.2069506  36.3876707  16.7253875  10.8541636
 101.6691274  91.7468558   1.2227873 101.8259496  91.9876848   2.1358256
 102.3650330  91.1227475   1.0167841  46.3771326   1.4599847   4.0961890
  46.9114477   0.7716607   4.4923644  46.9724638   1.9103193   3.4970145
  78.5812950  58.3158493  89.0902710  79.2346478  59.0025520  89.2236900
  78.5825539  57.8215361  89.9099541  39.7248585  10.6671237   0.7749705
  40.0844462  10.6378841  -0.1116415  38.9736015  10.0745534   0.7484011
  91.4815235  61.3091755  79.3231201  91.1354923  60.4731894  79.6355581
  92.2489071  61.0713053  78.8027573  44.7473491  93.6531530  34.7078852
  44.3898929  94.2530165  35.3625731  45.5392516  94.0880166  34.3916373
  17.4297077  -0.1832581   5.7719950  16.5442593   0.1446914   5.9290175
  17.8634483   0.5200862   5.2888636  23.1561149 103.7682782  31.0420184
  23.7310374 103.0355130  31.2628321  23.7251628 104.3915091  30.5903487
  65.1217794  61.0503244  78.6940241  66.0361242  60.8884144  78.4616709
  65.0817347  60.8876944  79.6364594  97.9158115  89.9656200  90.5308628
  98.7714291  89.7679901  90.9117603  98.0275154  89.8038006  89.5940781
 102.2534180  43.1550217  82.6046658 101.8092728  42.3344994  82.3908806
 101.9042301  43.4001923  83.4615135 101.1297989  35.4828310  82.3470879
 100.6752205  34.9163938  81.7236042 100.4346085  36.0054207  82.7468872
 103.2756805  13.1016469  87.1820545 102.4766922  12.6843905  86.8599510
 103.5649586  12.5412774  87.9021454 116.2172127  51.3000011  93.0508041
 117.1640873  51.1627102  93.0222797 115.8562374  50.4376364  93.2563591
  45.2101690  34.4143724   3.1419043  46.0716993  34.2664956   3.5319285
  45.3685362  35.0524568   2.4461989   2.4694980  79.9449788  18.1024413
   3.0541194  80.1629720  17.3765521   1.6642106  79.6461879  17.6799826
  98.1000042  68.6574316  67.6557827  97.1991634  68.7249708  67.3392868
  98.0479908  68.0580759  68.4002924 109.0686339  92.9658209  32.9951720
 108.4402675  92.5771414  33.6037116 109.4708413  93.6798297  33.4897952
  26.3455451  97.8695689   8.7019209  26.4160503  98.4840642   7.9714064
  25.5169547  98.0945693   9.1250567 100.5109024  55.9214115  42.6844263
 100.9949398  56.7467165  42.6559258 101.1871052  55.2502155  42.7765083
 100.6625080  57.0591307  82.0214176 101.5627003  57.1359921  81.7052364
 100.7491016  56.7082405  82.9077625  70.6041956  42.1156740  80.4026699
  70.8157825  41.2216043  80.6711960  70.7682991  42.6452780  81.1829376
  39.2416930  65.4716110  80.7782078  39.8539948  66.2073326  80.7729435
  38.4017467  65.8572531  80.5292130 104.9226540  84.4188271  19.0033583
 104.5198172  84.3930112  18.1354384 104.4634026  83.7421523  19.5007853
  55.7962877   0.8535146   2.1204047  56.6533453   1.2346029   2.3113589
  55.8573897   0.5719041   1.2076048  82.0681095  88.4396267  91.6145706
  81.1225700  88.4100437  91.7605400  82.2714043  87.6052666  91.1917782
  90.9038353  36.0793543  93.4763908  90.3392124  36.0499001  94.2487621
  90.4554558  36.6733718  92.8744411  86.6898823  67.7486753  91.6998291
  86.4779854  67.3273945  92.5328064  87.4726677  68.2671642  91.8859577
  71.9300747  17.0989585  86.7117310  71.2443781  17.4884057  86.1691666
  72.5494957  17.8127038  86.8637753  28.0382789 107.7874146  25.1690535
  27.4726260 108.5595141  25.1577906  27.8364528 107.3547278  25.9986834
  57.2340453  96.2829028  16.8378500  57.2351039  97.2233353  16.6594939
  58.1483138  96.0745250  17.0299868   5.0603337  73.6532831  81.2684250
   5.8078045  73.7599993  81.8567562   4.5292134  72.9700375  81.6774559
  87.8362245  70.9272335   2.1635108  87.9055756  71.1169349   3.0991511
  88.4708899  71.5141390   1.7524390   5.5112708  93.4243761   9.4886164
   5.7869876  93.7738024   8.6412005   4.6484721  93.0448638   9.3219428
  55.9086115  25.1286649  -0.0058980  56.6148359  24.8300885   0.5671172
  55.1715452  24.5549726   0.2034907  32.3980410   3.0689382  17.8287463
  32.3333532   3.9614724  18.1684927  32.9410727   2.6080179  18.4681944
  38.8160927  13.8073587  42.8815512  39.2964918  14.0805339  43.6630969
  39.2824824  13.0304717  42.5730757  78.1538296  54.9435902  64.9722385
  77.8145027  55.4591465  65.7038784  78.7356472  55.5437422  64.5058250
 115.0713414 102.9458390  27.4998145 115.6114167 103.5241948  26.9612460
 114.1995973 103.3404027  27.4750285 106.7167968  93.2541166  15.2720217
 106.3383454  93.1797753  14.3959574 107.6229447  93.5222112  15.1195101
  76.2609339  37.9351711  91.1985207  75.9015465  38.8059282  91.0286522
  75.9774685  37.7286243  92.0891476  81.6325283   9.1888952  75.4765987
  81.2236023   9.6280372  76.2223673  82.2909546   8.6149770  75.8681679
  79.4579172  70.6340599  73.2067871  79.0094042  70.2121449  73.9396286
  80.3334236  70.8281517  73.5415173 116.0842866  94.9419795   2.1637492
 116.5811652  94.6186505   1.4122157 115.6958741  95.7621012   1.8591742
  38.2278092  19.3139552  27.6944117  38.9760191  19.0506887  28.2302336
  37.4946577  19.3513488  28.3086733  37.0161707   5.8668613   3.6601214
  36.9950802   4.9133157   3.5792784  37.7830012   6.0441350   4.2048983
  86.3623047  80.1920509  74.5005131  86.7841244  80.6684208  73.7854099
  86.8858433  80.4063225  75.2726698  89.7355080  51.5453053  91.4748383
  89.6637344  51.6851282  92.4190521  89.1833210  52.2255325  91.0893250
 114.1390514  99.8203373  73.4459448 114.7877216 100.2239990  72.8693151
 114.6575165  99.3941402  74.1284275  93.4187603  86.3089752  87.9602051
  92.8225899  87.0287132  87.7533627  93.7810516  86.5366077  88.8164520
  79.4955873  99.1068554  83.6732578  79.5322847  99.7731876  84.3594646
  79.0049124  98.3850574  84.0663052  70.9802818  37.1149111  84.1795158
  71.6018105  37.6480150  83.6838055  71.1032915  36.2276554  83.8420582
  51.4726526  27.7753877  22.9184966  52.2673685  28.2907438  23.0565981
  50.8129484  28.2011174  23.4660201   9.2810673  59.4375229  90.2621651
   8.7220616  58.8699389  89.7315216   9.1202015  60.3177309  89.9221897
  92.4547178  40.6939363   9.2901949  91.7387659  40.1657819   8.9370589
  92.0384390  41.5131807   9.5581202  58.6857683  50.9222554   0.8763079
  58.5351450  51.6498994   0.2729182  59.4239027  51.2068509   1.4152007
  77.7075750  23.3558845  18.8783221  77.8030188  24.1515064  18.3547644
  77.1857912  23.6272811  19.6335177   2.8821892  13.6944115  76.2269306
   1.9738907  13.8455594  76.4884186   3.0292363  14.3073988  75.5066156
  15.7158530  87.6920424  25.4604487  15.8643211  88.1492673  24.6327166
  14.7652496  87.7016364  25.5722098  50.3278143  55.4354810  40.6965212
  50.2701933  56.0513257  39.9660067  49.6745665  55.7458638  41.3235430
  84.0330982  65.6104136  75.4868460  84.1760826  64.6914434  75.7132959
  83.0886078  65.7356358  75.5789375  12.4234832  71.4925991  13.6008410
  13.2915939  71.0944305  13.6646418  12.5572074  72.2739790  13.0643801
  90.8618641  93.8868904  94.1907597  90.6248379  93.3504486  93.4342670
  90.4106617  94.7184849  94.0454960  18.6740572  13.5535192   4.6719889
  18.3991558  14.3228673   4.1732268  19.0526945  12.9665422   4.0175299
  80.6766493  31.0772275  28.7993292  80.5637247  31.2913274  29.7254233
  81.0730822  30.2059793  28.8015322  19.9824393  94.0456997   4.8007063
  20.9343971  94.0054785   4.8923449  19.8350394  94.6991311   4.1169505
  99.2330360  45.6811476  76.6686916  99.1396427  44.7385645  76.8067265
  98.4626102  46.0623789  77.0898104 114.7293282  73.1649637  78.8841772
 114.0849876  73.8672972  78.7959480 115.1164341  73.0841684  78.0124807
  63.3359511   6.6548490  29.2764239  63.1332476   5.8516216  28.7968688
  64.2152102   6.8935966  28.9829497  14.9076016  19.6472692  22.0245699
  14.6019013  20.2354955  22.7150492  15.4330809  20.2045106  21.4504675
  28.6102039  30.2178716   7.4166255  29.5177872  30.0064706   7.1979002
  28.0985911  29.8529100   6.6946272  98.1495667  84.7084618  62.7944565
  97.8116608  83.8477039  63.0417347  97.3955345  85.2930069  62.8717089
  48.2991774  45.4850148  30.8830885  48.1564219  46.0849523  30.1510195
  47.4612124  45.0351190  30.9909682  94.9705696  52.0273542  81.7016792
  95.0469685  52.3771667  82.5893879  94.0402126  51.8249178  81.6032600
  24.0506232  84.1553531  14.6202902  24.6126331  84.7189031  15.1520590
  24.5913184  83.3887182  14.4301562  67.0016766  39.1826129  84.3549633
  66.6761303  38.3865595  83.9347744  66.5627432  39.2012286  85.2053833
  46.9381888  58.8652658   5.9934382  47.4340040  59.3443250   6.6574435
  46.8434794  59.4860410   5.2710108  80.9873390  61.4708567  88.5068130
  80.6568909  62.3612595  88.3875370  81.9336128  61.5775537  88.6038017
  78.9016438  97.7960587  64.3304062  78.6664724  98.0402565  63.4352541
  78.7036943  96.8610477  64.3834543  63.3450968  25.7810449   1.4668517
  63.9184267  26.5291356   1.6338496  63.2256682  25.7781266   0.5171351
  27.5499404  89.0173398  12.7824835  27.2588695  89.9144445  12.9459242
  27.2602428  88.8304768  11.8895201  82.8091782  98.8653765  14.7902255
  82.8159875  98.2441340  14.0620474  81.9009608  98.8701783  15.0924735
  27.0861495  88.1179486   3.0426650  27.7364696  88.8201509   3.0273966
  26.6408694  88.2221280   3.8835577  57.1289332  44.3845891  21.7922644
  56.2284548  44.4159841  21.4691691  57.5381262  43.6780023  21.2927393
 111.6691208  64.7177935  75.5694056 111.9001389  64.3276215  74.7264194
 110.7122326  64.7007370  75.5870342  64.5810587  28.3648824   2.5192408
  65.4694731  28.5147809   2.1959929  64.0229971  28.8726091   1.9301657
 113.7877941  73.7116528  72.8655481 113.9368725  74.6359921  73.0645657
 114.5474625  73.2615471  73.2350683  98.5186768  66.2854576  72.6205492
  97.7183628  66.1884451  73.1366062  99.1976357  65.8682299  73.1508017
  66.4658499  42.9194260  77.8498745  66.9898176  42.6283646  78.5961819
  65.8957529  42.1761322  77.6530457  50.2262385  62.7971219  23.9573054
  50.4789049  63.1812238  24.7968630  49.8355086  61.9541597  24.1874938
  35.3198398 102.5842963   4.4886832  35.9420837 102.8535424   3.8129954
  35.8647121 102.3825751   5.2493815  67.2720289  90.5013943  89.6382618
  66.5033960  89.9522877  89.7929287  67.3582935  90.5297661  88.6853790
  79.9131918  50.8569717  80.8214855  78.9688015  50.8584070  80.9775543
  80.2040958  51.7237568  81.1048412   6.2533516  97.5104809  86.4182281
   6.5192932  96.5911484  86.3999653   5.6759400  97.6078701  85.6610394
  71.2112219  20.5255079  13.2086234  71.4801199  20.7421493  14.1013674
  71.1123640  21.3735246  12.7758078  49.6738226  28.8723420   1.4893679
  49.1581041  28.2251214   1.9703726  49.9134142  28.4303235   0.6748442
  57.7624399  21.1671304  31.6977648  57.0298941  21.7603492  31.8641619
  57.8108484  21.1080694  30.7436137  87.9969025  46.1699677  80.1270103
  87.9254246  46.1471844  79.1727543  87.4439144  46.9052744  80.3911304
   0.3077090 102.1119319  15.0481276   0.3212274 102.2902785  15.9884696
  -0.5924737 101.8404113  14.8687605  83.7058353  85.3981876  71.3019037
  82.7878666  85.1270294  71.3073969  84.1725063  84.6560287  70.9176588
  53.0138476  47.1495199   1.4921813  53.6706144  47.0991277   2.1866946
  53.5223467  47.1495771   0.6812148  93.3615685  73.1542349  70.3171015
  93.1372070  72.8233004  69.4474030  93.8737679  73.9449263  70.1477003
  82.6295471  74.2813063  88.3260822  82.6229954  74.7645950  87.4998665
  83.4788036  73.8399029  88.3386326 103.3192062  61.9389343  85.3920841
 102.4999523  61.7516232  84.9338722 103.2603645  62.8671885  85.6181717
 113.0600327  97.2271167   8.5944514 113.1221217  96.3742982   9.0246539
 113.7091321  97.7693139   9.0427069 114.8806352 110.1583110   2.2314791
 115.5592030 110.0534163   1.5645651 114.0825480 110.3388844   1.7348055
  36.6485865   8.5617637   4.4318633  35.8924229   8.4307050   5.0039343
  36.8176777   7.6975631   4.0566306  45.7516367  27.7608060  39.4730715
  46.3537771  27.7407216  38.7292628  45.2179892  26.9728040  39.3705706
 102.5533581  45.5264997  92.3631763 101.6996098  45.7988071  92.0267391
 102.9900169  46.3450003  92.5990295   3.1190265  98.6939488  15.6288294
   3.2887042  98.0231725  16.2902693   2.9130710  98.2006655  14.8348002
  68.5314941  50.2917051  77.5061655  69.1854048  49.7604418  77.0518589
  68.1652212  49.7058821  78.1686544 112.4935818  57.7142000  39.7850537
 112.3898125  58.6657381  39.7907329 112.9333210  57.5162792  40.6119108
  73.2536459  77.1618986  80.6745243  72.8948545  76.2748098  80.6984520
  73.6379242  77.2883224  81.5420341  86.4625072  54.1314936  74.9256134
  86.5369892  55.0591183  74.7015619  87.3674107  53.8229132  74.9720669
  68.0160315   4.4952010  20.4143290  68.2911951   4.0085029  19.6373896
  67.3686583   5.1204633  20.0884585 103.3581066  81.7752075  93.0365181
 103.7351990  81.4544964  93.8557816 103.7378693  81.2125874  92.3616314
  43.5190565  29.8114251  27.3151164  43.5717566  29.3901967  28.1730322
  42.6519758  30.2166318  27.3001055  93.6815548  93.4445190  86.0306931
  92.9632092  93.9671612  85.6742477  93.7021637  92.6602173  85.4823494
  26.4613325  17.2216892   0.9856944  27.2576744  16.7086267   1.1229376
  26.7650444  18.1284045   0.9425406  82.2535610  67.3526907  70.9169102
  81.5402412  66.9109631  71.3776445  81.9486237  67.4204111  70.0121164
  98.2996082 108.4374142  85.6624889  98.2135010 108.1707191  84.7472286
  99.0308094 109.0551281  85.6641865  89.3772125 107.1477985  95.0749969
  89.6267605 106.2251472  95.1266861  88.4440041 107.1557999  95.2878284
  48.8505728  28.8795995  12.6907877  48.6935885  28.7052011  11.7627959
  49.8031981  28.9345788  12.7663569  89.2242050  39.2983007  85.0055122
  89.4650078  38.7025285  85.7149506  88.3097649  39.0880799  84.8161983
  69.2377360  16.8888521  14.8833994  68.5979349  16.3392305  14.4308428
  68.9455492  16.8955850  15.7948927  52.6014979   9.9370479  25.6528620
  51.9319708  10.5794048  25.8881239  52.6066000   9.3180513  26.3829569
 115.4597950  43.0330133  63.2943916 115.5895424  42.1313095  63.5882139
 116.0002327  43.1087828  62.5080013  10.9520954  59.1561365  64.3239927
  10.1974816  59.4354391  63.8055611  10.7822270  59.5024395  65.2000380
  78.5893965  54.7094107  85.8143902  78.9216280  55.0120163  84.9692345
  79.2861843  54.9214506  86.4354801  47.7653010  30.8181142  27.0950179
  48.1093008  31.2749528  26.3274245  47.2428877  30.1021528  26.7334609
  98.0183029  80.2580261  79.2497396  97.7847481  79.4449663  79.6976519
  97.9953098  80.0340748  78.3193922   5.3514255  99.5498143   4.2013888
   5.7417453  99.0308820   4.9046568   6.0676444 100.0995646   3.8835387
  97.8861523  55.3674412  85.9002209  97.5984287  54.7981501  85.1865292
  98.6070824  54.8904562  86.3112926  10.8929104  78.5057163  89.2046070
  10.5944962  78.4366322  88.2977486  11.7063183  78.0016804  89.2281532
  50.0263865   3.2474708  12.4742178  50.8128245   3.1649970  11.9348292
  50.3214914   3.7094688  13.2588915  10.1459563 101.2436734   0.0959734
   9.9336780 102.0026074   0.6392817  11.0652984 101.3676368  -0.1399656
  34.9019302  96.9677697  26.6109137  34.3648589  97.0130072  27.4019484
  34.6283687  96.1571084  26.1817126  24.2225689  75.3387308  90.5546093
  24.0910668  74.7236109  91.2761116  24.4920677  76.1527681  90.9799957
 115.6211281  63.6124086  92.9060650 116.2384796  64.0256691  92.3024750
 115.6157684  62.6903582  92.6491070  74.8236561  57.4371862  82.9539585
  75.5367851  58.0747557  82.9883957  74.7715139  57.0878792  83.8436222
  94.4374847  65.8815050  69.7562742  94.0635872  65.0269270  69.9710417
  95.2727604  65.9016991  70.2233171  11.9130386  94.6477876  29.0482287
  11.0339893  94.7816883  28.6938815  12.4903548  95.1024447  28.4348540
  88.3888167 104.0418158  43.2864337  88.6133784 103.8274728  44.1918902
  88.8749427 103.4054766  42.7620368  12.2595084   5.2050627  86.8305016
  11.7670406   4.6599425  87.4441338  11.7463840   5.1800478  86.0228443
  59.3307383  30.6671094  19.5023970  59.7469694  30.9874009  20.3026442
  58.6323340  30.0894975  19.8103480   3.3788246  73.1095791  94.2938995
   2.5256581  73.2753992  93.8928413   3.4355397  72.1557426  94.3505096
  26.1737979  83.6567674  17.9883723  26.4397491  84.4422160  17.5102763
  26.6597713  82.9458986  17.5703673  76.3896227  59.4140434  74.5148325
  77.3040152  59.3839979  74.2333889  76.4345884  59.5565319  75.4603004
  82.6524448  41.2593317  68.1565046  82.3109818  41.6181850  68.9755678
  82.0949173  40.5025482  67.9757357   0.3682531 110.1459132   0.6939082
   0.3419889 110.0328599  -0.2562280   1.2830318 109.9897729   0.9284930
  23.8400871  36.4490556  20.9909491  24.4382746  36.5370988  21.7330031
  24.0555031  37.1871137  20.4207758  56.7396021  65.1113939  84.2706776
  56.5443850  65.5094194  85.1190281  56.6943884  64.1690016  84.4321823
  69.5532846  82.8945351  93.9106464  69.6660614  82.2165108  93.2444763
  70.3467226  82.8411770  94.4434166  40.4524262  14.2341041  29.9042944
  39.5836718  13.8333511  29.9342398  40.3463490  14.9933004  29.3310599
  57.4092276  34.5441770  25.0618128  56.9495184  34.8525190  24.2809062
  58.3169729  34.4356584  24.7781615  94.1164875  78.3001471  68.5699415
  93.5899639  78.8130283  67.9567814  94.8132896  77.9248428  68.0315685
  45.0352747   3.9437007  12.6850657  44.4883043   3.6996793  11.9384055
  45.7890017   3.3560561  12.6320223  97.7907259   7.5102996  18.2331614
  97.5280363   6.7659425  18.7746100  97.0901281   8.1516837  18.3515887
  55.5535967  19.2264318  31.4522318  56.3635618  19.4692516  31.0036330
  55.7479841  19.3502330  32.3812727  10.5895943  50.6174088  65.5562830
  11.4601654  51.0102272  65.6197834   9.9875016  51.3596678  65.6088114
  47.8620989  28.1419515  15.0078444  48.7109739  27.9510640  15.4068522
  48.0686075  28.3630895  14.0997271  72.5313170  21.7227554  18.4733157
  72.5642759  22.2023486  19.3010478  73.4076578  21.8251228  18.1021361
  52.6222021  44.4454526  27.1175150  52.6789076  43.6503267  26.5876154
  53.3804590  44.9653768  26.8511538  99.3398190  87.8672886  70.0284338
 100.0951767  88.0023289  69.4562149  98.8033199  88.6504459  69.9056911
  91.3852102  18.0753803  17.5601439  91.5820486  18.4067439  18.4363131
  91.2525732  17.1355056  17.6837306  89.7959232  73.8250065  80.8939266
  90.1583290  73.2135391  80.2528381  89.7311878  73.3150148  81.7013645
  98.3468437  73.5906315  77.7393484  98.4432030  72.7989960  78.2687426
  99.2409420  73.9128447  77.6253605  78.1832266  31.6439199  87.0988083
  78.8807440  31.6953921  86.4453220  77.3768520  31.7708850  86.5989304
  53.6909754   0.7665681  31.3498358  53.0765898   0.4897546  32.0296435
  53.2302935   0.5984639  30.5277972  13.8793147  92.2006307  10.4460291
  14.4247115  92.9497705  10.2060942  13.7927211  91.6981779   9.6359210
  36.9526083   2.8377628   8.0787234  37.3588450   3.2263183   8.8534693
  36.2798674   2.2535705   8.4285502  18.8626731 101.1451779  10.1934485
  18.0154670 101.0970460   9.7505717  18.6434329 101.2276183  11.1215453
  76.7988093  46.5261697  15.9158949  76.5829737  46.2960576  15.0121836
  77.0427115  45.6948995  16.3229994  74.8867846   3.2725748  84.0614891
  74.4551992   2.8779879  84.8192978  74.8653221   4.2133752  84.2366028
 108.9261246  91.5910339  64.9638605 109.5788002  91.2545013  65.5778551
 109.1226006  92.5252151  64.8936415  72.0452959  24.4119548   5.6317095
  71.8917353  23.4825944   5.8018260  72.7356035  24.4232129   4.9686961
  95.4743356 108.9664136  12.8405337  95.0124329 108.4925710  13.5321574
  94.7987336 109.5022021  12.4249320 110.3136349  88.6837578  46.6736031
 109.9328899  89.4767761  46.2962770 109.5622635  88.1171227  46.8485212
   2.3156322  96.6147719  13.9702372   1.4884246  97.0105563  13.6957984
   2.8978694  96.7319022  13.2195715  40.4868061  18.8122939  11.0869650
  41.3081534  18.9579295  11.5564589  40.6874973  18.1135606  10.4642920
  96.2036324  68.4899282  72.3928022  96.9688702  68.3468246  71.8358803
  96.0048294  67.6257992  72.7533340  62.0708830   0.6871747  55.7099776
  61.9427664   0.0549602  56.4171652  61.4984209   0.3796481  55.0071578
  64.8602087  28.8929223   7.4151854  64.4123728  28.5106611   8.1698756
  65.7539541  28.5546827   7.4704318 110.2479172  80.4576492  63.9620161
 111.0705471  80.4823399  64.4507885 110.4751205  80.0390816  63.1317043
  13.2432616 110.1371823  21.5618567  12.9256118 109.6432696  22.3177580
  13.7470115 109.5008002  21.0544257  94.3499088  61.6142607  71.6267490
  93.7604427  62.3400974  71.4219999  95.0342655  62.0070362  72.1686029
  88.3755207  68.6203957  84.4884682  88.3187675  68.2890654  85.3846931
  89.2978096  68.5185575  84.2534065   4.0194458  81.9959641  79.2762613
   3.1475014  82.1891785  79.6206570   4.5354409  82.7762127  79.4792128
  77.5565434  50.7519484  72.4595881  78.2651043  51.3390875  72.7230978
  77.9026413  50.2851868  71.6989422  69.4619162  20.1986551   7.9627184
  68.6968596  19.8047780   8.3819823  69.1044886  20.6822776   7.2180132
  45.6972201   2.7534770   1.7918353  45.5991823   3.6992692   1.9017844
  45.4640181   2.3877095   2.6450972  28.1779331  62.3555326  65.6163836
  27.7747483  61.5861845  65.2141666  28.4003014  62.0731783  66.5035486
  82.2319412  42.4806690  62.7758598  82.6883793  41.7551947  62.3497391
  82.4948788  42.4225903  63.6944056  85.3372843  28.8025998   3.8503508
  86.2706453  29.0082883   3.7977843  85.2393038  28.3461904   4.6860079
  90.5268729   8.2716120  72.9058504  90.4042686   9.1728724  72.6076603
  90.7842887   8.3560027  73.8239193  29.6043141  30.3592443  12.9488997
  30.2303011  30.8377885  13.4923796  29.0699227  31.0412549  12.5420622
 108.8121033  81.6213036  87.4221325 108.7411785  81.6197491  88.3767033
 107.9147148  81.4923286  87.1150780  94.9815845  38.7738037  87.7801132
  95.0557327  37.8371429  87.9628754  94.3679333  39.0985608  88.4390545
  75.1349878  73.6375570  92.6207161  75.6773758  73.9525080  93.3438015
  75.7268476  73.1010151  92.0934010  95.4094791  63.6174583  76.7629671
  95.8410454  64.4323683  77.0196819  95.0908279  63.2457638  77.5854826
  54.0300543  20.0194120  38.3847193  53.8684828  19.1490459  38.0205969
  54.3955977  19.8515844  39.2533068  42.3991186  34.1935777  30.3267149
  42.0731814  33.3760022  30.7029681  42.8345091  33.9276742  29.5167975
 114.0790462  64.9718142  56.8972588 114.0130711  64.7766876  55.9624815
 114.9878407  64.7704744  57.1204042  87.9009056  75.6878853  84.3700218
  87.0608521  75.4473972  84.7607994  87.7405357  75.6682920  83.4265518
  88.3468914  60.3472328  91.3012123  88.6835289  59.5289898  91.6664314
  87.4281406  60.3689194  91.5688992  98.9499092  37.9659390  69.9870300
  99.5406055  37.9335165  69.2345285  98.0840015  38.1110358  69.6057272
  72.8598404  72.2627401  84.9591923  73.7306356  72.0379639  84.6314240
  72.8177977  73.2167053  84.8927498 105.9544182  67.9365492  86.2488651
 106.3586521  68.3296633  87.0223618 106.6381645  67.9669666  85.5796909
  24.0259040  99.3469392  12.0459513  23.5991538  99.0851699  12.8617911
  24.4974960 100.1494513  12.2691016  37.4640972  43.0889367  20.9478335
  37.9094631  43.8922929  21.2170844  38.1723768  42.4906873  20.7097773
  45.5918295   3.3483171  32.0801405  45.0892908   2.5818586  32.3562293
  46.3918001   3.3118057  32.6044898  53.0559111  51.1180639  77.9717827
  52.8606272  51.9283533  77.5011206  52.4080801  51.0879326  78.6758041
  72.4005682  18.4324884   0.4998736  71.9610006  18.7733745   1.2788538
  71.9409163  17.6161765   0.3034262   0.7265866  77.3445593   5.4821543
   1.4130986  77.2432218   4.8228602   0.9881271  76.7584668   6.1923174
   8.5349507  68.5304451  78.7800169   8.5970730  68.9751291  77.9346609
   7.8898091  67.8374720  78.6392832 107.0174885  35.6963181  73.0850649
 106.2623024  35.5999351  73.6652756 106.6580009  36.0818458  72.2860861
  39.6111567  34.4926976  28.7556033  39.7344143  35.4411077  28.7161974
  40.4993374  34.1363382  28.7748675  95.4004574  57.0494318  62.9726028
  94.8697853  57.5363350  62.3420954  94.8740673  57.0400381  63.7720108
 114.2169285  58.4552050  82.9740429 113.4490299  58.7048006  82.4599838
 113.8719559  57.8775024  83.6548424  63.4993250  37.1115636  34.3254904
  63.6309988  38.0408429  34.1375594  63.6650164  36.6726350  33.4911494
 112.0058125  19.3439330  77.6909208 112.3598737  18.4725417  77.5132799
 111.4724130  19.5469512  76.9224834  97.4493408  87.3393154  93.5367680
  97.0629120  88.1846619  93.3080673  96.7627430  86.8867970  94.0267086
  18.0155546  35.4572439   8.8959174  18.5051472  36.1812543   9.2862372
  18.3371813  34.6783494   9.3499140  46.8645668  65.8472633  86.0433483
  46.3907433  65.7541847  85.2168751  46.6136742  66.7123890  86.3671494
  72.9988050  84.0902519  93.0505276  72.5173235  84.7149181  93.5929298
  73.7054682  84.6056271  92.6616096  88.6057472  64.0622520  88.6403751
  88.3345795  63.1523991  88.5184288  89.3161678  64.1868448  88.0110836
  19.0196384 106.9076501   8.0209116  18.2952274 106.7242204   8.6190943
  18.6645473 106.7237817   7.1512370 109.0780258  57.9595232  89.1187763
 109.4716072  58.5270452  88.4560204 109.0058041  57.1062231  88.6911201
  60.4384787   8.6692380  10.9555869  60.9148676   7.8563546  11.1244158
  60.9106428   9.0772390  10.2297644  78.3852005  67.1929216  70.8544970
  78.4045506  66.5372610  70.1573801  79.1081619  66.9492722  71.4325953
  38.9798481   8.0204915  47.7695899  39.7254450   7.6431035  47.3027949
  38.9942391   8.9480829  47.5337843  34.5273364 108.4939776   3.9986567
  34.4747604 108.6948357   3.0642371  33.8738311 107.8076516   4.1332488
  96.4557457  68.1684446  92.4821949  95.7026196  68.7408590  92.6284122
  97.0298958  68.6709690  91.9042301   9.8073638 103.6039649  22.1965270
  10.5742896 103.2689868  21.7319445   9.8163284 103.1444274  23.0361514
  39.7602064  30.9910917  25.4948573  39.6732504  31.5104341  24.6955065
  40.1171429  30.1537275  25.1987986  85.4085732  74.9828339  85.0685501
  85.0856972  74.2884207  84.4942856  84.6197987  75.4446411  85.3528214
  99.2910480  40.7996941  83.5604191  99.4676971  41.6320515  83.9988327
  99.5177555  40.1340723  84.2098713  83.9771557  85.7842827  86.6779518
  83.7189007  84.8661423  86.7588615  83.5446835  86.0852146  85.8788109
  23.6687071  17.5802421  18.9924292  23.9708073  16.6998672  18.7690405
  24.0457232  17.7510213  19.8555235  16.6380656  96.1925660  11.2496809
  16.0990871  96.4442311  11.9996027  17.2078574  96.9470559  11.1002879
  95.1736832  71.2842321  88.5263252  96.0322380  70.8697224  88.4409523
  95.0476742  71.7469597  87.6979256  93.2256508  60.9915495  84.9934673
  92.4771881  60.4277611  85.1888752  92.8822327  61.8815136  85.0725937
  19.9193538  91.9232260  27.5331168  20.3247512  91.1628781  27.1162753
  20.2045310  92.6674352  27.0029692  54.1765768  27.8049993   4.5180754
  54.6806605  28.4095239   3.9733939  54.3733961  26.9392728   4.1603045
  59.4882471  17.1413945  26.8938212  58.7008555  17.4626636  26.4544730
  59.1895468  16.3839530  27.3970942  52.2086031  52.8024339   7.4013762
  52.2520525  52.3246717   8.2296805  51.4314158  53.3550309   7.4840979
 106.1474419  75.0252151  77.2138548 105.7764816  74.6323633  76.4237309
 106.4382839  74.2792130  77.7383804 110.2941132  84.3669510  73.2240248
 109.9303341  85.2248383  73.0051279 111.2357807  84.5192623  73.3033323
  47.0909292  16.7387962   6.2071757  47.6125891  16.5326595   6.9828181
  46.2771685  17.1029043   6.5556674 115.3722400  73.4708141   4.2252974
 115.0669545  72.9423188   4.9626784 114.6735400  74.1093527   4.0827708
  42.7774508  36.5005731   1.9822745  43.4030134  37.2174501   1.8774371
  42.9679567  35.9081792   1.2549452 103.1156158  61.5935183  89.4231033
 103.4931374  62.4689054  89.3370056 102.6385117  61.6189575  90.2525330
 103.6804581  47.2658634  81.3969612 103.2003689  46.4424133  81.4846039
 103.4101295  47.7826738  82.1559525  29.9718536  92.0442234   5.3768210
  29.5799793  92.7064143   5.9461836  30.7958282  92.4353228   5.0864081
  35.6486953 106.4231692   7.6343493  34.7352374 106.4964782   7.9108386
  35.7392753 107.0685874   6.9333033  85.4778767  85.8711910  93.3721542
  84.9100876  86.2712574  94.0307808  85.4493999  84.9347401  93.5683346
  23.6565823  63.0434942  45.8925390  22.8773064  62.4941397  45.8078623
  23.4966511  63.5666180  46.6780281  84.4658279  87.3955631  75.3606462
  85.2490234  87.1329212  75.8442307  84.2541885  86.6366005  74.8171186
  78.7366087  43.7042379   3.8332037  79.6733744  43.8849115   3.9109759
  78.3175261  44.5563363   3.9537196  23.1577647 109.4928799  14.2191844
  22.8042949 109.9841271  13.4775786  23.0852569 108.5756360  13.9552836
  61.0485155  54.1752481   0.3873686  61.4427740  53.3528947   0.0966506
  60.1083834  54.0484762   0.2596144  28.0761845  35.3472757  18.7395148
  28.7683327  35.3644037  19.4004778  27.7445442  34.4496774  18.7631945
 112.6947403  79.9219942  93.2624245 112.2173977  80.5393887  93.8166904
 112.0813847  79.2001629  93.1246185   9.7538341 109.4695912   1.1680464
  10.2783931 108.6690913   1.1842780  10.2039111 110.0382577   0.5433230
  66.8288118  51.7313909  27.7379660  66.5319044  52.0066213  26.8705992
  67.7158720  51.4017820  27.5940375  86.1380100 104.6169853  69.2214012
  85.5037975 104.8451805  68.5417461  85.6701183 104.0054417  69.7900057
  63.7750418  25.8116388   8.5276370  64.0169794  26.5380239   9.1021590
  62.8178579  25.8118772   8.5313658  91.4249229  98.3056545  90.4324627
  91.6368294  97.8142929  91.2261200  90.9128761  99.0525055  90.7426929
  66.0589487  19.2940568  35.6162600  65.7613451  18.7779474  34.8670630
  67.0090181  19.3436431  35.5107169  31.9686187   8.7383879  82.6001835
  31.7909015   8.4216727  81.7145538  31.3512576   9.4591368  82.7251816
 115.8155823  53.2187605  78.3209467 115.2258015  53.0308533  77.5908184
 115.8529758  52.4000406  78.8154459  14.9319232   6.7027415  76.4019632
  15.7593215   7.1770323  76.3200903  15.1603473   5.7902659  76.2246227
 101.0579205  86.6217899  85.8225441 101.7593002  87.0979023  86.2670803
 100.7788467  85.9602833  86.4556026  69.1962004  56.3350153  72.0407486
  68.4668064  56.6613913  71.5137815  69.9763489  56.6953611  71.6191435
 110.6691742  77.2099209  87.8607273 110.5277157  76.9609690  86.9473553
 111.5654564  76.9314909  88.0488110  25.2172310  62.1277570  14.7244410
  24.6558935  61.3526773  14.7441248  24.8079331  62.7035760  14.0785746
   8.7887347  16.3952960  62.9942226   8.1782497  15.6678618  63.1141472
   9.4320644  16.2860049  63.6945200   5.6918586 103.3544217  38.5260252
   6.1247791 104.0093194  39.0736727   4.9822582 103.0165301  39.0723948
  93.7088759  37.9977273  16.9047789  94.4962866  37.8598546  17.4312930
  94.0258772  38.4179353  16.1053042 110.7840633 108.2487774  75.3415060
 111.2703133 107.4250317  75.3767633 110.6238651 108.4717751  76.2584782
  20.2460445  12.6357974  71.0666656  19.7064079  11.8523253  71.1724567
  20.8971751  12.3911417  70.4090929  61.0360701   6.4245986  20.5803637
  60.2266295   6.1522579  21.0126547  61.2141115   5.7302713  19.9459795
  93.0462646  63.7950468  94.7362137  92.3598003  63.8382006  95.4019070
  92.7091980  63.1807995  94.0840530  82.8425312  51.3978243  82.8772545
  83.1547928  50.5027723  82.7445793  83.6369801  51.9075966  83.0360413
  11.9577545  59.3588114  87.7719879  11.5270085  59.6616268  88.5713577
  11.8676132  58.4062052  87.7974796 111.4983749  80.6470680  87.4425793
 111.9871426  80.4023361  88.2283592 110.5996609  80.7701969  87.7481651
  92.2422600  98.5615635  84.5917988  92.5612068  99.2408752  85.1859665
  91.4856339  98.9575291  84.1594028  93.6616707  67.1560431  77.3361254
  92.8275108  67.6255131  77.3360157  93.4653091  66.3187027  76.9159651
  96.9353390  69.1690159  88.5017109  97.8687668  68.9653301  88.4429264
  96.5990448  68.5629559  89.1618824 101.3689327 106.6565228  89.2681599
 102.2192764 106.9684219  88.9585495 101.3971424 105.7094669  89.1320610
  79.1804678  20.8643197  18.7004714  79.6418173  20.7960700  19.5363764
  78.6480410  21.6553067  18.7846426  75.4298115  96.9710255  48.1930876
  75.3961754  96.0166740  48.2588768  76.3519716  97.1673584  48.0278349
  83.2694626  74.8985910  77.6390839  83.6240864  74.7893858  76.7567301
  82.4695587  75.4092598  77.5142241 102.1398258  74.5534277  72.1229458
 102.9816532  74.2589521  71.7753172 102.2295952  75.5036926  72.1948528
  91.1270905  84.7348309  93.1663227  90.4834557  84.0289974  93.1050110
  90.6972027  85.4055691  93.6969280  44.4338841  98.2891750  80.7278347
  43.9384693  97.6639557  81.2568951  44.3637127  97.9548168  79.8336792
  94.3614578 107.5950241  84.1608238  94.4348049 107.8238392  83.2342720
  95.2323818 107.2769642  84.3986511 104.2566109  95.2569771  89.0967560
 104.5905113  95.7820225  89.8241329 104.9994278  95.1768684  88.4984016
  33.4895671   3.7266863  24.5937181  32.5391448   3.6510695  24.6787119
  33.8309634   3.4056700  25.4283595  91.9836140  94.4437122  90.4811859
  91.4882851  95.2592468  90.4051208  92.6406860  94.4969463  89.7871685
  76.2281210  28.2544374   0.2943091  75.9919245  28.7736081  -0.4743906
  76.9183619  28.7608575   0.7224993  84.7848606  68.2680321  81.3288689
  83.8659477  68.0088520  81.3971901  85.2713490  67.5177908  81.6704845
   1.2910694  60.8535480  64.3534231   1.0026688  60.1662779  63.7528276
   0.6654019  61.5656853  64.2206860 116.3317585  58.2405376  92.4856281
 116.0171032  57.3716974  92.7353001 116.5201187  58.1673288  91.5499973
 104.4870853  80.2707195  95.0094032 104.4962311  80.8047485  95.8037281
 105.1502037  79.5982456  95.1652527  61.8676645  51.4734029  22.1808867
  62.0967848  51.5800809  23.1041197  61.7638857  52.3674249  21.8550162
 102.0184135  45.5232811  70.1103926 102.3054218  44.6107626  70.0762033
 102.7141285  45.9754610  70.5876160  17.4517978 105.7573901  20.9517245
  17.9131950 106.4756785  21.3846354  16.5254176 105.9354792  21.1140017
  63.3495600  43.2117700  10.1567893  62.8753645  43.9802312   9.8392539
  63.1329329  43.1645250  11.0879569  61.2153227  21.9737052  22.0941786
  61.5097315  22.7640294  21.6414790  60.5903036  22.2900867  22.7464633
  58.9857275  28.2013368  16.0064463  59.9351103  28.2068967  15.8845095
  58.8603098  27.8679513  16.8949084  38.2867873  24.4633902  95.4671097
  38.0374492  24.0889586  94.6222115  37.4579108  24.5798243  95.9314632
  49.3032248  37.4819230   4.9099116  49.2006094  37.3363160   5.8503966
  50.1650030  37.1196889   4.7040991  38.5963137  32.9681634  30.8686118
  38.8973648  33.7825536  30.4656653  37.6669962  33.1166601  31.0433917
 109.8066998 107.8180695  52.5517750 108.9603901 108.2036877  52.7782726
 109.5866013 106.9831181  52.1386862 108.2701969  63.3404732  71.6421127
 108.8293266  62.5708628  71.7484570 108.5655212  63.7398529  70.8238697
  45.9013827  37.0041703  18.4206633  45.5418379  37.8692769  18.6170058
  45.7327730  36.4899015  19.2101721  43.1616575  33.9372682  27.3313765
  43.2282908  34.4851732  26.5493350  44.0577681  33.6431646  27.4948363
  47.5834353  44.7098016  11.1232237  46.6756804  44.7974443  10.8324580
  48.1036265  44.8686933  10.3355841  59.7518236  33.2393312  21.3085036
  58.8792689  33.4913110  21.0061984  60.1069147  34.0348768  21.7050604
 111.7283726  29.6207881  93.1099892 112.2350597  29.0071607  93.6419392
 110.8322906  29.2862248  93.1465912  36.5437348  22.3785543   4.5553259
  36.5838034  22.7715587   5.4272131  37.1448929  22.9043769   4.0277342
  21.6897423  17.5217866  26.3335948  20.8264095  17.1085691  26.3452391
  22.1619970  17.1103334  27.0574145 107.2689819  66.0637140  77.9486704
 107.3906231  65.8357668  78.8703394 106.6295910  66.7759466  77.9604626
  19.4887126   5.6280077  85.7511902  19.1441692   5.1222170  85.0152016
  18.7171043   5.8464182  86.2738228  97.2794056  88.5871887  78.6446238
  97.8078556  89.3823910  78.7126064  97.9096031  87.8980637  78.4343719
  22.8032727  79.2504072  51.8654442  23.2761807  78.7261009  52.5117350
  21.8983597  79.2560482  52.1774340  57.5023729  39.4810628  20.5597167
  57.2724039  39.8148774  21.4268450  57.6998598  38.5556363  20.7039599
  59.3650038  30.9027814  26.7737441  58.5210020  31.3304185  26.6287283
  59.9688418  31.6216897  26.9602828  57.9241640  46.8354844  11.8398909
  57.4009974  46.8897580  12.6396327  57.3396666  47.1487092  11.1496119
   1.6459507  60.4899311  82.3286057   2.4120945  59.9229717  82.2402382
   1.8923420  61.2975407  81.8777275  41.0533888   1.2798261  10.5021624
  41.2797529   2.0549106   9.9881224  41.8914396   0.8465003  10.6638293
 102.1253473  19.5746946   4.1529803 101.9024546  20.0538492   4.9510722
 102.5376589  20.2284765   3.5883574  13.2901729   1.0198630  81.4590836
  13.9389861   0.9944857  82.1623802  13.6986507   0.5394782  80.7389355
   0.8335633  92.8747845  77.5203657   0.7937474  92.8164387  76.5657759
   0.6514878  91.9849586  77.8225136  87.8594095  54.8235940  22.1593718
  87.3949511  53.9952230  22.2789530  88.7583143  54.6352815  22.4290518
  95.0199318  82.7264977  92.6121902  95.7677174  82.3871613  92.1203613
  94.2612076  82.5227356  92.0653343 106.6078377  42.6395702  68.3837795
 107.1035767  42.7100420  67.5679970 106.8376637  41.7772770  68.7299919
 101.4275057  54.1154432   3.6634497 101.4259035  54.8791646   4.2404704
 100.5028708  53.9570474   3.4732203  84.4537241  29.8818635  22.6145415
  84.6687967  30.2645635  21.7639498  84.9640352  29.0727758  22.6490931
  97.9526615  77.2281170  94.1415024  98.6087036  76.5494204  94.3002892
  97.4300861  76.8905783  93.4140396  58.0309183  53.7167024  13.1234316
  57.3190672  53.7443685  13.7627558  58.7736303  54.1182088  13.5744433
  77.8978808  26.6330480  21.0557894  78.3009035  27.2074937  20.4047732
  78.6324293  26.1555146  21.4413218  98.3060169  86.4285469  90.8193684
  98.5843086  85.5178928  90.9167576  97.8446770  86.6264725  91.6343689
  17.3872895 101.5481472  74.4625711  18.3250469 101.3727570  74.3846130
  16.9724793 100.8799267  73.9170122  49.1176970   8.0702733  25.7677035
  48.7117750   8.5484599  26.4907507  48.5143740   7.3489570  25.5889754
  82.7288342  78.4049606  91.5711021  82.8279781  78.1727982  92.4944115
  82.4764252  77.5863266  91.1440659 101.5369129  88.3858871  68.6082458
 102.2729492  88.9973354  68.6328650 101.9145489  87.5695419  68.2808161
 108.7487984 104.1821957  65.7118893 109.5922375 104.4060135  65.3185129
 108.9663792 103.8986111  66.5998507 107.1198654  73.2672071  94.1809082
 106.7500019  72.6203346  93.5800838 108.0216694  73.3837223  93.8819027
  66.1300928  13.2833242   8.6015849  65.8599741  13.9723539   7.9945330
  66.7189200  12.7296495   8.0887846  39.8787911  17.6359271   7.9754786
  39.2251665  17.6303148   7.2762160  40.6382019  18.0728721   7.5899844
  76.4228582  76.5269852  89.4703197  75.6800699  77.1276522  89.4095612
  76.0341215  75.6562090  89.3874836   8.2975430  88.3687019  70.5041170
   7.7643437  88.3571911  69.7092581   8.8028282  87.5566578  70.4653645
  68.1155188  15.8868741  33.7912421  68.7233050  16.6014480  33.6009650
  68.1392271  15.7996225  34.7441630  74.7831328  33.5272645  10.5082945
  74.2401869  32.8542661  10.0977950  75.0215132  33.1571721  11.3582568
  61.1648924  25.4402208   9.5920329  61.7360670  24.9119138  10.1496081
  60.4959089  25.7788514  10.1870303 115.6513900  88.5375963  25.2342467
 115.3603858  87.6447593  25.0487952 115.1046056  88.8203369  25.9672598
 108.0144119  99.1947937  72.7118731 108.2135391  99.9747562  72.1939564
 107.3160553  99.4727135  73.3045626  93.3492279 106.4270496  73.7973452
  92.8813744 106.8849468  73.0990076  92.7545547 105.7261467  74.0644598
  78.3746130  73.5716104  25.2004008  78.4866984  73.4631681  26.1448054
  77.5644381  74.0735482  25.1114325 112.9045934   7.7540339  92.5551605
 113.8287276   7.5321043  92.4413395 112.9144162   8.5792960  93.0400181
 109.7921276  66.5388441  92.4769974 110.2177620  66.6125441  93.3311844
 110.4277134  66.0750198  91.9319057  98.6519432 106.7698097  83.3827496
  98.3442020 106.8496323  82.4798965  98.6553574 105.8277321  83.5522270
  91.5680122  83.9465523  79.5680237  92.2705269  84.0120029  78.9211702
  90.7672215  83.8884544  79.0468788  75.3632242  14.3174981   4.4133429
  75.5954058  13.7711477   5.1642279  76.0818655  14.9458741   4.3430285
 105.3651619  90.7098103  80.7062817 105.3023148  91.6127777  81.0175991
 105.0617981  90.1804924  81.4438629 102.1429407  91.8576180  64.7436905
 102.3411929  91.8693446  65.6800652 101.5491568  92.5973271  64.6153069
  85.4238099  47.6397876   1.1097674  86.3521069  47.6559768   1.3426547
  85.4170531  47.5122110   0.1611380  32.8963977  93.0872571  75.8056402
  32.3468667  92.5647246  76.3897753  33.2839376  92.4489771  75.2067757
  20.6482059  87.8446423  86.4239120  21.1215955  87.6892649  87.2412205
  20.7963639  87.0527278  85.9070396 115.9602612  34.6676074   3.3551840
 116.1307496  35.5227958   3.7499289 115.4548711  34.8643456   2.5664477
   9.3386775 109.8602064  70.8288717   9.0257150 109.1677299  71.4109039
   9.1150838 110.6731795  71.2819815  20.1901942  93.6269306  86.5970135
  19.3720847  94.1200434  86.6583920  20.7555371  94.1685056  86.0462666
  24.6633608  14.2455386   6.5358691  25.2579481  14.1221332   7.2757773
  23.9692385  14.8090267   6.8777899  17.9292041  98.0409216  88.9830589
  17.1042853  98.3604931  88.6175346  18.2271558  97.3789798  88.3591270
   7.1525317  84.3547713  84.1668224   6.8614226  83.8980161  84.9560452
   6.6669637  85.1796304  84.1746140  34.1849995  22.4328208  75.9732819
  34.9712992  22.3793101  75.4300499  34.1497898  21.5908742  76.4272833
  97.0038319  16.2627900  79.8836327  96.0807228  16.2099326  79.6360207
  97.4210739  15.5450213  79.4072390  93.1190938  65.3542970  10.9069781
  92.5966329  64.5809518  11.1195902  92.8025741  66.0295556  11.5070395
  83.3638495  40.7225250   3.0664114  82.8353757  39.9476467   2.8753333
  83.0967444  40.9832035   3.9478449  92.6175898  36.7983256   6.5933280
  92.7173013  36.8165062   7.5451521  92.4203032  37.7043627   6.3558249
  62.5973225  13.0480397  74.8494625  62.5665951  12.9551542  73.8972759
  62.8821945  12.1903121  75.1647139  52.1828270  17.7055132  75.0121450
  52.7990723  17.5607491  74.2941475  51.6481876  16.9118047  75.0326061
  44.5833474 104.5336776  92.0043182  44.8233872 105.3936922  91.6593647
  43.6291104 104.5054310  91.9344997  60.1659393   1.9098563  77.2246599
  59.4790125   1.4714831  77.7268457  59.8180914   2.7856877  77.0568657
  29.4747621  96.5243923  79.7430897  29.3783933  96.0973703  80.5943203
  28.5817844  96.5871047  79.4041300  94.6428031  63.0980532   3.1938128
  94.4520396  63.9816044   2.8788809  94.9432677  63.2242446   4.0938334
  21.0065633  81.1069666  91.4254379  20.1281434  81.4464818  91.2541580
  21.3301974  80.8356773  90.5664349   8.8095456 107.2578024  72.4106598
   8.0344611 106.7010059  72.4845219   8.9451915 107.5980397  73.2950068
  23.6640912  72.5901448  62.8507471  23.5519343  71.6947614  62.5314665
  24.0510064  73.0609428  62.1125889 100.1636142  67.3173295  12.2896246
 100.8965367  67.4789463  11.6955428  99.3841618  67.4539219  11.7510752
  49.7031975   1.0795692  76.1906433  49.0211010   1.7511147  76.1928654
  50.5174112   1.5656111  76.0600567  65.8417577  55.0646394   8.9025931
  66.6118282  55.0475829   8.3343176  65.3021616  54.3356010   8.5966925
  59.0791130  36.0710216  80.8391190  58.7469769  35.7888651  79.9868870
  58.5341549  35.6064916  81.4743137  97.2902489  14.9328613  82.3053551
  97.0083809  15.3685355  81.5010071  98.2268810  14.7806418  82.1796989
  72.7740860  44.0445805  79.8653030  73.5965633  43.6570692  79.5659733
  72.0956469  43.5574102  79.3977356  91.7761201  70.2101694   4.7254900
  91.2100095  69.6570097   5.2637915  91.4691991  71.1013053   4.8925547
  23.6850911  88.1146657  72.5680399  23.8637191  87.4516737  73.2349443
  23.8983136  87.6847874  71.7398071  55.2593022 104.2515426  71.4245510
  55.2571374 103.8880848  70.5390406  55.8150846 103.6555814  71.9267082
  53.8420248  24.4880867  79.6483374  54.0470552  24.8983884  80.4884815
  54.3117523  23.6543012  79.6680164  80.0324345  40.4387474  92.4994946
  80.8800316  40.6269932  92.0965481  79.8028708  39.5667863  92.1782207
  77.3317146   5.4175687  82.0076275  76.8665123   5.2216035  81.1943531
  76.6381788   5.5717826  82.6490784 103.2688332   8.9659637  82.6960468
 103.6028767   9.7338665  83.1596947 103.9023304   8.2749814  82.8895760
  31.0434466  63.5169183  67.9078436  31.8591767  63.7247335  68.3635139
  31.2182408  63.7349903  66.9923544 107.4222565   3.2293805  53.7105513
 106.5896702   2.9129404  54.0611172 107.7214050   2.5270501  53.1330824
  93.6889523  85.5470215   4.9674563  93.5757035  84.8821245   5.6466631
  94.5081300  85.9861050   5.1963381   9.2657602  11.6377389  61.9574690
   8.9103311  11.7845702  61.0809183   8.8301528  10.8417833  62.2623205
  46.4746523   5.2597320  89.6843052  46.0359907   5.5809003  88.8964844
  45.8041191   4.7525603  90.1419067 109.1142863   8.4664641   5.5530219
 109.0647191   7.5826274   5.1888613 109.5807904   8.3582125   6.3818125
  41.8973714  92.6386510  81.1320496  41.8394166  92.2541737  82.0067215
  42.0588285  93.5688983  81.2895489  29.8584808  59.6461461  13.3657031
  29.2020381  60.0947131  13.8987212  29.7256816  58.7170742  13.5539107
  66.2111455  99.9348139  93.0667973  65.5284387  99.3230330  92.7913475
  65.7501393 100.5857687  93.5959148  16.8286544 100.5922525  86.5136528
  16.2974292  99.9227010  86.9446087  17.1195823 101.1620932  87.2255993
  46.9614744  26.7355299  91.2149239  47.5654888  26.5583587  90.4938126
  47.4264860  27.3631763  91.7681503  38.1210184  29.4400501  94.1197300
  37.6285648  29.1446638  94.8855495  37.6700449  29.0401697  93.3761311
  59.7086000  18.6936510  77.2002363  60.1264048  18.2872629  77.9595232
  59.3518019  17.9587984  76.7013168  87.5538415  63.6613463  13.7106089
  87.6635188  64.6076225  13.8042311  86.9833630  63.4132181  14.4380812
  70.2697653  71.7295287  13.9996199  70.0502843  72.6587628  13.9319090
  70.0796670  71.3746320  13.1312041  18.9892798  58.1254732  78.1940174
  19.7263700  57.6187765  77.8531504  18.7950593  58.7596761  77.5038767
 103.4313125  92.3865472  13.8371329 103.3962602  92.9028831  14.6423678
 104.2786712  92.6050173  13.4492163 106.5717685  99.3386566  94.6898270
 106.1181533 100.1093816  94.3485832 106.2434518  99.2438399  95.5839539
  61.2629414   2.0857762  39.3067765  61.8038368   1.8673159  40.0656843
  61.6112995   1.5423596  38.5999680 100.6800257  89.2548000  79.9716902
 100.0905191  88.5302412  80.1807976 100.2462732  89.7171413  79.2545176
  86.1753559  29.8587918  59.1259289  87.0030499  30.3371072  59.0773582
  86.3676071  29.0069890  58.7338734  64.0160275   9.4137454  68.9975500
  63.4882402  10.0994515  68.5883045  63.9267159   8.6614674  68.4124565
  65.4006100   7.7289671  88.7985897  66.2051678   7.3443252  88.4507942
  64.8560381   7.8838205  88.0267811  73.6427766 106.3990529  85.5653858
  73.4226209 107.1272077  84.9843979  73.0927449 106.5336685  86.3371277
  62.2765541  35.9223413  77.7083874  63.2195520  35.7917976  77.8080940
  62.1607780  36.1348820  76.7822886  80.5931664  33.8437772  78.1517887
  80.1310635  33.3297491  78.8139534  79.9765110  33.9042902  77.4221945
  89.4227028  35.0986552  60.0837803  90.0934982  34.6375179  60.5873871
  88.6640358  34.5153832  60.1049900 101.9373608  29.1981363  66.8298817
 101.5007687  28.3469605  66.7963696 102.8587151  29.0015721  66.6604662
  45.4134989   7.1645218  66.6969967  45.8250904   6.3312268  66.9260073
  44.9120712   6.9740957  65.9041929  65.1308203  26.5008616  64.5264912
  66.0872412  26.5306950  64.5509529  64.9259186  26.0620570  63.7008381
  74.8973054  25.6122051  13.4572939  75.0837249  24.6808134  13.5755782
  74.5522350  25.6761895  12.5667529  66.7366838  16.5950012  55.0952387
  67.0761681  16.5825808  54.2003441  65.8784437  17.0121336  55.0200558
 107.0229453  60.2301846   5.4088549 106.6827268  60.9582822   4.8888926
 107.5170058  60.6493388   6.1134390  73.6971635  52.1863823   6.2390093
  73.0846685  51.4516623   6.2033991  73.1726831  52.9201113   6.5596251
  33.1926900 105.5470367  65.7830906  33.1249982 104.6267514  65.5286837
  33.0239135 105.5481004  66.7252970  42.7823907 109.3944738  81.2660694
  42.9882222 109.1786024  80.3565311  41.9475728 109.8603703  81.2186337
  75.9431410  19.2488563  41.1103153  76.7553186  19.2532718  41.6168547
  76.0784101  19.9136341  40.4350328  31.2351066 105.7176497  58.2676029
  31.4238721 105.9849023  57.3680639  30.3972560 106.1337735  58.4702778
  73.2910246  59.8885916   4.4208579  73.6700910  60.7630764   4.5092730
  73.8320154  59.4589023   3.7583403  87.1071339  13.5861504  63.9748669
  86.9849586  14.5290244  64.0857458  87.8163147  13.3639526  64.5781326
  51.7844254  46.8400143  36.5823512  52.0638210  47.3982547  37.3079829
  52.2646409  46.0220139  36.7108111  55.7252884  14.7578514  63.1187057
  56.4690351  15.3587389  63.0738783  54.9820566  15.3137183  63.3528996
 105.2852315  77.9740988  13.4752326 105.8900708  78.6844168  13.6893610
 104.8202390  78.2818185  12.6972060  71.0870838  21.2581110  83.6497116
  71.2227106  22.1231985  84.0363121  70.1418638  21.2043333  83.5086346
  56.6340399   2.6037753  68.0601025  57.2195959   3.2925850  68.3745813
  56.6676426   2.6778150  67.1063614  32.3562652  62.4970066  79.1618490
  31.9001132  62.4860298  80.0032902  32.2876865  63.4041082  78.8640404
  85.9769821  12.0262814  74.7971869  85.4621410  12.2942722  75.5583382
  86.1023998  11.0843587  74.9124527 116.4203710  47.2926365   1.5431361
 116.2662667  47.4551408   0.6125025 116.9734830  46.5116368   1.5615229
  86.1616707  25.0603414  70.1845646  86.8997765  24.5106363  70.4477406
  86.1121178  24.9559474  69.2343664  41.1153108 103.0914985  79.3629837
  41.7766839 103.6796170  78.9983797  40.9992009 103.3912157  80.2646065
  49.9934530  36.9592357  95.2344322  50.4563808  36.5552473  94.5004559
  50.3680897  36.5443397  96.0114384  35.3702116  26.8279934  77.7595901
  35.3439927  27.0100117  78.6989594  35.7526660  25.9528422  77.6957846
  61.7666388  12.5843823  89.0209103  62.1125507  12.6736450  89.9089432
  61.8759584  11.6563535  88.8134384  61.4249897  43.8923740  66.9666481
  60.9027958  44.0509129  66.1802578  61.7651701  43.0048656  66.8533659
  59.1097498  28.4199166  80.3446102  58.2124281  28.5386014  80.6559849
  59.0653753  28.6108446  79.4076920 112.0740306 108.9397713  80.9330845
 111.2299716 109.2314356  81.2776566 111.9076549 108.7670099  80.0064182
  46.5590382  15.4766810  65.3057861  45.9744835  14.8386991  64.8965168
  46.4870167  16.2557673  64.7543621 108.7999069 103.8586759  89.5096302
 108.5995638 103.6526006  88.5965919 109.6855389 104.2209779  89.4846153
  15.5577529  61.1008297   8.5265402  15.5168880  61.7879413   7.8613810
  14.7710288  60.5762856   8.3776812  92.5796908  55.2196971  20.0874476
  93.0183476  55.8616593  20.6457381  92.5201911  55.6465350  19.2327456
  35.7015610  25.7535362  94.1373062  34.9911857  26.3105536  93.8189793
  36.4546323  26.3405967  94.2042065  75.5707473  71.8921469   8.3737902
  75.8778495  71.8534599   7.4680190  76.2748116  71.4903317   8.8827757
  87.6035500  23.4151554  82.8438377  86.9718742  23.9574313  83.3162308
  87.1417236  22.5916696  82.6862812 105.4779452  44.9462305  19.2816214
 104.9076814  44.3768190  18.7650923 105.2134293  45.8336483  19.0392355
  53.5867596  31.5409112  64.2631721  53.4491920  32.2732091  63.6623001
  53.8185740  31.9539189  65.0949907  44.1238481 109.8954199  88.1599903
  43.6144715 109.7153943  87.3698235  44.9613362 109.4567845  88.0101967
 101.0687274  71.4173971  36.2050681 100.8023518  72.3248397  36.0573344
 100.4484719  71.0886107  36.8557696  66.6017437  51.9014311  84.8392677
  66.1797285  52.5588179  85.3924179  67.2081375  51.4487410  85.4254341
  81.5320110  17.2031665  74.3068933  81.5426350  16.2484372  74.3747950
  82.3536968  17.4211586  73.8669586  27.1776467  86.2995755  36.7871380
  27.8310948  86.1255776  36.1096716  27.3246366  85.6175672  37.4424934
  94.0140057  47.1126604  64.2793989  93.6773777  47.3894644  63.4271717
  94.3775368  47.9103088  64.6638918  79.7699547  37.7964354  65.2202654
  79.3853712  36.9455791  65.4309034  79.3212700  38.0706811  64.4204473
  11.9275439  82.0615493   5.5250601  12.6147330  82.3933874   4.9472289
  11.8549884  81.1334096   5.3025202  78.8251060  31.1015282   9.3078761
  78.7473768  30.9460412   8.3665900  78.1994480  31.8034111   9.4871668
  77.3849058  19.6189749  93.1354141  77.9189920  19.0735340  93.7128830
  76.9821119  20.2623177  93.7185860 116.5399933  21.9053674  66.8638706
 116.7827225  22.8312469  66.8715811 116.0666943  21.7749929  67.6855946
   8.8594497  75.1109896  12.0334582   9.2761386  74.2596589  12.1669917
   7.9209865  74.9228917  12.0458560  22.6301795  92.8965949  84.6549892
  22.8301698  93.5201191  83.9568138  21.7298013  92.6224588  84.4806290
  70.8370972  17.9195940  91.6551590  70.7022142  18.8567698  91.7956543
  71.6765642  17.8642344  91.1985683  46.7390442  19.5671248  94.7049141
  46.0822439  19.3858016  95.3771973  46.7972326  18.7549603  94.2016983
  66.1106491  20.4081821  56.7939568  66.9646740  20.4479480  56.3635063
  66.2486744  20.8344889  57.6397943  79.1320086  44.1458654  89.7174931
  78.6469507  43.3604670  89.9706745  78.8148546  44.8254013  90.3123760
  16.3394385 104.8348211  70.9260702  15.8782846 103.9996212  71.0036087
  16.3343936 105.1944565  71.8131256  70.3689861  16.5818620  60.7424974
  69.9430847  17.4029744  60.4963017  71.3055134  16.7715657  60.6862831
  35.4326785  65.6216477  19.2173056  36.0209430  65.4874895  19.9603896
  35.6339896  66.5051673  18.9089255  60.6262779  31.5703750  56.5813684
  59.9781942  31.9704461  56.0015726  60.6434631  32.1398687  57.3505306
  97.9807300  67.7814017   9.8924784  97.8754157  68.6986206   9.6397929
  97.1184749  67.5218771  10.2171187  18.5791284  93.0729519  70.5476379
  19.5143205  92.8707181  70.5203104  18.4353190  93.6435913  69.7927046
  11.3435298  97.6803397  75.3022337  11.2500793  97.4137699  76.2168074
  10.7708055  98.4423327  75.2151394  89.8426914   5.3585708  92.2915459
  90.0283909   5.8301967  93.1035328  90.7003117   5.0663769  91.9827747
  55.7013845  33.9608598  93.2768631  55.0893974  34.6071792  92.9247665
  56.4691210  34.4722748  93.5323524  63.0309772  21.1666989  47.1910524
  63.4772158  20.5541086  46.6063833  62.5867701  21.7780709  46.6035700
  57.6467180   5.5021518  63.7291622  58.2063293   4.8300081  63.3402014
  58.2442188   6.0400844  64.2486429  26.6541177 106.2654220  70.9545612
  26.7198068 106.6840683  71.8128443  27.4514896 105.7408189  70.8823061
  70.0328112  20.2943516  92.7498913  70.0847578  20.5919218  93.6581802
  70.3908634  21.0204077  92.2391415  47.7075481   5.4314905  85.3082752
  48.2849312   5.7259911  84.6039009  48.2555342   4.8566583  85.8426094
  94.2890042  66.9982885  29.0104250  93.7031621  67.5518034  29.5268015
  94.6572036  66.3826047  29.6441416  58.5206461  35.8993363  58.4500217
  58.0212307  35.3850341  57.8157473  59.4168854  35.5727100  58.3706427
 110.2302665  56.1797012  17.0188097 110.8434695  56.5377945  16.3769488
 110.7713241  55.6313656  17.5869708  74.5931625  21.2368512  91.4208412
  74.0799522  20.5880857  90.9392357  75.4856634  20.8910370  91.4116478
   5.6334096  90.1113378  76.3245201   6.3590413  90.5606638  75.8911610
   6.0026580  89.2732297  76.6028404  41.2087584   8.1747454  74.6852922
  41.4633369   7.3753089  75.1460791  40.2953672   8.3146143  74.9350548
  29.9596721  91.1695479  85.5903530  30.5634433  90.4934477  85.2828121
  29.9742013  91.0878538  86.5439510  73.5577393  10.7999277  56.2518740
  72.6295757  10.5848467  56.3439989  73.8645649  10.9263444  57.1497107
  21.4915145  79.2193280   3.3640818  21.3393939  78.3815180   2.9268507
  20.6150115  79.5466767   3.5661273  31.6892076  32.6631689  87.7832508
  32.3710704  33.3069181  87.9753017  31.7060351  32.5734735  86.8304157
  63.2824278  29.4397521  87.7409554  63.7775612  30.1331878  88.1770992
  63.8637304  28.6796236  87.7639294  95.9498137 104.1904507   1.0398154
  95.8149451 104.9853049   0.5238204  95.2068681 103.6302148   0.8153014
  95.4005432  14.9465299  76.0678148  94.7067833  15.2801597  75.4989290
  95.6087208  15.6797004  76.6469097  77.9171181  32.4572802  58.5522890
  77.3455715  32.0421576  57.9063511  78.3728266  33.1426215  58.0635452
  86.3721371  38.5941172  84.9035358  85.9826374  37.7311277  84.7629356
  86.3636494  38.7087893  85.8538055  64.2149115  16.8559718  92.1290779
  64.7362518  17.5311172  92.5633812  64.8289204  16.1363697  91.9827938
   6.4232219  48.6475716   1.4278655   6.1317790  49.5079915   1.1262469
   6.1388934  48.0441622   0.7413630 105.7058877  81.7842756   4.9676756
 106.1013621  82.2640835   4.2399268 105.1063556  82.4121557   5.3708701
  87.6337814  18.9566600  88.9391327  88.0919456  18.8143992  89.7674370
  87.4544334  19.8967695  88.9230251  38.7261772  32.3721004  94.4899654
  39.5131540  32.0915937  94.9570942  38.3446360  31.5607452  94.1547585
  68.6810684  32.0910454  94.2649460  68.3021545  31.5334558  93.5854244
  68.4340763  32.9801369  94.0105057  78.6800814  23.1999254  66.1884022
  78.0056047  23.7509346  65.7912874  78.4528780  23.1756520  67.1179295
 116.6858596  54.0187032   2.4239211 117.0736808  54.8883048   2.5220065
 115.7416839  54.1722777   2.4582152  56.9794416  10.9520149  69.0101051
  57.0168734  11.9015062  69.1254139  57.1603966  10.8163798  68.0800009
  11.8997253  75.4308759   3.0812888  12.4909652  74.7391604   2.7843050
  12.4062026  76.2371980   2.9835181   4.0490497  51.6243963   7.5537257
   3.4956134  51.7335431   6.7804102   3.7060989  52.2570233   8.1849150
  57.8422546  30.1872516  55.8685637  56.9535589  29.9027991  55.6551695
  58.4022856  29.4748068  55.5603075  69.0335608  31.0644555  81.7279625
  69.0559340  31.9246101  81.3085938  69.2855835  31.2339306  82.6356983
 114.2438602  26.9996858  65.6306648 114.3686485  27.3729777  66.5031958
 114.0312290  27.7509379  65.0769138  57.2111034   7.5263590  73.3324575
  57.9138613   8.0896521  73.6565971  56.9274950   7.9417998  72.5180817
  98.9723873  28.4122610  65.4733944  99.3675423  29.2771745  65.5829763
  99.3283558  28.0894423  64.6455622   0.2264465  26.0064183  34.4071536
   0.6084169  26.5655433  35.0836901   0.3880370  25.1143490  34.7142939
  62.8967524  18.7687111  61.6134214  61.9483232  18.8826668  61.5523767
  63.2228947  19.6229339  61.8965626 103.2410908  32.6578999  82.1258068
 102.3000813  32.8252625  82.0735645 103.3087349  31.7146611  82.2739983
 114.7605103  65.5666695  15.2227644 115.6129855  65.9348760  15.4550318
 114.7414035  65.5917214  14.2660861  36.6101313  14.2720950  48.9636660
  37.2600484  14.1801596  48.2669687  36.6058445  13.4206975  49.4010878
  61.7737627  44.3386412  88.8716221  61.9175625  43.3925390  88.8928509
  60.8627462  44.4362783  88.5945988   5.0384278  22.4916530  65.8828115
   4.1442627  22.2569370  65.6346083   4.9452538  23.3129883  66.3654709
  46.5592337   4.5483494  42.8489923  46.0802794   3.8545850  43.3023453
  45.8778286   5.0825238  42.4408531 106.1408138  32.3477292  76.8025684
 105.6665421  32.5232935  75.9898710 105.7735157  32.9674292  77.4328852
  88.3840179  18.5005915  48.0449820  88.5479069  17.6333034  47.6745939
  89.1405964  19.0222478  47.7772236  78.3328038 106.2526037  59.5154476
  78.9226323 106.3213249  58.7647057  77.9984265 107.1408903  59.6394300
  47.4641114 108.6283504  69.2873669  47.7603704 109.5385495  69.2876530
  47.2816354 108.4361494  68.3675909 107.4209851  74.0400337  12.6225142
 108.3651942  74.0376280  12.4653582 107.2931546  73.4003971  13.3230547
  16.4877587 106.1313482  54.2264938  17.3483449 106.4711239  54.4718027
  16.5868932 105.1799541  54.2618990  17.9140342  85.8877049   9.8076968
  18.5823692  85.3669582   9.3622927  17.3633731  86.2254034   9.1013293
   8.2489551  29.6003161   2.0451025   8.1178916  28.9289103   1.3755755
   8.9055789  29.2271648   2.6331858  96.2539309  94.7431360   4.1021971
  96.6920585  93.9943324   3.6977629  96.8605203  95.4726706   3.9754729
  76.6212654  33.9593911  67.3077345  77.4356222  34.4209838  67.5077009
  76.2653065  33.7200141  68.1634331  37.2832233  75.7437336  65.1855564
  37.9194623  76.2813937  65.6571007  36.4339286  76.0210191  65.5291271
  67.1598864   8.6380035  39.5471883  67.4288082   8.1186634  38.7894297
  67.0782900   8.0012411  40.2571917  99.2437458  21.2166548  63.9765549
  98.3048153  21.1997056  63.7911844  99.3014336  21.4692092  64.8980331
  86.2921810  21.2085032  92.2052288  86.0378456  20.2925181  92.3171043
  86.6432381  21.2526870  91.3158321  60.6864738  14.6855080  88.0068016
  61.0841417  13.9158964  88.4139729  59.9223661  14.3431628  87.5429440
  87.1281528  19.1581380  59.9191380  88.0755424  19.2261243  59.8005867
  86.7663383  19.8391974  59.3521452   9.0634311  67.2825049  12.8582148
   9.4070972  67.9971944  13.3942561   9.6413387  66.5429304  13.0460696
  34.6591979 101.4003032  68.2415867  34.1790992 100.5818533  68.3676004
  34.0702754 102.0772158  68.5750437  69.0725851   9.7064590  70.8944273
  69.5504045  10.1007760  70.1647472  68.7887859  10.4508591  71.4250517
  47.0075399  97.0348882  77.9144573  47.6266461  96.3090323  77.8365278
  47.5587541  97.8075885  78.0382872  60.4592371  39.1810179  72.7062416
  60.5501127  38.4562802  72.0875883  61.1498833  39.0325904  73.3521557
  84.5502186  39.8988891  93.0843353  85.2501965  39.2874098  93.3131695
  83.9059353  39.7985339  93.7850857 101.9315338  34.3742466  72.0102882
 101.9278717  35.3256798  72.1151304 101.6690540  34.2324996  71.1007595
  66.4465141  36.3092709  71.1160707  65.7027483  35.9460449  71.5968084
  67.0393705  36.6275191  71.7968559  14.4689417  31.6538978  57.3058653
  14.1010392  32.1854854  56.5999651  15.1457953  31.1269736  56.8810701
  88.8846397  50.9144688  75.4069901  88.6427593  50.3074408  74.7075319
  89.2803955  50.3598070  76.0792685 104.6078605  37.9412065   7.4965624
 105.2264327  37.3979710   7.9849200 104.3609590  37.4048243   6.7431883
  95.3822517  24.4346523  61.9944811  96.0469246  24.1571403  61.3640642
  95.0329208  25.2485776  61.6315413  78.6711740  29.6707988  81.8687344
  78.2374334  29.3185496  81.0915470  79.5464706  29.2838097  81.8506241
  99.0661258  67.3232649   2.5273375  98.4860486  66.5652071   2.4559645
  99.0377253  67.5601588   3.4543185  65.4733276  13.5131311  78.1285048
  65.7719374  14.2034554  78.7205458  64.9441576  13.9704156  77.4749708
  37.2272426  99.7899901  51.6462421  37.1140271  98.9394878  52.0705748
  38.0738860 100.1048504  51.9629288  87.5761384  76.3519440  16.9887881
  87.1239871  77.1943317  17.0354609  88.4376687  76.5621744  16.6285185
  11.4799655  47.9348861   7.8323798  11.5425742  48.1081436   8.7716822
  11.2308753  48.7761746   7.4497370  13.7009555 109.9990599  74.5420218
  13.9869100 110.5825706  75.2448606  14.4924193 109.8364478  74.0288210
  35.1046610  26.8277168  90.5466080  34.2574644  26.6826987  90.9678745
  35.1380038  26.1769795  89.8454285  31.9160676  15.4501522  56.8868589
  32.2822523  14.7451389  57.4208069  31.0657120  15.1167941  56.6005087
  54.7349882  34.1496301  54.7843075  55.1180696  33.2863927  54.6284294
  55.1405096  34.7140265  54.1260958  67.6009417  10.6839621  89.5456219
  67.8150272  11.1197770  90.3705215  68.1993675  11.0721326  88.9073086
  61.5948468 103.0167758  71.5048838  60.8883744 103.4359311  71.9962454
  61.2075883 102.8158968  70.6528759  10.0619186 102.9409753   7.8712229
  11.0170234 102.8958474   7.8269724   9.7617877 102.3183404   7.2090392
  67.8631592  12.7713656  82.4476814  67.4900198  12.4284792  83.2597351
  68.6889696  13.1747675  82.7151585  66.6713238  22.4909902  36.3889980
  67.3052406  22.2247052  37.0549321  66.2025213  21.6859460  36.1690831
  53.2292271  17.8243983  91.6133308  53.0252790  18.1304586  92.4970531
  53.4006119  16.8884575  91.7176056  21.2322772  95.2705632  21.0959010
  21.8803275  95.4582225  20.4168944  20.9751285  94.3623267  20.9371047
  67.3468637  38.8993716  66.8968487  66.7592335  38.4340501  67.4921656
  68.2074070  38.8352847  67.3110819  63.4275502  36.1363374   4.5708994
  63.2170385  35.2060912   4.4899039  64.0562695  36.3016818   3.8683276
  69.2417669  23.2879686  80.6682014  69.6260357  22.8293276  79.9210691
  69.2140913  22.6311994  81.3639927 108.2856959  99.9629412   2.9174380
 108.2727355  99.1835795   2.3618655 109.0579194  99.8492966   3.4715037
  97.4396324  12.6665020  64.2153168  96.8873310  12.0160365  64.6490049
  96.8456459  13.1293106  63.6243725 101.6210765  70.7290231   3.4792189
 101.2098187  71.1063503   2.7015738 101.1920995  69.8804222   3.5891394
  52.6254463  32.0965028  82.0535183  52.2985315  31.7555833  81.2209702
  52.8213024  33.0163479  81.8753147  68.9262342  23.0747795  84.3438911
  69.7322750  23.3451796  84.7836781  68.2564974  23.6669326  84.6859932
 100.7744586 102.0685475  87.4655819 101.5960109 101.8116277  87.0469284
 100.1278674 101.4514284  87.1230698  25.6608659  89.9408614  70.7038689
  25.8296329  90.6542002  70.0883245  25.3322154  89.2263781  70.1582193
  34.1496926 103.4687047  88.1873131  34.1140538 102.8492891  88.9162064
  35.0656253 103.4591471  87.9094410 106.0279101  76.8992601  10.2618365
 105.3286237  76.4766179   9.7632365 105.5728930  77.3740040  10.9573988
  69.9631453  49.0232420  70.8448458  70.9020185  48.9020872  70.7031584
  69.9031878  49.7992039  71.4020920 116.7081082   2.8360938  10.0448756
 115.9473884   2.4968862  10.5165438 117.0027650   3.5805702  10.5694346
 101.8904418  67.9185401   7.2549204 102.7383250  68.3623431   7.2357611
 102.0856589  67.0434700   7.5901465   2.7012408  68.5923777  56.4542441
   1.8508542  68.8150845  56.0754542   3.3305133  69.1080819  55.9499602
  43.2842398  45.0517845  84.5500374  42.8971863  45.3949165  83.7446308
  43.5500908  44.1597319  84.3268871  53.2794619   6.2525421  57.1676540
  53.9352894   6.5447670  57.8006792  53.7884426   5.9781212  56.4048529
  47.8071195 104.6232825  75.3560495  46.8792707 104.7178846  75.1406860
  48.2418519 104.5332008  74.5080376  99.1183537  26.8046175   9.6701769
  98.7877578  27.4318562   9.0271334  99.1624850  27.3005114  10.4877142
 114.2382926  68.5759638  18.2155089 113.6498374  69.1199110  18.7390284
 113.6558503  68.0676244  17.6510767  48.2512951  13.4190273  70.1605892
  47.4943542  12.8625405  70.3438807  47.9823828  13.9498270  69.4108057
  60.7917166  19.2374706  72.1395540  60.9131289  18.5593903  72.8041553
  60.2696371  19.9103427  72.5764847  75.2035379   8.3100361  51.2477589
  74.9804926   7.7028477  51.9533110  74.3582487   8.6152256  50.9182453
  81.8917847  29.5575666  84.3697548  82.8306770  29.7051430  84.2560673
  81.5368557  30.4219818  84.5772362  93.2681561  33.2967448  92.3171520
  92.9461193  32.8542590  93.1024742  93.7208748  32.6118755  91.8249798
  68.7075043  19.8261380  74.1585636  69.4412327  20.3752041  74.4349623
  68.4199429  19.3892968  74.9602556 100.6540221  51.3801716   7.3358016
 101.0305137  51.7633183   8.1280665  99.8568982  51.8867521   7.1802382
   5.3792363  99.1616844  67.8422213   4.9892932  98.2886349  67.7979422
   5.9609157  99.1259681  68.6015654  53.0213499   9.1599715  77.8003311
  52.5978708   8.6248934  78.4715891  53.3849335   9.9036336  78.2809639
   7.4220145  58.3860741  12.3817782   8.2893527  57.9855649  12.4412875
   7.0780147  58.0884217  11.5395789  75.0248194   5.9316558  83.7024593
  74.8489285   5.8711576  82.7635098  74.9763346   6.8679577  83.8953876
 108.3192479  60.9448635  90.8629036 107.9286348  61.5966665  91.4449692
 108.7649047  61.4604484  90.1907444  33.0131973  62.1873931  38.3818297
  33.1125129  63.1150178  38.1676249  32.1895946  61.9324057  37.9660277
  11.3914764  14.6187198  85.2366543  11.2131810  14.9526680  86.1158085
  10.8263326  13.8507056  85.1529980  34.5301324  87.9377996  62.3765230
  34.7179299  87.3717915  61.6277885  34.7105294  87.3911010  63.1412506
  20.2830058 104.5515304  94.9385452  21.0728961 104.5462715  95.4791737
  20.4821569 103.9540814  94.2177010 102.3781109  16.2527096  61.5863991
 103.3066750  16.0296607  61.5212107 102.3633289  17.2092056  61.6199780
  65.7739973  28.0380940  76.3906717  66.2384796  27.7207279  77.1651220
  65.3110313  28.8196015  76.6925716  59.7436047  44.2745495  93.9406395
  59.8405361  45.1140738  94.3901253  60.6150818  44.0877485  93.5915470
  77.4786568  45.1090384  67.1149206  77.4663305  45.8588409  66.5200424
  76.8656015  44.4849730  66.7264223  60.5423021  17.5549042  69.0067673
  61.3142776  17.6054227  69.5704460  59.8198223  17.3681235  69.6062374
  82.2890377  37.7667761  67.8854322  81.6292858  38.4000707  67.6027727
  83.0129433  38.3031750  68.2086515  76.8226624   1.5938769  53.1442213
  76.1937666   1.3443056  53.8213015  77.6783752   1.4200498  53.5363626
 116.6168612  86.2413512   3.0267481 116.8635768  85.7298837   2.2561793
 116.7468470  87.1518455   2.7615408  30.2938682 101.8525474  68.1300068
  31.0452396 101.5119987  67.6445198  30.4997903 101.6724341  69.0472794
  38.5080838  12.9462790  89.4175053  38.9099264  12.1514475  89.0667915
  38.5972071  13.5899091  88.7146378  37.7641738  61.6569559   5.9691576
  36.8609012  61.4007912   6.1554579  37.7539504  62.6134585   6.0042243
 110.4356736 109.0122424  16.3037734 110.4323787 109.5379077  17.1037154
 111.3226289 108.6556111  16.2551932  65.0501251  46.4119911  70.5399227
  65.6616592  45.7841063  70.1551962  64.1861391  46.1018324  70.2686977
  52.3975611  32.6243091  85.3699017  53.2727575  32.6069593  85.7571507
  51.8433666  33.0111766  86.0477161  13.8833202  64.4866089  29.3004279
  14.2259086  63.5959719  29.3754630  14.0101588  64.7152422  28.3796267
 100.8879203  74.0034161  18.3789305 101.7918033  74.2958735  18.4959845
 100.8152121  73.8190304  17.4424700 101.0428905  25.3936553  90.1099873
 101.1929321  24.7193050  90.7725430 100.9761715  26.2082601  90.6081867
 103.7432736  58.4422667  45.2195220 103.4396380  59.3222807  45.4422621
 103.3441323  58.2593121  44.3689589  87.7175331  33.5891795  49.4501448
  88.0611134  32.8191257  49.9031401  88.3480167  34.2826390  49.6446800
  54.5695877  13.1885195  75.7923317  55.3346395  12.8886974  76.2832832
  54.0802908  12.3887646  75.5994272  29.1405231  86.4852654  76.5329170
  28.8584357  86.2535106  77.4177599  28.5670978  85.9781968  75.9581995
  86.8996716  31.6448617  90.1927280  86.3323212  32.4031115  90.3320122
  86.3774014  31.0507226  89.6537781  17.3519260 108.5579889  69.1236305
  16.5915519 108.7679563  68.5814381  17.2428018 109.0959133  69.9078226
  68.2406521  17.7567005  69.9611568  67.7340698  17.1907473  69.3786621
  67.5815964  18.2638133  70.4351950  82.1050930  45.1347160  86.5281487
  81.2560463  44.6936321  86.5564346  82.0099926  45.8758974  87.1263409
  60.8309603  37.7272844  61.6559696  60.7827950  37.2784758  62.5000572
  60.8988667  38.6550450  61.8815374  53.7356186  26.4219785  68.5322428
  53.5978746  27.2306108  69.0255737  54.5549250  26.5667677  68.0589485
  36.8270284  89.5274698  84.3781662  36.9073039  89.3947159  85.3227043
  36.0814553  88.9843499  84.1224670  37.5093394 105.7961982  86.1281586
  36.6682035 105.5532773  85.7412434  38.0309754 106.1101901  85.3895569
  -0.1925140  16.2042689  81.9771862   0.3194660  16.5249932  82.7196407
   0.4151959  16.2302673  81.2381077  91.8616486  28.7709165  94.5967579
  91.3813114  28.3062005  93.9115238  92.1757412  28.0798340  95.1798344
  44.2931509  36.9809413  86.5697861  43.6536121  36.8185544  87.2632217
  45.0864077  37.2490668  87.0335579  78.9731932  32.2202134  26.9943643
  79.6600962  31.8437886  27.5445461  78.7292194  33.0325294  27.4380398
  88.8629836  75.6818543  23.5146479  88.8975305  76.5763007  23.1755309
  89.7430200  75.3355323  23.3669047 101.3955182  94.9220858  13.0397086
 101.9166297  94.8282824  13.8371329 100.6096095  94.4011102  13.2045130
  66.3300371   9.0790612  58.2763672  66.7132282   9.9051136  58.5713816
  66.4407253   9.0897137  57.3256445  22.0520431  98.0499064  88.6177444
  21.9707566  98.3478247  87.7117348  22.8516131  97.5237428  88.6260414
  61.5642738  24.4610000  57.3057270  61.1125660  24.3701911  58.1447411
  62.2715521  25.0818515  57.4804592  71.4405441  11.4337111  33.6626935
  71.2418842  10.9913278  32.8374290  70.8400488  12.1787679  33.6856604
  32.0966273  95.3287267  83.8774300  31.5923816  95.3569829  83.0643082
  32.9930097  95.1439737  83.5970879  75.7703590   1.3119102  92.6770115
  75.9702778   1.5520413  91.7722511  74.9792719   0.7767580  92.6135731
 116.0733509   0.9872598  76.9846582 115.5638790   0.8734415  76.1823368
 115.9917355   0.1498257  77.4410295  90.1222342  70.5664740  45.2467112
  90.5176228  70.3311251  44.4073634  89.2107457  70.2845763  45.1695303
  70.9941721  33.8956285  37.0137119  70.4518843  33.2878327  36.5109825
  70.4966545  34.0529799  37.8161764  96.3473797  14.3078792  92.6676273
  96.8020058  14.3992841  91.8302631  97.0483875  14.2775917  93.3187103
  79.9204731  29.5116067  91.6786957  80.5327129  28.8425231  91.3725567
  79.1100025  29.0329933  91.8527603  59.5893097   6.4828247  65.4759121
  60.2090454   7.1108389  65.1047516  60.1182604   5.9428853  66.0632038
  95.0635719   1.1843094  70.6964064  94.1565704   1.3892908  70.4693270
  95.3620720   1.9427299  71.1983204  84.3127155   8.9389390  81.0674858
  83.6779976   9.3893611  81.6246986  84.2728043   8.0250448  81.3493347
  70.0014830  25.8982801  44.7553635  70.1098728  25.1362395  45.3243780
  69.4289064  25.5924225  44.0519094  74.3046284  34.0349030  45.8852959
  73.6831856  34.7581744  45.8020830  75.1629114  34.4417143  45.7666063
  89.3638134   8.8445878  90.8717251  88.5976028   8.2720768  90.9090233
  89.7665882   8.7623131  91.7361546  80.9786415   0.4017077  78.8063765
  80.7339382   1.2115621  79.2541361  80.1605797   0.0816785  78.4261274
 103.8645572  62.2763400  16.2759451 103.6862773  61.5164046  15.7219176
 103.6144847  61.9950555  17.1560530  95.4597587  96.9452725   0.6860499
  94.9634713  96.2090550   1.0436968  94.7927922  97.5377713   0.3391604
 105.9818268   3.2930925  87.5163746 105.5328941   2.8425163  88.2316780
 106.8055534   3.5922933  87.9013157  70.4330158  32.3883820  61.3023615
  70.4362011  31.4374161  61.1933279  71.0629225  32.5510693  62.0044899
  37.1515203   1.8104681  66.1694002  36.4006758   1.9324861  65.5883932
  37.9128981   1.9899410  65.6177473  14.4859851 109.6803008   0.9838728
  15.0921310 110.0799905   0.3601222  14.3329299 108.8006078   0.6389956
 112.6530188  49.2473875   0.7166056 112.2212190  48.3984266   0.8117156
 112.0639676  49.8655067   1.1492495  21.9777900 104.7500627  70.2558947
  22.7065545 105.1335966  70.7437849  21.2204534 105.2828484  70.4984045
  74.6774817  39.5948839  85.5404282  73.8447094  40.0662851  85.5179787
  75.3150845  40.2183628  85.1926231  97.5661659  36.5315199  67.8594208
  97.1195126  37.2320080  67.3839808  96.9700432  35.7848454  67.8015518
  52.6448202   8.9662766  71.7849922  53.4664345   9.2797381  72.1630383
  52.7667618   8.0209273  71.6973782  99.8235226  17.3585474  72.6296425
  98.9580250  16.9656074  72.7425051 100.4004669  16.6177678  72.4435806
 104.5839280  98.4083472   0.1392607 105.1248092  99.1671286   0.3581862
 103.8251037  98.4800540   0.7182936 101.2727928  40.6153870  81.6966534
 100.6097507  40.6316280  82.3868275 101.9675350  40.0566483  82.0450592
  70.8537960  33.8948512  70.3551817  70.1239586  33.9486408  69.7381926
  71.4017582  33.1866884  70.0168371  91.4974213  18.7409866  51.0082006
  91.2285709  19.6591067  50.9764242  91.5717411  18.5453725  51.9422436
  87.8662300  61.6326094  88.0113125  87.8873444  61.7734623  87.0647621
  86.9370937  61.5307188  88.2176208 102.1720237  69.2071973  10.2954440
 102.4085540  69.7286652  11.0624938 102.6138944  69.6408938   9.5654540
  59.5442200  44.1619921  85.1060867  59.6472931  45.0483704  84.7597599
  59.8307323  44.2260075  86.0171604  96.0791302  40.8492756  80.6658554
  95.5058956  41.3107872  81.2779427  96.4551449  40.1357985  81.1814022
  21.5477145  93.8765703   0.6131701  20.7874358  93.4568249   1.0156874
  21.1750282  94.4994818  -0.0107809  86.0266399  47.3036146  49.8779535
  85.6849670  48.0848455  49.4430161  86.3676167  46.7627144  49.1656351
  10.8735336  77.2912107  26.0276942  10.8122028  76.8178139  25.1980166
  11.1764968  78.1655393  25.7827525  70.9829235  14.4907427  95.5778980
  70.8501959  14.8367286  94.6953392  71.8734837  14.7559345  95.8076954
  68.8937473  11.8789828  91.8089962  69.2888594  11.0121858  91.9026947
  69.6351480  12.4839675  91.8325043   6.0112346  85.7542358   3.2112460
   5.5450977  86.4472972   3.6788039   5.8652557  84.9691711   3.7390666
 109.0594882  93.1787954  19.1380648 109.7088927  93.8409172  18.9012103
 108.2781953  93.6813675  19.3687872  73.5434246   9.3674803  54.0257645
  73.4091425   9.8722816  54.8278713  74.3749809   9.6886265  53.6770391
   2.0681900  45.9851456  42.0117092   1.2473053  46.4748096  42.0628691
   1.8537850  45.2120543  41.4896059  17.8017963  73.4707557  19.0713076
  18.2507194  74.0509115  18.4563879  16.8963111  73.4481655  18.7617640
  72.1044874  18.5101962  49.6621895  71.2026548  18.2750475  49.4439316
  72.0265388  19.0613103  50.4409266 108.9345646  44.7810745  63.5692024
 109.6998596  45.2388096  63.9170837 108.1888294  45.2018547  63.9970636
  91.4190292  44.4735289  66.9020987  92.2516155  44.0168047  67.0222569
  90.9033108  44.2382956  67.6734209  73.4689236  25.6452107  82.6203537
  73.0125904  26.3994193  82.2473049  73.0873394  24.8894548  82.1737480
  16.4948524  88.4829222  28.1093077  15.9764064  87.8233348  28.5701613
  16.4502872  88.2226859  27.1892409  96.5986061  12.4392593  90.4834557
  96.6556358  11.7512524  89.8204136  96.4232540  13.2377601  89.9855804
 113.5423058 107.6684342   7.1924834 114.4532985 107.4448787   7.3831419
 113.4125537 107.3916064   6.2854247  90.3131676  50.2667904  47.1538877
  90.9420681  50.8797693  46.7731190  89.6553707  50.8251238  47.5683641
   5.5850948  77.7846657   3.2621340   5.6560100  78.7016831   3.5272460
   4.8837436  77.4307833   3.8090472  67.1634388  32.0046306  89.9793530
  66.2135839  31.9595385  89.8699188  67.3663139  31.3059020  90.6013298
  82.9937840  46.7655468  74.9308538  83.4039021  46.3078737  75.6647253
  83.0097866  47.6882648  75.1849508  91.8653363  97.4397574  22.1929125
  91.6630477  97.1230708  23.0732588  91.8161506  98.3930360  22.2641139
  24.6727067 108.2446158  85.7623672  25.3240329 107.6742347  86.1706257
  24.4363338 108.8681545  86.4490700  99.2309970  88.3476220   5.1572852
  99.2919415  89.1959344   5.5964713  98.3651990  88.0162011   5.3955798
  68.8095379  53.0710602  69.1085148  69.2927885  52.4048567  68.6197710
  68.3659887  53.5872412  68.4354258 109.3913096  98.3494054  26.2917857
 110.0642604  97.8659402  25.8125834 109.8802489  98.8846455  26.9168334
  62.6292896  25.9181476  83.7019634  63.3307028  25.6842709  83.0940533
  62.1162510  26.5767837  83.2337475  28.1302053  80.0556146  89.6713543
  27.2065002  79.8066699  89.6392822  28.4697944  79.6160423  90.4509068
  98.7501049  11.0629702  37.7708697  98.3707619  10.4145133  38.3640289
  98.4053612  10.8297276  36.9089055   2.7428687 109.3721591   1.4816145
   3.5877956 109.5764838   1.8823390   2.5273669 108.4989320   1.8091254
  51.9342691 105.2936088  59.1371870  52.1736699 105.4968931  60.0413990
  52.7540666 105.3710963  58.6491728 110.9987259  71.3889790  55.5355835
 111.6657352  71.9101620  55.0887251 111.4851284  70.6655550  55.9309340
  92.1940613  21.2624097  93.0421829  92.5154686  20.3653574  93.1329060
  91.2456989  21.1890173  93.1491852  35.5931074  31.9503736   8.0004839
  35.4615624  31.1210489   8.4599928  35.5072672  31.7269182   7.0737032
  61.8926681 108.9907847   0.2212576  62.4225772 109.5066844   0.8289389
  61.1163963 109.5284186   0.0644736  20.7837242  19.3108642  74.6071863
  20.5285305  19.6059978  75.4812574  21.0179180  20.1140237  74.1420841
  76.2010193  68.8151550  70.4529047  75.6611156  68.5016918  69.7273159
  77.0403194  68.3698368  70.3367376 111.3189095  96.9647466   1.3659052
 111.6264171  97.3770009   0.5586199 110.4259604  97.2913037   1.4765219
  82.0674324  63.4563112  91.7902279  82.4287415  64.3321705  91.9264698
  81.5647316  63.5281372  90.9788322  72.0380211  38.0688834  65.8079147
  71.2541580  38.6180758  65.8213806  72.4717951  38.2501078  66.6417170
  91.6301060  43.1070137  37.0128441  92.4780273  43.5139942  37.1906638
  91.7984867  42.1666574  37.0728612  93.3148098  34.0109086  72.0938873
  92.4016762  33.7619567  71.9508600  93.3491325  34.2782354  73.0123615
 104.8004627  32.8235459  51.7366838 104.8625278  31.9216895  51.4219856
 104.8851109  33.3588886  50.9477186 111.4486980  27.8457999  81.4896870
 110.9373856  27.4256182  80.7981396 111.6780758  28.7030053  81.1307812
  76.7541742  14.8268497  40.5993414  76.4341450  15.0227368  41.4799356
  76.2066269  14.1003668  40.3016090  78.9711952  20.8702588  53.6992407
  79.8220587  20.7715964  53.2720089  78.9554453  21.7807293  53.9942408
  33.8878978  67.6252828   6.6502909  34.0260661  66.7745148   7.0666270
  34.5621455  68.1894980   7.0288233  95.1808453   1.2433541  39.8612833
  94.3054008   1.6034430  40.0032616  95.7572556   2.0075440  39.8625278
  41.6763210  16.5802383  90.7590866  41.4182615  16.0115409  91.4844990
  40.8858919  16.6611993  90.2253246  74.8688507  17.4651945  63.6072588
  74.9058867  16.5134382  63.5122776  73.9547396  17.6880658  63.4313011
  72.2706032  22.0346832  92.6673889  72.2622395  21.4398956  93.4173107
  73.0721331  21.8119216  92.1939373 108.5595608  33.0092263  44.9081087
 108.1865597  33.0224681  45.7895422 109.1121864  33.7898660  44.8701382
  98.8130951  77.1009111  51.9600677  98.1435966  76.4216757  52.0415735
  98.5792732  77.5730038  51.1608887  67.4074364   6.0142905  47.2063875
  67.0399380   5.1850533  46.9005394  67.5749445   6.5117526  46.4059448
 104.2721939  20.7882142  86.2082481 103.4328461  21.2194324  86.3687611
 104.0375423  19.9006724  85.9372520 101.8927670  54.7720671  30.1203918
 101.0493755  55.0980425  29.8062658 101.6657734  54.1256666  30.7888818
  40.4150659  72.1952306  92.7662945  40.5781203  72.5565087  91.8950176
  41.2873918  72.0560371  93.1349564 104.3995285  23.1003714  92.3614025
 104.1242123  23.5140300  91.5432835 104.4568443  22.1683240  92.1510792
 103.7555122  28.0889702  73.9317751 103.3758545  27.3553610  73.4481335
 104.6776199  28.0935335  73.6750317  92.8405285  40.9865618  27.3597121
  93.6293125  41.4430237  27.0669794  92.7890968  40.2130747  26.7981935
 106.5825957  96.0105143  12.0680384 107.0525998  96.0023700  11.2342124
 107.2528905  96.2190162  12.7187781 105.4764557  39.2267060  65.4256773
 104.8662949  38.4984636  65.3090572 106.1442375  39.0896153  64.7537327
  69.7531080  16.9827783  49.3423128  69.0202999  17.5956047  49.4028807
  69.3851662  16.2112772  48.9114618  94.5435524  17.8422868  44.4082260
  93.6771679  17.4884772  44.6093082  94.9006939  18.0989015  45.2584171
  71.4675760  14.4844544  70.2526188  70.6333780  14.4248462  70.7182360
  71.6038895  15.4232156  70.1246452   0.5886120  57.3093987  72.7271271
   1.1137146  57.9016590  72.1888685  -0.2801471  57.7107573  72.7471495
  34.9293113  21.3015270  81.5871716  35.7977700  21.0215259  81.2980175
  34.5917630  21.8243980  80.8599186 114.6073341  20.0735331  58.0612373
 115.5496025  20.2083421  58.1621790 114.5285606  19.4867039  57.3091316
  23.2545644 106.5137108  94.2026520  23.9347392 105.8404838  94.1838074
  23.5331946 107.1540778  93.5480309  80.3957653  49.7361660  55.3592873
  80.4224396  48.8707590  54.9511290  81.0935116  50.2272177  54.9254084
  69.3195629  35.4851532  95.4874420  70.1462030  35.2089310  95.0917149
  68.6560535  35.2673197  94.8328114 113.9202023  31.1711240  69.5443726
 114.0786266  32.0190120  69.9593687 113.7703037  30.5711508  70.2749872
  30.5521262  92.1328197  20.8254485  30.8280147  92.5581251  21.6373877
  30.6382716  92.8130208  20.1575140 102.6355648   3.5642990  67.0972681
 102.3464203   2.7427796  67.4944210 102.2155380   4.2452401  67.6227474
  70.7326889  12.2527790  50.5081320  71.2450457  12.7152729  51.1713219
  69.8572826  12.1812391  50.8886337  86.9922733  64.9410295  73.4079361
  86.4926052  64.7914696  72.6053190  86.9957733  65.8923149  73.5141373
  15.1147807 108.8633738  11.6783671  15.7261241 109.5996772  11.6596274
  14.3289340 109.1933928  11.2427477  93.7409782  49.3454695  78.2189560
  94.4510174  48.8437080  78.6193323  93.9463711  50.2574015  78.4249449
  82.3080349  29.4082093  69.4223499  82.7776814  28.5961580  69.6126986
  82.9979992  30.0564241  69.2809296  85.0541973  23.0290103  31.8807983
  85.0467682  22.7651715  32.8008890  85.9823418  23.0657101  31.6496420
  62.9659271  22.9432082  82.4093628  63.5335684  23.7133765  82.4386120
  62.2085047  23.2232928  81.8954563 112.6994896  73.6959648  81.2020397
 113.3590698  73.2091379  80.7078838 111.9239807  73.6856222  80.6410599
  94.1977900  91.9626389   6.3828425  93.9856738  91.8519078   7.3096518
  95.0909823  92.3067842   6.3810210  70.4075241  45.3511667  90.2024460
  69.9951982  44.5319796  90.4765797  71.3424683  45.1488876  90.1679230
   0.9228463  11.4352906  89.6592236   0.7623905  11.1888444  90.5701256
   1.3049645  12.3113275  89.7118568  75.2380753  14.1450036  77.0575953
  74.3404770  13.8263357  76.9627094  75.6873465  13.8328445  76.2721395
   6.7169727 107.3005544  16.8340163   7.5382961 107.7342711  17.0654158
   6.9870532 106.5077697  16.3705782  58.2927418  64.2557240  80.5893803
  59.2336512  64.4233656  80.5362606  58.1585073  63.9227057  81.4766884
  98.5611981  86.8161832  36.5155558  99.4266576  86.7022215  36.9082598
  98.2565898  87.6605044  36.8480734  92.8149700  13.1242239  80.6841469
  92.0528030  13.1845367  80.1082134  93.1673717  14.0138435  80.7090187
  75.3626871  46.8670416  60.3248835  75.3888321  47.3155832  61.1700821
  76.0032511  47.3323202  59.7868967  22.2581542  59.2169304   2.3547797
  22.2873557  58.3452169   1.9604449  22.9102958  59.1851432   3.0547289
  73.4002161  10.5441523  88.9801884  73.3286333  10.4072523  89.9248409
  74.3422413  10.5770624  88.8136482  84.5848465  36.5407443  77.6850176
  84.4002438  36.9010949  76.8176651  83.7216854  36.3816786  78.0669689
  42.5445443 103.4098934  65.3680754  42.1732980 104.0856527  65.9353161
  41.7965203 102.8650748  65.1233959  37.9890598  82.7583729  41.1331992
  37.4829734  82.7353154  40.3210597  38.7822021  82.2603570  40.9353880
  96.3683033  44.3597841  69.6852684  96.7421436  45.1173019  69.2351055
  96.8351173  43.6088657  69.3186045  91.5525454  97.3296748   1.4235644
  92.2562522  97.8691684   1.0630469  91.5625829  96.5350543   0.8899836
 110.9676170  31.4567900  82.0081806 110.7347775  30.9873486  81.2071514
 110.3651619  31.1158895  82.6692963  59.3755228   5.7884168   1.1603980
  58.8559324   6.5749931   1.3263850  58.7689478   5.0639486   1.3135008
  25.1318992  56.0978186   1.6024355  24.1992057  55.9069925   1.7019324
  25.4750694  55.3594775   1.0991244 103.6140442  35.0167537  63.7298107
 103.8874149  35.8706450  64.0650272 102.6577282  35.0573277  63.7224150
  55.9372902  38.2762647  59.3239594  55.8295822  38.6405039  60.2025747
  56.8799639  38.1344962  59.2373562 116.2563324  32.3777175  59.7264147
 116.4378262  32.8651738  60.5299568 117.1158409  32.0820594  59.4263220
  53.6131144  45.3902388  86.3178253  54.2602682  45.9735346  86.7142868
  53.9883661  44.5150089  86.4147091  89.1167927   4.8335785  76.2777328
  88.2390690   4.4519415  76.2912273  88.9853287   5.7252765  75.9555149
  92.9815292  21.1780691  40.4025698  93.5815430  20.6156349  39.9127889
  93.3805180  21.2567639  41.2690830  84.5709705  45.1582241  85.1250935
  85.2056122  44.5296097  85.4690552  83.7510300  44.9366474  85.5664825
 112.6321238  82.4520312  18.8338427 113.3079547  82.2005449  19.4633250
 112.6904887  81.7918335  18.1432204  33.0012382  72.9604970  10.2442793
  33.7769473  73.2189701  10.7419734  32.5175727  73.7761532  10.1138739
  78.5038471  59.3592501  69.1336298  77.5644922  59.1794443  69.0947104
  78.5641718  60.2380657  69.5081663  71.2648278  92.1966480  73.9126396
  71.8868619  92.8077840  74.3073893  71.5729123  92.0891928  73.0127668
  48.9584637   9.9116242  75.5337811  49.3665981   9.6820801  76.3686275
  49.4835234   9.4545388  74.8767996  78.6012668  74.6596502   0.7212405
  78.3074421  73.7490223   0.7468371  79.2236489  74.6901701  -0.0053545
  75.8156347  29.3171477  69.7029686  76.1729813  29.4854856  68.8310766
  75.5462742  28.3989596  69.6782351  54.0828371  50.2963543  80.9831810
  54.7541761  49.9543762  81.5735912  53.3618212  49.6705723  81.0522461
  63.0102634  41.3238764  94.9784088  62.6730633  40.4442930  95.1482868
  63.8519049  41.1784172  94.5463085   5.3175002 105.8919286  68.0653143
   4.8258239 106.6186514  68.4478855   5.9995776 106.3132375  67.5423431
  96.3101357 102.1098862  31.8908076  96.4228887 102.1335898  32.8410391
  96.9462365 101.4608250  31.5902571 106.2583542   7.8238910  91.4649773
 105.4668617   7.7341056  90.9342003 106.8500423   7.1509337  91.1284256
  97.5052929  41.7838526  69.1606092  97.9544449  41.8395138  70.0040531
  97.2251892  40.8706808  69.0982151  82.1018600  34.3044901  83.4947968
  81.5021420  34.9970984  83.2175446  82.2136402  33.7586904  82.7164364
  90.5023193  15.6702077  71.6782665  90.7057095  15.0158238  72.3465824
  90.4405880  15.1701713  70.8643961  62.8858423  42.8596687  74.1586590
  62.1446466  42.4172020  73.7450409  63.6385250  42.6239443  73.6163139
 108.1009674  14.4840980  77.6924896 107.6661396  15.2418160  78.0836630
 108.5970974  14.8454380  76.9579649 113.6055565  20.0914335  88.7818050
 114.2130375  19.5176172  89.2486286 112.7408409  19.8385930  89.1051865
  81.0397720  57.9434061  90.6407928  80.7656193  57.2044086  91.1839008
  81.5687180  57.5481415  89.9478340  80.9241104  38.1664276  35.9815097
  81.3241386  38.9946055  36.2467194  80.4219532  37.8870177  36.7470121
   7.2910274  95.7347880  17.8882842   7.8742660  96.4931260  17.9196600
   7.3448146  95.3548251  18.7651972  95.1136875  43.9047384  77.5344849
  95.2940750  44.8433495  77.5863934  95.8954811  43.4900570  77.8992653
  58.4420443  31.1763573  68.2609177  58.8793278  32.0276785  68.2445431
  57.6753569  31.2900591  67.6992273  88.3227348  18.1994700  85.9166908
  88.2812119  17.3136222  86.2769413  87.4125195  18.4953773  85.9030151
  50.3886109 108.6839834  88.8141441  50.7638246 108.3802729  89.6407032
  49.8262960 107.9643088  88.5276031  20.6840163 107.3393836  84.6371555
  21.3091451 106.8329217  85.1557541  21.0983831 108.1958131  84.5319843
  91.1969566  31.7286348  68.5973740  90.4640865  31.2386632  68.9702702
  91.4796543  31.2037563  67.8484964  17.7971137  48.0437897   1.8755774
  16.9830669  48.3189712   1.4538722  18.3147205  47.6584433   1.1685996
  92.9894352  46.2426138  54.2457438  93.0661011  47.1053791  54.6531630
  93.5635090  45.6802893  54.7657967 101.1123466  26.6403580  68.0064058
 100.6316853  26.9112468  68.7885904 101.2633514  25.7033396  68.1306028
  75.8577633  33.3642197  85.7961655  76.4200354  33.9596319  86.2917137
  75.0579357  33.3000994  86.3180828  66.9443989  37.2384167  91.8397236
  66.8800259  36.3335490  91.5342712  67.8631163  37.4715185  91.7061329
  31.2732852  91.0561524  38.6445002  30.8609641  90.1923428  38.6367373
  30.7453502  91.5680538  39.2572550 103.8224030  20.1103902  59.0717363
 103.6539841  19.3730628  58.4850359 104.6994495  20.4106879  58.8333416
 111.8180055 102.2874842  18.6471419 112.7361268 102.3719321  18.3899455
 111.3432807 102.2126685  17.8193335  37.9294646  71.5610467   7.9396586
  37.4921954  72.2987555   7.5144343  38.2264484  71.9105814   8.7798075
 103.4345245  20.7823014  69.4828987 103.3177090  21.0991406  68.5872412
 102.6889610  21.1421442  69.9633980  87.3861790  47.4659777  60.3945398
  87.7248573  46.6430330  60.7470989  87.9297543  47.6389551  59.6258783
  81.2331581  35.2296424  67.7776337  81.6958809  36.0675406  67.7708864
  80.7879925  35.1950479  66.9309568  76.8903589  26.5702581  59.6022034
  76.3667297  26.2202334  58.8814211  77.4181604  27.2609401  59.2014313
  13.2809985 101.4538632   5.7120184  13.1348479 102.1947156   6.3002448
  13.8219131 101.8105422   5.0074534  60.9640980  29.8199725  69.0431213
  61.8363953  30.1934028  69.1691399  60.6731081  30.1699305  68.2010508
   6.1899913  83.8387619   7.5514559   6.6166270  84.6886001   7.4419741
   6.2230361  83.6737929   8.4937529  92.6046276  42.4403143  42.0603943
  92.9348850  42.2635984  41.1795187  92.7991295  43.3658648  42.2078991
   0.7659382  44.8719454  73.4669161   1.4881367  44.2694569  73.2889509
   0.8631367  45.5626202  72.8113604  13.6422790  64.1932456  12.3293547
  14.1934360  64.3858115  13.0878882  13.2307971  65.0301359  12.1136431
  68.6206150   6.9662285  93.1546688  67.9483461   7.6451063  93.2131195
  69.0069294   6.9357258  94.0299225  42.3711837  72.5872479  23.4930949
  43.3241618  72.6490389  23.5582785  42.1930183  71.6470121  23.4719805
 115.4154110  44.0283728  72.1616220 114.8465443  44.7975969  72.1312952
 116.2272072  44.3462563  72.5567961  19.2034305  72.4899243  21.2649397
  19.2129482  71.5336881  21.2230448  18.8636840  72.7636205  20.4129462
  93.9089012  19.7260213  42.6033735  93.9526844  19.0828490  43.3109379
  94.1568375  19.2365170  41.8190622  91.2908459  50.3028011  63.9928913
  91.4297581  51.1701155  64.3732929  91.0471344  49.7514057  64.7363949
  72.4458170  36.6355801  80.5143356  72.4238062  37.3241258  79.8497677
  73.2398129  36.8143010  81.0181808  99.5744419   6.6782945  58.6793041
  98.9035892   7.2329682  59.0774488  99.7660255   6.0183710  59.3456602
  80.4010201  59.3348122  64.9185228  81.2920666  59.2645407  64.5760012
  80.1217270  60.2187347  64.6799564  23.5582412  95.9060202  16.5497546
  22.7967323  95.3690730  16.3305907  24.0977252  95.8905516  15.7592158
  32.2319663  96.1467086   7.7341132  32.2052730  96.4708195   8.6343722
  32.9822791  96.5926276   7.3411517 112.6810473 106.9654427   0.8156733
 111.9451779 107.1241675   0.2244620 113.3797854 106.6421042   0.2469496
 103.9321899  65.9013510  30.7490611 103.1701088  65.3265858  30.8205056
 104.6770382  65.3390694  30.9618068  78.0129290  52.0206404  89.7276783
  77.4736500  51.8342543  90.4962254  78.6752176  52.6354980  90.0432014
  93.3019352  23.2525373  82.0326996  93.2187176  23.6207676  82.9123020
  93.7278843  22.4058843  82.1667862  91.8985081  27.4721408  62.8873396
  92.4690723  26.7069674  62.8151751  91.3954639  27.4734569  62.0729876
  80.7273006  26.5553951  93.9958286  80.8823872  25.7172656  93.5602570
  81.6025925  26.9111180  94.1493320  66.8212700  28.4071589  62.8997898
  66.9799757  27.4879670  63.1145620  67.5730801  28.8721633  63.2669210
  62.2186184  26.6556716  64.3664789  61.7923355  25.9956694  63.8197470
  63.0911827  26.2999845  64.5348501  88.8419151  34.6149325  72.2043419
  89.5377159  34.1393566  71.7505503  88.0760479  34.0452909  72.1322393
  37.0920640 107.4009421  37.3788023  36.5444213 106.7500900  36.9398117
  37.5268346 107.8684167  36.6655874  72.1813792  95.8935414  22.8546195
  72.9739183  95.3598557  22.9120116  71.5335602  95.4168998  23.3736376
 103.8496751  56.6510399  30.1369051 103.4699410  57.4336381  30.5363707
 103.1708497  55.9823299  30.2277808  61.8583298  35.9192872  80.6710148
  61.9091749  35.6067991  79.7676897  60.9350777  36.1382365  80.7971001
  75.6633759  28.4364820  54.4304180  75.3891230  29.0420318  53.7417030
  74.9778509  28.5033798  55.0951052  16.4324916  76.5253292  26.6049056
  16.7978729  77.2792660  26.1419730  16.8589938  75.7681571  26.2036280
  99.1121578  56.0855722  46.3154840  98.6744022  55.5947161  45.6200218
  99.2953396  56.9406796  45.9262943  58.9509153   4.5240065  77.1452236
  58.1492424   4.8783064  77.5299644  59.5811129   4.5205039  77.8656816
  26.8569148  65.6199597   3.4712748  26.1865199  65.1428829   3.9603571
  26.6353381  66.5424143   3.5986094 109.5970535  14.0562761  53.0544901
 109.8341560  13.2904387  52.5315094 109.6347904  14.7879660  52.4385071
  90.9137821  33.3877134  70.7016850  91.2924671  34.2379785  70.4783535
  91.0688305  32.8458118  69.9280357  49.7267199  39.0294933  86.2381077
  48.9441013  39.5066810  85.9623623  50.2025127  38.8595748  85.4251003
  73.9797878  19.6751642  95.4616070  73.3527040  19.0957713  95.0288296
  73.4690475  20.4510355  95.6926823  67.0758677  36.8691254  82.5390053
  67.8278875  36.4752293  82.0967960  66.3516521  36.2693501  82.3600864
  59.9163961  37.2751307  64.5965099  59.1938066  36.6485190  64.5583153
  60.7047033  36.7321873  64.5926571   5.0759471  99.6711789   7.5479559
   5.9469569  99.2744790   7.5333457   4.5039237  98.9807807   7.8831725
 109.8811150   4.8935792  87.1977425 110.1042175   4.1435811  86.6464138
 110.5839062   4.9314189  87.8464985  86.6472912  31.1895728  42.5794935
  87.5071239  30.7711339  42.5366783  86.7656136  32.0265555  42.1303892
  55.1334667  20.8328652  44.3557930  54.3530464  20.3565264  44.6391296
  54.7921753  21.5958333  43.8892841  78.4355688  36.3815475  60.6933928
  78.8621616  37.1555448  61.0610533  77.5144196  36.4782882  60.9349680
 108.0025768  17.4166238  90.3250790 108.4634209  17.4514782  89.4868469
 107.2346783  16.8714583  90.1537323 102.0545197  38.9931583  48.9724350
 102.1780300  39.3026137  49.8697710 102.9370117  38.7803531  48.6688662
  75.2133989  52.9926014  76.6509819  74.8804474  53.5891819  77.3214102
  74.7832155  53.2751656  75.8439350 111.8029499  50.6343508  67.5729609
 111.9599724  50.7410049  68.5111523 112.6231289  50.9053278  67.1605158
  62.9432392  46.1640835  74.6198654  63.0090380  46.0236645  75.5644178
  62.1020794  45.7764673  74.3781185  87.6735687  23.7299204  74.9646711
  88.2650375  24.1897202  75.5604792  87.9091644  24.0544772  74.0955400
  73.5721762  16.5306615   4.9722342  73.0074484  16.2418174   4.2553763
  74.2437346  15.8516216   5.0366168  92.5925541  35.7529783  91.2167931
  92.6647854  34.8073125  91.3461494  91.9137001  36.0278583  91.8331051
  96.7010182  74.1790388  17.9313998  96.9089669  74.8933433  17.3291068
  97.5016898  73.6557577  17.9678969  64.0986347  35.3973460  68.0061626
  64.3542385  36.2792897  68.2764864  63.5960150  35.5294514  67.2023249
  86.7703342  52.7968025  71.7774057  85.8956051  53.1517887  71.9357586
  87.3368454  53.2778072  72.3806763  18.3222068  89.5616589  20.9002738
  19.2139972  89.7953187  20.6426959  18.0596030  88.8895117  20.2713923
  87.2702599  69.1242599  78.7458086  86.6993332  69.1415501  77.9777050
  88.1267166  68.8703346  78.4019756  90.5504227  45.9689665  83.8455200
  91.3417721  45.5798912  84.2178345  90.2094555  45.2983665  83.2536888
  76.9217348  29.7801065  72.1706772  76.9029188  28.8831234  72.5042915
  76.5388489  29.7182536  71.2955713  95.8357811  54.4215155  62.1691418
  96.5749645  54.5521593  61.5752029  95.7908440  55.2314091  62.6773643
  94.2551327  55.3077316  84.4130802  94.5214462  55.8777046  85.1344872
  93.3428288  55.5439758  84.2454147 100.7759953  28.0861282  77.6540422
 100.6984901  28.8079214  78.2779312 101.6930199  28.1036592  77.3802042
 111.4411163  60.4902935  77.4629068 111.7078590  59.5895004  77.2794533
 110.7552528  60.6725264  76.8205595  28.0274451  85.3954731   7.8293948
  27.5885261  85.7364403   7.0500807  27.4672664  85.6653152   8.5571436
 110.0333881  39.4206142  73.9097786 110.7880020  38.8779092  73.6811638
 109.4899178  38.8558984  74.4592953  98.0720520  35.3252482  70.5619144
  97.7386189  35.6728721  71.3890839  98.3959103  36.0938764  70.0922775
  74.6174860  54.8409557  69.8806667  74.6779442  55.5584717  69.2499924
  74.0999508  55.1989985  70.6019115   2.6891560  75.8096218  76.6494370
   3.0335564  75.5584955  77.5064993   2.4290795  74.9824142  76.2440729
  98.4576893  52.1065426  92.8355312  98.3854008  53.0609608  92.8450871
  99.3922901  51.9383192  92.7153111  13.0745567 103.9592086   6.8731074
  12.5486243 104.7539960   6.7840056  13.9546550 104.2230473   6.6046671
  93.3123589  85.3870773  55.1092768  92.6628208  86.0885620  55.1567268
  93.1303787  84.9479580  54.2784405  55.4831582 108.7161272  79.5903969
  55.5758458 108.1715811  78.8086653  56.0846215 109.4466477  79.4461155
 100.6855774  60.4982042  35.4993820 101.2518978  59.8113680  35.8511782
 100.0177097  60.0264359  35.0017619  79.0913963  62.8656387  67.8298998
  78.7409687  61.9783878  67.7510166  78.7068892  63.2039976  68.6385441
  34.9100936  76.7903434  34.7509245  34.5820678  76.2242113  34.0522627
  34.9544204  77.6600300  34.3535380  91.8862629  15.6571817  83.9415169
  92.1983719  16.5287161  84.1849327  91.7885208  15.1963961  84.7747898
   8.4257949 100.8459197  24.8377852   8.1476367  99.9301539  24.8225359
   8.0871261 101.2127314  24.0210871  41.8529970  20.7731056   4.9360899
  41.8289168  20.3866243   5.8114676  41.5144999  21.6603088   5.0565867
   4.8376412  33.2700276  78.2385540   5.5940766  32.7083349  78.0696058
   4.1399330  32.9015827  77.6966333  77.9891872  39.0839744  23.8052487
  77.2276163  39.0868425  24.3851066  77.8598213  39.8427176  23.2362127
 112.0917034  33.5039282  66.2304211 112.7318764  33.7180042  66.9090796
 111.2526608  33.4830761  66.6906404 104.8184490  55.5289507  85.0560951
 105.6669712  55.2786016  85.4215527 104.8778820  56.4772749  84.9403954
  29.7442306  73.5399376  12.9863219  29.8206008  73.4043561  12.0418601
  30.4089988  72.9649185  13.3653597  41.9266570 100.4866801  12.5783686
  42.8124870 100.5062304  12.2162108  41.5904201  99.6221219  12.3423152
 115.7522506  66.1153649   7.8865485 116.3297481  65.9254812   7.1471838
 115.2164716  66.8507610   7.5892882  64.1745741   8.1176805   7.7054266
  63.6007101   8.8208722   8.0094580  63.5872633   7.5017738   7.2673087
 105.7412148  69.1153908  70.9068346 105.7081127  68.8614893  69.9845171
 106.2575245  69.9213648  70.9150028  94.5164394  45.8257008  90.4754734
  95.1723289  45.7009602  91.1613941  94.9985123  46.2291479  89.7536278
   5.6652207  74.4778061  93.4523869   4.7676701  74.2600870  93.7038708
   5.6722588  75.4331303  93.3929253  96.1299992  43.8338900  60.9153843
  96.5933990  44.4080448  60.3056049  96.6563225  43.0347300  60.9388733
 104.1408539  80.5458355  89.2868614 104.9964714  80.4452705  88.8696861
 104.2590809  80.1855278  90.1657486   0.6762165  74.9987936  88.7237930
   0.9239907  74.1440868  88.3712101   1.4600224  75.5379295  88.6178970
 111.4675140  37.0285988  68.1055021 111.8880367  37.4450541  68.8578081
 110.6103897  36.7543960  68.4316587  87.5957394  44.8573446  73.8765860
  87.2596741  44.7889376  72.9829359  88.5442638  44.7690201  73.7831879
  86.0291290  32.3208117  55.8708096  86.9299889  32.3137665  56.1942768
  86.1081028  32.1222186  54.9377728   5.7143826  31.5263891  67.0540333
   5.2309841  32.3446846  67.1678448   6.5066094  31.7800856  66.5804815
 107.3280239  67.1635532  73.2719040 107.0420551  66.3635635  73.7128878
 107.5914097  66.8743944  72.3982620 114.9514771  29.6079111  80.9557152
 114.8584366  28.6965275  81.2331200 114.2369938  29.7429252  80.3332043
  11.7846359  86.6511641  32.2847991  12.3193610  86.0390006  31.7792754
  11.0229648  86.8186699  31.7297987  12.1426243  49.7651768  90.9756184
  12.5914807  50.2228498  90.2647781  12.8468174  49.4708920  91.5533161
  52.9637892   0.7095622   9.3105845  53.2171328   0.7624006  10.2321295
  52.1341688   1.1845969   9.2626338   4.5080436  70.8527587  13.7729792
   4.1657985  69.9592505  13.8002638   4.2185176  71.2453829  14.5965437
 109.6772766  43.6959934  79.9961042 109.3707848  44.1190195  79.1940165
 109.9493408  44.4201279  80.5598831  33.3203156  11.8506622   2.8105788
  33.3843310  10.8960962   2.8411726  34.2198546  12.1550082   2.9307227
 102.6576424  29.7311449  82.8264236 102.0375347  29.0220141  82.9962254
 103.4792328  29.2862010  82.6184654 101.2161064  15.7575679  88.6652565
 101.2221718  16.0452580  89.5781803 100.3221989  15.9256828  88.3670902
  67.3528845  24.2748355  34.2954974  67.2034437  23.6354923  34.9920134
  66.5069849  24.7084140  34.1828494  40.0366939  85.0352298  22.3951678
  40.0193656  85.0270329  21.4381651  39.8956550  85.9525429  22.6294283
   5.5899948  45.3950071  93.4332180   5.7893318  44.4980240  93.1650448
   5.3011936  45.8267879  92.6292324  47.4983771  11.9894361  -0.1203485
  48.4524233  12.0201444  -0.1916929  47.3164446  12.2640466   0.7783846
  11.4356465  33.8493586  65.0633383  12.3507542  33.9827085  65.3103828
  11.3228649  34.3733406  64.2702675  79.3027973  39.8699188  57.2821665
  80.2326679  39.8394680  57.5072050  79.1594362  39.0873742  56.7499018
  17.3143143  61.5228939  52.5339651  16.4216179  61.6604948  52.2171068
  17.4708313  60.5867481  52.4100113  83.5477448   5.7658094  88.4165668
  84.3243885   5.2882940  88.7081814  83.2116508   6.1835456  89.2095089
  15.4695762  80.7289038  15.6319861  16.2591232  80.6667577  15.0944190
  15.3212989  79.8361765  15.9438853 109.5401573  17.8769243  64.4912004
 109.9112701  17.7106333  63.6246824 109.7793579  17.1062887  65.0061131
 110.7624435  60.0455236  66.1243105 110.7473183  60.3206682  67.0409870
 111.0706329  60.8164310  65.6479073  96.9928932  45.5122089  82.2025967
  96.0991669  45.3604984  82.5099564  97.5447464  45.0486660  82.8325272
  25.7165796   7.9127836  32.0245986  26.0607893   7.4197864  32.7693800
  26.2580712   8.7012672  31.9884352 104.5874023  45.0931787  51.1768103
 104.3256378  44.8544168  52.0660257 104.3496132  46.0169363  51.0970306
  78.9517355  42.5807381  68.0011892  78.8274527  42.8498077  68.9113474
  78.5983706  43.3063364  67.4865341  78.8383389  56.5605736  73.1103420
  78.5111713  56.4588451  72.2165585  78.1170654  56.2628746  73.6647511
 102.6550007  64.2135191  79.7427273 102.4603081  63.3204412  79.4585896
 102.0410442  64.7601080  79.2522907  97.8287792  22.1323252  36.9192386
  97.6672935  22.7174807  36.1791372  97.0449734  22.2118330  37.4628901
   5.4136223  66.8852282  89.1594315   6.1067147  66.5697050  89.7393417
   5.4224152  67.8358841  89.2708206 113.2296848  22.2707319  77.3172188
 113.7046623  21.9633198  78.0893087 112.3967934  21.7998242  77.3451710
  98.9753246  30.2996087  55.2591991  98.4913254  29.7665596  55.8899355
  98.2996941  30.6752086  54.6946859   2.5398201  65.7411098  56.5542459
   2.9134220  66.6193438  56.4810133   2.8401322  65.4233122  57.4057436
  81.6176873 106.9010835  26.1229849  82.4320680 107.1307351  25.6754613
  81.2437421 106.1968612  25.5933952  13.3897556 107.1351682   4.7323279
  13.9576591 107.1056948   5.5022959  13.3715308 108.0592547   4.4833903
  22.9963744  85.4327832   6.5731959  22.9017318  85.4849039   5.6221060
  22.3785747  84.7514401   6.8383841 107.3521709  67.8619623  92.5109673
 108.2301903  67.4813318  92.5316715 106.7958355  67.1623182  92.1685982
   4.5658935  95.7924662   7.2520403   4.7802032  96.0456191   8.1499342
   5.3470863  96.0175906   6.7467741 111.8794918  43.3729410  91.1771393
 112.3197746  44.1891479  90.9400845 112.4218655  42.6866198  90.7885075
  87.4102020  13.2116008  61.3373280  86.6185379  13.7457407  61.2725687
  87.4774456  12.9947925  62.2672224  92.8985405  69.6928406  82.2478294
  91.9959259  69.3790150  82.1927071  93.0883789  70.0310564  81.3727283
  97.3410511  40.7217264  91.2933445  97.6244068  39.8078465  91.3209915
  97.2291565  40.9097004  90.3614712  11.4365924 109.5028649   6.6502623
  12.3124374 109.2338477   6.9273238  11.5901340 110.1058064   5.9228568
  96.8332100  38.0157685  56.3288355  96.6115761  37.1161199  56.5691376
  97.7291584  37.9610848  55.9964085   6.5784497  15.5782056  66.9623518
   6.9910759  15.4522622  67.8168201   6.7853874  16.4827657  66.7274427
  63.2138586  31.2549567  68.2012653  63.7139463  30.4956675  68.5006380
  63.5882616  31.9930840  68.6821175  28.5029186  90.5121980   3.5135989
  29.0961135  90.9555398   4.1200690  27.6532615  90.9266816   3.6636405
  71.3216543  61.6130304  80.1963329  71.9365120  62.2370815  79.8106527
  71.7882347  60.7773638  80.1824379  91.4578802  27.9727887   5.1117281
  90.6776507  27.4978971   5.3979830  92.0508749  27.9335927   5.8620982
   3.7490601  44.3037224  61.1294985   4.4440312  43.7772417  61.5245438
   3.9938015  44.3696451  60.2064657  70.8321810  35.5241418  67.6050901
  71.2797356  36.3185501  67.8963614  69.9300432  35.6335449  67.9057884
 108.9466763  66.2700367  83.4531021 108.5262585  67.1279669  83.3944702
 108.5869503  65.8810139  84.2502785  81.7295361  48.7464237  83.4099579
  81.9884586  48.4896135  82.5249577  80.9561920  49.2960739  83.2832623
 116.9668484  35.1118684  82.5683689 116.5734291  35.7903051  82.0195675
 116.4110661  35.0815821  83.3471012 107.8949070  68.9566374  80.8222866
 108.7094116  69.1948938  80.3795242 107.2095203  69.1474152  80.1819038
  98.9853001  48.7111187  73.5727787  98.9320564  47.9755211  72.9626226
  98.8864422  49.4872904  73.0214024  48.3598674  72.5467108  11.7476038
  47.8855670  73.2017229  12.2596888  47.8330672  72.4338005  10.9564166
  69.9077017   1.3826942   2.0458178  69.0212805   1.3327836   1.6880564
  70.4713232   1.4734220   1.2774901 101.2070465  26.7753148  86.2888908
 101.5500450  26.7063808  85.3979206 100.7811737  27.6321292  86.3159752
  88.8666821  37.0587373  69.9250650  88.0916691  36.6710925  70.3316545
  89.4483376  36.3162279  69.7620106  85.5917549  33.9395976  91.2820530
  86.0279179  33.9300585  92.1340561  84.6612167  33.8513899  91.4883518
  75.3171492  23.5018754  69.8065662  75.7596254  22.6819658  69.5870256
  75.0012159  23.8358021  68.9669752  56.8114710  80.8791065  94.1831970
  57.0367527  81.8073940  94.1218472  56.4094019  80.6739235  93.3391190
  77.8040886  58.6939716  52.0559883  77.9110003  59.5140266  52.5379753
  76.8572617  58.5574150  52.0226908  45.4645920   7.9589558  28.6883068
  45.3066683   8.1782550  29.6065664  44.7014380   7.4416709  28.4309292
  85.0425720  23.5794783  74.4540453  85.9252644  23.9361763  74.5533323
  85.0787067  22.7267194  74.8873234  11.5882076  70.9553252   2.8495173
  11.0478557  71.5111302   2.2879653  11.3661159  71.2267648   3.7401537
  13.3648091  93.1561243  77.4140072  14.1905910  93.1294869  77.8973389
  12.8534823  93.8372683  77.8508329  65.2700996  36.2788129  78.1950855
  65.2691126  36.8956041  77.4631023  65.9380531  36.6163874  78.7918377
  30.7429469  97.1885310  13.7101702  31.0432494  98.0396472  13.3913474
  30.4147685  96.7424880  12.9294161 115.8611012  80.1444721  74.0226650
 116.7385292  80.4274368  74.2801285 115.8869076  80.1246738  73.0660200
 104.4553185  29.0906835  65.8600712 104.5568943  29.8450732  65.2797174
 105.1476383  28.4867930  65.5912971 101.2774754  38.2027268  79.5651865
 101.2069321  39.0991592  79.8933125 100.4182625  37.8168988  79.7358465
 102.4749374  44.0892506  85.4422951 103.3876419  43.8059998  85.3877640
 102.5146961  44.9442482  85.8708096   7.5213093  40.8870077  54.4012833
   6.8197865  41.4311457  54.0434885   7.0668549  40.1630259  54.8320389
 115.3367805  40.2703667  63.2887745 115.7702637  39.6922803  62.6609612
 114.4644833  40.4121923  62.9210615  12.9332680  61.3561249  57.5233793
  13.6528439  61.9561529  57.3273993  13.1998009  60.9184742  58.3318710
  92.2100449  53.0082941  89.9142170  92.7530193  52.3170233  90.2931213
  91.3111496  52.7104998  90.0539780  80.6273556   9.5830727  60.2392960
  79.9795008   8.9419800  59.9468660  80.6360531   9.4970578  61.1925793
  99.1896057  22.9857755  76.3141155  99.5558071  23.0736136  77.1941280
  99.8053169  22.4150419  75.8543491  91.1590195  54.9843884  93.2402897
  91.9982910  54.9163389  92.7850723  90.7126427  54.1606903  93.0440712
  88.3948231  42.0015430  84.3969536  88.5048771  41.0995626  84.6978664
  89.2877579  42.3333025  84.3029594   6.7267746  52.2873068  58.5730076
   6.8586296  53.1687593  58.9221287   7.3645634  51.7470551  59.0394592
  47.4368537 107.2183762  20.7036070  48.0930770 107.5488625  20.0901083
  47.8594650 106.4709674  21.1267142  36.0839904 109.6190606  25.2682166
  35.6812061 108.8427983  25.6573348  35.9937347 109.4880830  24.3243269
  82.8230858  20.3582716  65.0445127  82.3259258  21.1684918  65.1567745
  82.1819878  19.6620715  65.1877594  93.9362621  31.1358595  90.0503445
  93.7515736  31.6405511  89.2582512  94.0031815  30.2303863  89.7472382
  89.8668385  71.3487959  74.8782253  90.3575039  70.6207132  74.4969463
  88.9926434  70.9921074  75.0356531  55.8354425  46.7687464  90.3581429
  55.8416796  47.1120071  91.2516594  56.6457033  46.2637186  90.2899265
  77.2310781  53.9838123  80.9483051  76.6086006  54.5730829  81.3743496
  77.3735857  54.3700552  80.0841713   1.0371984 104.7280560  11.8442778
   0.2908624 105.2270709  12.1762328   1.0648978 104.9319278  10.9094576
  75.5448515  12.1405887  15.3059630  75.7490809  12.7676153  15.9997706
  76.3983042  11.8810987  14.9588160  65.1897097  60.1814604  84.9000740
  64.9063063  59.4712305  85.4758263  65.7397032  60.7345581  85.4549026
  78.4815598  19.2754459  78.2076168  78.3228159  18.8363278  77.3720264
  78.4520102  20.2087498  77.9971313   2.0787663  31.6447806  80.8432770
   2.8336090  31.5104628  80.2702141   2.4350876  31.5753722  81.7289639
 116.6575050  64.7724724  67.7696180 116.9937515  65.3979969  68.4114027
 116.4481544  65.3054619  67.0025921  78.3906174  35.4143620  39.4844365
  78.0715179  36.3010216  39.3163967  79.0149593  35.2467012  38.7785172
  70.0430632  27.5446916  34.1726804  69.6124315  27.4982595  35.0262785
  69.4222641  28.0153513  33.6165142  78.9476204  46.2108374  71.1288071
  78.2941771  45.9931993  71.7935467  79.7493935  46.3741159  71.6255236
  38.7350065  15.1107501  19.3987898  38.5379870  14.6484613  20.2134661
  38.6279900  14.4486903  18.7158160  89.9493790  31.0430789  84.8062229
  89.7025490  31.2142658  83.8973808  89.5600224  30.1912498  85.0037670
  11.5817226  96.3838063   7.8877692  12.2673476  96.9274102   8.2759051
  11.4356864  96.7645703   7.0217852 105.4112339  32.0612335  55.9808493
 105.1521873  32.7286696  55.3455114 105.6351948  32.5553560  56.7694664
  91.6658020  81.2349510  72.0660591  90.7303810  81.0586739  72.1667671
  91.7060089  81.9787884  71.4649582   8.4297050  90.2412878   2.6019816
   8.7753642  90.2144347   1.7097811   7.9328311  91.0584603   2.6418452
  89.0145016  33.5004640  89.4700050  89.0620232  33.0977249  88.6029530
  88.6047268  32.8340244  90.0215244 110.5675793  37.7160144  81.6076088
 109.7511864  37.7762008  81.1115170 110.2960682  37.4402738  82.4831009
  90.2549553  80.0621796  87.7273941  90.5797386  80.8836174  87.3586464
  90.7891655  79.3853092  87.3118210  76.6403341  64.8337841  74.1229677
  76.9298697  65.6889725  73.8050747  75.7769394  64.9988461  74.5018244
  91.7130280  35.3807092  66.6845608  91.9681168  36.3020945  66.6375065
  90.8669567  35.3433418  66.2384653  74.2699051  52.1314001  81.1003113
  74.5133495  53.0567551  81.1263943  73.3868933  52.1055555  81.4688873
  84.7094440  54.0277576  90.3399563  84.9744129  53.4011507  91.0132885
  84.6312809  54.8605919  90.8052635  97.6697159  77.7587605  80.9525108
  97.2326088  77.0942020  81.4849949  98.2203388  77.2587824  80.3499603
  64.6438837  11.2806368  83.9584923  65.5718422  11.4926195  84.0594292
  64.5543909  10.4082286  84.3420601   3.5285897  66.2268543  66.2982512
   3.4456391  65.5628586  66.9826937   3.2867379  67.0466042  66.7292356
  63.8549471  49.2800522  87.5132179  63.1529665  49.7742796  87.0899010
  63.4426880  48.8914537  88.2847500  96.8200493  82.4229908  79.9013758
  96.0430622  81.8658352  79.8556948  97.5545406  81.8192577  79.7906637
  90.2233601  52.5994444  57.3735905  89.7888470  51.7572403  57.2389650
  90.0202560  53.1025028  56.5849781  87.4075508  59.9542236  69.2796516
  87.7603340  60.0748396  70.1612520  87.2812748  59.0087795  69.1994858
  54.1096480  18.4714126   0.0453143  54.3209726  19.3996429  -0.0545164
  54.8888380  18.0906009   0.4503874  96.4992809  43.2705784  88.3052540
  95.8980751  42.5839806  88.0165291  95.9618664  44.0620708  88.3361721
  56.0248549  33.3821534  15.3392081  55.1731093  33.5034990  14.9196391
  55.8804495  32.6826524  15.9764533  38.6528743  72.4724601  18.9919524
  37.7147163  72.6613079  18.9713244  38.9639152  72.8912721  19.7945075
 104.3385220  58.1797743  86.0404968 104.8779297  58.5631084  86.7321014
 103.4391689  58.3820915  86.2983036 114.2656440  71.7923258   5.9616808
 115.0046081  71.6771124   6.5590815 113.5404366  71.3343941   6.3866572
 100.9272003  40.6996346  72.1451950 100.5629539  39.9313760  72.5848913
 100.9622478  40.4525518  71.2210989  46.4023764   1.0449647  29.9636893
  46.7574961   1.0637473  29.0750079  46.0903055   1.9369888  30.1158099
  81.5305805  31.7669272  87.7424431  81.1851788  30.8781958  87.6582432
  80.7797432  32.3335052  87.5650692   7.6811833  43.4494066  85.0207520
   8.2466835  44.1773748  85.2786350   6.7919678  43.7821865  85.1422882
  88.5030937  85.5088902  75.2080822  89.1121864  85.5757999  74.4727182
  87.7378464  85.0626850  74.8454046  99.2286968  33.3917046  89.7610474
  98.8032913  32.9364419  89.0344143  98.5628986  33.9972901  90.0869274
  85.2845478  57.8621435  47.6500082  85.3766346  58.2047415  46.7609739
  84.7998714  57.0437813  47.5423145  69.5129490  56.8163347  77.6105404
  68.5880232  57.0588732  77.6543236  69.8819065  57.3980904  76.9459629
  85.8535385  53.2020283  64.9705601  86.4762306  53.0043554  65.6701374
  85.1818371  52.5246429  65.0493193  93.4105778  50.1308727  71.9835281
  92.7733421  49.5500374  72.3992205  93.5070515  49.7847843  71.0963154
 101.3109970  51.9875526  95.6054497 100.7657337  51.6088009  94.9159050
 101.9482708  51.3032198  95.8098888  87.9558182  69.4553185  75.3286600
  88.0318165  69.0376186  74.4707632  87.0149517  69.5821762  75.4507780
   6.0740513  50.3308964  71.8852854   5.9715790  50.1320457  72.8159809
   6.5532440  49.5815468  71.5316105  41.7794991  35.3917694  85.0244713
  40.8957911  35.1391268  85.2917957  42.3208809  35.2210402  85.7951832
  22.7319474  55.0262070  88.1093311  22.5459999  55.4605675  88.9417839
  21.9068951  54.6040869  87.8698826  90.5769920  64.3472767  73.9299250
  90.7250881  63.6056995  73.3431005  89.9708939  64.9134779  73.4521294
  -0.0076061  58.7901688  85.7097149   0.4598278  58.0807352  85.2687645
   0.6775517  59.4113350  85.9565830  84.1975307  40.4864883  54.0979624
  83.3193016  40.2401304  53.8076973  84.3412495  41.3530064  53.7175274
  89.2532921  29.8950410  69.0640211  89.1555691  29.3859816  68.2593250
  88.9083958  29.3250966  69.7513676  31.8626750  77.5657283  34.9870829
  32.6087535  76.9862018  34.8329501  31.6623462  77.9324685  34.1259150
   1.3581813  37.2687946   1.9816927   1.6693080  36.4725922   1.5510039
   1.6781915  37.1954225   2.8808264  78.0666637  26.2382984  83.0772972
  78.7873793  25.6237674  82.9389000  78.3407593  27.0350909  82.6231766
  34.0779669  45.5585527   3.7854247  33.4765417  46.2393617   3.4837393
  34.4306214  45.8978795   4.6080641   7.1603263  68.3979748  17.3933939
   7.3863471  68.4949718  16.4683394   6.7532409  69.2315934  17.6291708
  16.7641032  80.4203401   1.5657668  17.0026744  79.6082722   1.1187033
  17.5956310  80.8772741   1.6923098 107.2322464   7.3280609  81.0966301
 107.3790550   6.3991493  80.9182930 106.3561821   7.5024581  80.7526398
 112.4854183  49.1255140  61.5332842 113.0825424  49.7527361  61.1255169
 112.2063732  49.5522928  62.3433590   3.4937728  81.4031444   8.4802775
   4.1344608  81.4441381   7.7702956   3.9805759  81.6753398   9.2581992
  13.8929886  32.0848083  86.7523193  14.6172947  31.8069696  86.1915874
  13.5050244  32.8286743  86.2914753   4.8608173  82.3785721  10.9580283
   5.0865234  82.1272002  11.8536238   5.4169524  83.1356846  10.7743887
  26.8798316  99.2713795  12.7448134  26.8455184 100.0297509  12.1617751
  26.6512550  99.6208916  13.6061053  92.2362518  49.4131517  85.2612114
  92.3393440  50.3531456  85.4095840  91.2937164  49.2904997  85.1480007
 108.3991241  63.0552721  46.2602282 108.8910580  63.3998060  45.5148935
 108.9548779  62.3606205  46.6135311  81.9644642  85.4913807  74.0492678
  81.5099430  86.2759876  74.3559122  81.3587379  85.0924015  73.4246540
 103.5293388  94.4080257  79.1112947 102.8059578  94.8211193  79.5827866
 103.2339668  93.5105133  78.9581966  94.5158482  40.5834675  78.2411861
  94.3345547  39.8104334  77.7066040  95.0885868  40.2636623  78.9382696
 107.1443558  32.2253847  72.7678776 107.6445770  32.6833510  72.0923948
 107.7921200  31.6857481  73.2211161  90.4229259  37.7510738  86.9478893
  91.0755920  37.1819973  87.3558235  89.6849537  37.1716809  86.7583084
  79.8495722  25.2207017  80.7594395  80.2722073  24.6872926  81.4325523
  80.2807140  26.0729051  80.8234596  66.3848972  45.6515312  78.6099958
  66.5425777  44.8990059  78.0398464  65.7392979  45.3402233  79.2444420
 104.5297527  61.6711283  35.1002550 105.0011253  62.3413897  34.6054959
 103.7909317  61.4347172  34.5394659  87.1639347  49.0115738  85.3169346
  86.2144852  48.9021826  85.2638817  87.5191021  48.1941128  84.9678707
 100.1746655  40.0150537  61.8429327 100.4148293  39.2636919  61.3007069
 100.1709080  40.7561541  61.2371397 114.5466042  66.8362093  60.8318138
 115.1889610  66.5823507  61.4945030 114.2644310  66.0086107  60.4423380
  33.3935625  13.7827014  21.7480425  34.0561230  13.6322212  22.4222807
  32.5818712  13.9203071  22.2363619  66.4178545   1.3693713   4.1164832
  66.2774355   2.2795486   4.3774275  66.8823702   1.4284896   3.2816367
  23.9317668 101.4937459   2.7670245  23.3955730 100.7366763   2.5312953
  24.2942966 101.7987786   1.9352965 114.6160507  57.3873043  72.9255533
 113.6738682  57.2462749  72.8326559 114.8523998  56.9100475  73.7209129
  99.8849201  60.4250622  71.1419010  99.4699669  60.7490492  70.3424788
 100.7122135  60.9038019  71.1932898  82.3414993  40.8211136  90.9556961
  83.2322788  41.1438990  91.0919666  82.4562931  39.9150467  90.6691742
  75.8957481  27.1994472  81.9175816  75.0995827  26.7462492  82.1950054
  76.6089725  26.6763735  82.2835541  89.1590023  31.2281609  81.5098667
  90.0488186  31.3418746  81.1759186  88.6000633  31.6266251  80.8427429
  90.6276131  58.0953407  73.7382936  91.0174751  58.6163807  73.0363321
  90.1732540  57.3850012  73.2852888  25.1755393 104.4515811  11.1010508
  25.1850475 104.7431765  10.1893954  25.8838332 104.9429761  11.5170817
 101.7685795  50.7252264  73.9645243 101.0133266  50.3193283  73.5389996
 101.9162273  51.5322495  73.4714270  71.1802466  24.1180085   9.5683245
  71.1023695  24.8654413   8.9754347  71.6452295  23.4549569   9.0580420
  51.7003138  51.2644147   9.6101336  51.7401487  50.3190278   9.4655566
  51.3264734  51.3571595  10.4864172  15.3485150  51.0761690  81.1266041
  15.8381314  50.9346771  80.3163624  14.7966713  50.2987146  81.2118435
  57.9253180  21.6497468   3.7816290  57.3520834  20.8890104   3.6872344
  57.4063952  22.2801494   4.2811827  85.2677059  65.3131247  78.7598562
  85.7471943  65.8661032  79.3767309  85.8464432  64.5659351  78.6081600
  40.9697688  92.3090540  31.1370234  40.3779662  91.6039763  30.8746008
  41.6416515  92.3239528  30.4554228  43.2948954  17.7241086  10.5726676
  44.2022688  17.4223899  10.5292658  43.0802996  17.7044153  11.5052943
  92.8180981  39.5695734  89.5167255  91.9337177  39.9216628  89.4160748
  92.8968334  39.3836856  90.4524040  92.8671265  53.8677931  67.1888685
  93.3412647  54.1855192  67.9572916  92.6951599  54.6544600  66.6713572
 107.7875996  46.7996407  87.3769474 108.5579395  47.2940779  87.0970726
 107.2857189  46.6630459  86.5734005  18.6873878  98.5943137   3.6768965
  18.1467975  99.3634663   3.4969000  18.6697067  98.5068427   4.6299223
  98.9151478  48.4230566  89.7200966  98.6299419  48.4472132  88.8066959
  98.1482792  48.7062311  90.2180481  19.9099982  97.3271714   5.9279971
  20.0662006  97.4439965   6.8651061  20.7561744  97.5098620   5.5195288
 116.5979290  59.6155119  58.9565945 116.7835331  59.6003485  58.0176830
 116.1275101  58.7982512  59.1209745  96.4087486  39.1721368  58.9322376
  96.9195175  38.7204576  58.2604218  95.5020142  39.0964437  58.6350107
  68.1832981  52.6114225  75.5055952  68.2111263  51.9278002  76.1750126
  67.6753759  52.2266674  74.7913074  55.9634668  21.1934852  10.8379607
  56.2594969  20.3005456  10.6611590  56.6074068  21.7503547  10.4003863
  93.0757046  69.2849779  84.9217033  93.9581585  69.3809414  85.2798748
  93.1903362  69.3733311  83.9755154  67.6855373  74.2476320  92.8639889
  67.3389864  73.7426996  92.1283340  68.1442881  74.9817991  92.4555969
 102.0082760  81.3953209  75.1235294 102.8090572  81.2620926  74.6163511
 101.4035606  81.8138504  74.5108366 102.3252296  65.9429407  84.1541958
 102.6004314  66.3013029  84.9980354 101.4208412  65.6633949  84.2961693
  52.0541251 102.0380889   0.4410319  51.8012393 102.9327403   0.2132468
  51.3643420 101.4911519   0.0651412 101.5143585  39.3533874  76.7619467
 101.4452934  39.0358257  77.6622915 101.4705563  40.3063869  76.8400860
  63.6980326  43.4590673  18.3440547  63.9217646  42.8481626  19.0461783
  63.4652693  42.8984594  17.6039366  82.9736233  59.1119671  64.2701530
  83.6549759  59.0117836  63.6053562  83.4424877  59.4055462  65.0513077
  41.1175121  83.6175333  25.7549433  41.2566913  82.7804957  25.3119616
  41.5350688  84.2627989  25.1844077  89.6161652  65.5586052  78.8970232
  89.0200329  66.1943960  78.5012627  90.0999832  66.0601282  79.5532370
  47.8291971  33.1303644  12.1962409  47.4983771  32.2782373  12.4802737
  48.7357599  33.1496476  12.5028376 102.1706963  12.0168293  58.7635469
 102.1844769  12.0837867  59.7182989 101.6680050  11.2217426  58.5864353
  93.6403465  83.3352375  89.7989941  93.4018135  84.2244911  90.0608540
  94.5435143  83.4103966  89.4909763  16.4750428  38.5685945  80.1848412
  15.5649704  38.2805991  80.2558422  16.9896263  37.7966738  80.4205894
  82.1006584  54.0070534  67.5972700  83.0353546  53.8017416  67.6177406
  81.6734791  53.1638813  67.4462128   2.9827065  81.0061073  92.2444344
   2.5880188  81.7140007  92.7536774   3.6786122  80.6657696  92.8066826
  48.9009250  92.2421680  11.7934374  48.7151588  93.1804858  11.7576365
  48.4063018  91.9288026  12.5506644  27.3428995  19.0227126  15.5988268
  26.5167219  18.8272142  16.0409121  27.0821745  19.4359397  14.7757296
   1.9553799  41.1288309  61.5583849   2.7465576  40.9203768  62.0551968
   2.2259373  41.0715103  60.6420088  65.9877474  11.8433189   2.3248820
  66.6128332  11.4868783   2.9561190  66.5112669  12.4208926   1.7694048
  18.2039512  92.3067365   6.0518794  18.7022556  92.3720442   6.8665366
  18.7346042  92.7761541   5.4082350 103.1517982  91.9158173  84.5340061
 102.2062492  91.9891834  84.6635628 103.2842064  92.1286774  83.6102200
  80.4713440  49.8234224  92.9159641  80.2073097  49.4536161  93.7584400
  79.9664021  50.6331396  92.8410149   7.2177643 100.4954910  76.1659384
   6.6490120 101.2312031  75.9390306   7.8340763 100.8568001  76.8030024
  72.7309401  22.7782726  14.3252711  72.2123510  22.7928018  13.5208468
  73.6355383  22.6884460  14.0254836  89.3890381  78.2245588  64.7206450
  89.2185116  78.0479860  65.6458330  90.3275299  78.0680323  64.6159601
  95.3695107  67.0330667  79.4986010  96.1998177  66.5690327  79.3914175
  94.8744774  66.8243265  78.7063885 116.6638822  97.0268927   4.7808508
 117.2532004  97.4748002   5.3877406 116.8575353  96.0972415   4.9011569
  99.9311352  77.5066376  84.7455406 100.4685879  77.6474237  83.9660835
 100.3179646  78.0773973  85.4094887 102.5735664  69.8338938  84.1237831
 102.0151424  69.6410465  84.8769093 102.0034313  70.3071547  83.5178089
  95.8359432  34.3876910  67.7842379  95.8186436  34.1666627  68.7154102
  95.0686741  33.9469481  67.4191666  79.3374331   9.6258163  13.7034182
  79.6663553   9.8328113  12.8286604  78.3848555   9.6559047  13.6144499
  56.6004259  32.7551889   2.4724726  55.9441359  33.0759477   1.8539004
  57.1627409  32.1833276   1.9499545  48.4856970   2.9566621   3.7049441
  48.4315283   3.4423065   4.5280222  49.0007479   3.5203599   3.1277041
 105.5893517  47.8135347  43.0977678 105.9037590  47.9182482  42.1997595
 104.9662590  48.5300732  43.2184696  15.7311214 102.6677190   8.2076792
  16.5076125 103.2236491   8.1424670  15.9381450 101.9031440   7.6702742
  96.0150814  51.5645313  70.9104443  95.4305267  52.1737528  70.4594612
  95.4275227  50.9631920  71.3680458  83.7870867   5.3997945   4.4160895
  83.9766295   5.4673766   3.4802775  83.8126261   4.4604635   4.5984129
  78.8379383  41.6567802  72.9878187  79.2566204  40.8394432  73.2578135
  78.2635546  41.8845415  73.7188721 101.6753578  67.0275068  75.3869581
 101.9719601  67.4834061  74.5992947 101.0502148  66.3774061  75.0663424
  91.3343889   4.1326808   0.2028231  91.8493445   4.5954608   0.8637957
  90.5661661   3.8146972   0.6771140  28.8851494  57.1923923  77.5680113
  29.1809887  56.6534567  78.3016729  27.9448170  57.0230389  77.5102854
  28.3920825 109.4924269  46.5003447  28.9287151 108.9778720  45.8974318
  27.5100673 109.4511424  46.1307864  82.9308128  80.8202171  92.8587818
  82.9931545  79.9761009  92.4117756  83.6055374  80.7826519  93.5366917
  88.3865070  21.2937188  40.7324409  87.9158497  20.5423737  41.0932589
  88.0020428  22.0513988  41.1732769  93.3876801  35.4613519  62.7719641
  93.6394882  34.5502114  62.9224586  94.0658569  35.9732032  63.2127857
 106.4846230  48.9756107  74.6224737 105.8115005  48.8907337  75.2976990
 106.0389709  49.4059181  73.8927698 115.2651596  62.5548363  53.1657457
 116.0348511  62.4156237  53.7174892 114.8248482  63.3103323  53.5550833
  95.9941483  72.6276636  73.7828541  96.0078621  73.2166672  74.5372581
  96.4175892  71.8281651  74.0954781 106.1571503  59.1219187  90.4223537
 106.9589233  59.6346903  90.5246925 105.8379269  58.9956284  91.3158798
  81.5369320  62.9272985  94.3886471  80.7650948  62.3627281  94.4305801
  81.7626476  62.9557276  93.4588718 101.1259651  51.7096567  92.0943165
 101.1079884  51.2667751  91.2459278 101.9261837  52.2344923  92.0736027
  67.2003157  23.1777047   0.4659895  66.4754660  22.7387904   0.9111647
  67.9864676  22.7686691   0.8277659  55.6175292  83.7193285  12.9883627
  54.8223842  84.2521106  12.9774813  55.9115756  83.7464510  13.8988833
 114.4516373  68.1569386  78.8867235 114.8355770  67.7255392  79.6500826
 114.4829082  69.0900135  79.0979767  19.2634816  68.3903933  59.3287230
  19.1696400  67.4485302  59.1861773  18.3665127  68.7244749  59.3201208
  73.1573582  43.3909845  50.0922775  73.1626415  43.7258768  49.1955900
  73.3971310  42.4684381  50.0048161 113.5040283  70.4556322  87.8992176
 114.0497398  70.8530617  87.2206306 112.6120472  70.7209206  87.6751232
  17.1076721  46.2948465  25.7139373  17.4833912  45.6044531  25.1676512
  16.8091244  46.9574022  25.0909448  99.2337990  54.6010637  80.5258179
  99.7355747  55.1495647  81.1288166  98.4046459  54.4447184  80.9778023
 103.2877922  48.0585623  89.8780251 104.2120075  47.8900242  89.6945858
 102.8899384  47.1890831  89.9221706  45.3849299   7.2350978  18.6101298
  44.5918066   6.6992235  18.6053519  45.7780726   7.0887327  17.7497534
 110.9940720  60.3535891  91.3679886 110.1702881  60.8111143  91.1998367
 110.7405853  59.4374561  91.4805412 109.2755032  72.6619434  80.4504585
 109.6504021  72.8414536  79.5882177 108.3297253  72.7287865  80.3190422
  89.7048664  54.6700478  83.5376549  90.3930092  55.2217770  83.9095306
  89.0724945  55.2891254  83.1728554 113.2377815  56.7448330  84.8544312
 112.3177052  56.9499922  84.6883106 113.2130337  55.9624958  85.4053974
 103.2471275  22.3803449  94.9473381 103.3558559  22.7183318  94.0584183
 104.1349030  22.3554564  95.3043652  94.7641468  24.1854453  64.6005774
  95.1874065  24.9241948  65.0379848  95.2232170  24.1072369  63.7642956
  92.2614384  36.6548777  77.9173946  91.9279766  36.7511368  78.8094521
  92.6995468  35.8038259  77.9159927  14.5354981  12.2473872  66.6577959
  13.5947270  12.1262217  66.7862606  14.6123642  12.6048315  65.7731724
   4.6754879  80.2551937  67.2438955   4.1484684  81.0509872  67.1717167
   4.0560669  79.5825672  67.5269508  81.1010170  63.2784319  72.9225445
  80.5710602  63.0934048  73.6978769  81.8104935  63.8345051  73.2445002
  99.7853088  96.7722511  65.3972578  99.8941708  97.0790768  66.2973928
  99.0386200  97.2694683  65.0633812 116.5011024  85.8580875  78.4625340
 115.7867718  85.2350998  78.3289528 116.3705158  86.5211582  77.7846622
  32.3128284  82.0294700  22.6848082  33.1316245  81.5384875  22.6158576
  32.5644553  82.8590260  23.0907111  89.2070181  10.3868102  15.4186682
  90.1486284  10.3793048  15.5905108  89.1239435  10.7966947  14.5576624
 114.9466228  60.8251333  81.0376072 114.1437149  60.3069592  80.9822273
 115.0034046  61.2699556  80.1919460  99.2506200 104.7221624  94.2455864
  98.4303075 104.3465160  94.5652866  99.3853646 104.3113851  93.3915710
   3.2159752  43.9630127  85.6058502   2.7923340  44.0573025  86.4590073
   3.7970967  43.2094193  85.7089710  20.8114112 108.5369502   9.4832663
  19.9279750 108.1750737   9.4138865  21.3881076 107.8038321   9.2683272
  85.3145409  52.8407049  92.6178551  84.4385815  52.7619267  92.9956245
  85.8834648  52.3791552  93.2339191  26.4911521  96.5232573  35.7462840
  26.9413532  97.3637353  35.6617503  25.7871879  96.6905795  36.3729147
 100.2748871  88.0326462  65.0827074 101.0042381  88.6525536  65.0808859
  99.9380302  88.0565071  64.1870594  18.0238957  53.8628340  86.1533928
  17.9973263  52.9084253  86.0853672  17.1383042  54.1440916  85.9234810
 103.0189419  20.1635623  73.0730391 103.8947487  20.5492520  73.0520201
 102.6313305  20.4034400  72.2313452 112.6016998  89.4365025  84.5136642
 111.8848610  89.9050713  84.9412441 112.3901367  89.4747353  83.5809135
 108.4113789  27.3149467  87.7482510 107.6528835  26.7369294  87.8307915
 108.7185955  27.1804094  86.8517303 104.4612598  51.9264746  82.4349308
 104.4230652  51.2843990  81.7260456 103.5604000  51.9860458  82.7529240
  95.4489803  56.9763279  43.0367994  96.3689804  57.1942759  43.1862020
  95.4739475  56.1514282  42.5518799  52.4941523   9.2328452  14.6950869
  52.3264582  10.0778722  14.2779021  53.1798060   9.4148683  15.3377203
   4.3454975  32.8692746  56.5076399   3.6565918  32.2161722  56.6305447
   4.8193211  32.8770161  57.3393011   0.8241219  66.2032938  94.6634483
   0.5979580  66.7597866  93.9181995   1.5818829  65.7001114  94.3653774
  20.5451167  91.7241083   2.2967963  20.4006255  91.1517893   1.5432601
  19.6892226  91.7815767   2.7215056  93.1511974  19.3526590  74.4952536
  92.4410439  19.9308264  74.7738695  92.7470684  18.7692630  73.8529444
  12.6080764  96.7820226   5.4048304  11.9234908  97.1917783   4.8759894
  13.0946410  97.5170337   5.7779841  42.3194964  53.0381631  12.1782641
  41.8153460  52.5107812  11.5586333  41.8883497  52.8951120  13.0208067
  15.0471462  89.6035062  17.9333834  14.1643871  89.8392854  17.6481299
  15.1642383  90.0704728  18.7607054  55.7500345   2.8288411  10.3147463
  56.4134390   2.7620410   9.6279578  55.7546503   3.7532472  10.5631022
  36.6451038  68.5301159  20.4095797  36.4387668  68.4518550  19.4781641
  36.6733421  69.4733177  20.5702166  79.1573126  42.3480653  16.5106062
  79.6656687  41.5682077  16.7333941  79.1174967  42.8488588  17.3253779
 110.1566696  81.5141678  93.2344055 110.0459766  81.8082142  92.3302364
 110.7919407  82.1245480  93.6087036   4.6329940   1.1773242  87.6801205
   5.5679668   1.1241187  87.8781509   4.2091144   1.2265337  88.5369396
  89.5240879  50.1749086  85.2960968  89.8012257  50.5498505  86.1320686
  88.7387562  49.6705151  85.5084324  28.6373932  12.1400880   4.3375163
  28.6755831  11.5635490   5.1006560  29.5480473  12.3891448   4.1796927
  88.0599308  41.0050440  80.5173492  88.9541340  41.2838507  80.7145786
  87.5332737  41.7973614  80.6227016  88.6007309  78.0088711  88.7460327
  89.0066910  78.7637997  88.3199787  89.2407894  77.3042727  88.6454964
  52.9014475  15.3132343   6.5528636  52.9927809  14.9934291   5.6553034
  53.7963850  15.3344869   6.8917899 104.1673279  43.7562704  95.0894547
 104.8604107  43.1254911  95.2843380 103.7159443  43.3889627  94.3294811
   7.8545899  44.3026066  82.3566914   8.6751026  44.2272854  81.8695450
   8.1252617  44.3759441  83.2718849  78.6944008  40.2003574  80.8856869
  78.6625528  41.1285973  80.6542015  79.3219662  40.1547909  81.6070175
  16.6885895  26.0808730  68.1212854  17.5233311  26.5456820  68.1794977
  16.6006321  25.8617592  67.1936655   0.8665890  29.0800381  71.1139727
  -0.0116211  28.7418270  70.9390736   0.7294030  29.7894740  71.7417526
   8.8678784  99.3305969  92.2446918   8.8535733  98.3735752  92.2329712
   9.7894425  99.5578957  92.1210766 111.1033344  50.6540632  85.1849842
 110.2901745  50.3760672  84.7634220 111.3908386  51.4112949  84.6749020
  89.3844986  88.3050823  91.7863274  88.7775707  88.6527443  91.1328793
  90.2464485  88.6019516  91.4945316  35.4294551   6.1552752  38.1659961
  35.3428615   6.5456522  37.2963166  35.4452384   6.9028414  38.7635970
  91.4236736  70.6458044  86.5108490  92.1235371  70.2373838  86.0013199
  90.6195164  70.3990078  86.0540581 103.8039207  84.6425724  93.4029770
 104.6457958  84.2109585  93.5485744 103.1565571  83.9445019  93.5021973
  30.5651725  85.6905494   7.0176844  30.2967227  86.4146314   6.4521174
  29.7428287  85.2993236   7.3125128  94.0953255  79.0655088  85.8696365
  93.1869411  78.7761545  85.7838917  94.0311337  79.9973154  86.0790253
  48.8373435 107.4637185   4.1486792  49.7276939 107.1184407   4.2142539
  48.8801444 108.3192168   4.5758967  50.7765181   0.5741452   0.1023631
  51.2016470   0.4746293  -0.7494588  51.4873869   0.4832935   0.7368998
  95.9301662  51.6151810  78.7460232  95.8695889  51.8317652  79.6764278
  96.2241745  52.4256134  78.3300972  60.6011343  97.1729755  83.2852840
  60.9391117  97.7624226  82.6110840  60.2759886  97.7555466  83.9716721
  49.1820300  62.2359691  20.3901629  49.5025790  62.8562026  21.0449843
  48.3624519  61.9034754  20.7561926  66.5941126   8.6549186   8.3627944
  65.7099230   8.4586381   8.0531077  66.4691431   9.3239354   9.0358691
  42.5101740  28.9571332  11.0862498  42.7402765  29.8795270  11.1978583
  42.2652418  28.6635064  11.9637637  88.0337698  21.1065482  11.7686514
  88.9430887  21.3624524  11.9232039  87.5831968  21.3178825  12.5862937
  80.4295635  68.3171272  93.1312275  80.6181908  67.8769684  93.9600277
  80.9813118  67.8682756  92.4906540  88.6504555  77.2174168  74.6204901
  89.2253780  77.4619818  73.8953066  88.2046700  78.0306435  74.8574781
   5.9318680  45.5962658  85.2196598   6.4922566  46.2664843  84.8285198
   5.6615204  45.9697771  86.0584831  69.7326738   1.5832567  32.7988104
  70.6617338   1.4592981  32.9930548  69.5575602   0.9836959  32.0734934
  90.4625797  54.2712498  87.6894665  90.3646946  54.8086691  88.4754848
  91.2406349  54.6212006  87.2554111  32.2217697  99.0237236  86.6548347
  32.4482960  98.1063080  86.8073559  31.4299912  98.9888859  86.1180782
 113.8918114  64.3766260  83.0633068 113.2224846  63.9602280  82.5203133
 114.6737289  63.8400698  82.9331398 104.7329903  48.7466097  63.2106781
 104.6208572  47.8904819  62.7975178 103.9017200  48.9078760  63.6570120
  73.1920433  35.9782791  74.1243219  72.4583626  35.3908253  73.9430952
  73.8808632  35.6935310  73.5237598  67.9820425  27.2920179  10.8138709
  68.5947878  27.8625154  10.3498415  68.4333689  27.0672082  11.6275076
  94.8383028  39.9198484  10.9243445  94.1742975  40.3366803  10.3751807
  94.3615133  39.2427110  11.4043288  10.9772248  68.7145901  67.0385122
  10.2932591  68.9333773  66.4056253  10.5010456  68.4926033  67.8386402
  99.3618679 101.5158558  83.1235695  99.8372459 102.2570515  83.4989166
 100.0471687 100.9122181  82.8368282  95.0076563  10.2988576  30.3496794
  94.5314867  10.6039428  29.5774035  95.7889349  10.8508777  30.3828959
  28.6217064  48.3243322  82.6576805  29.4225640  48.7988663  82.8805542
  28.2096237  48.1402254  83.5017967 110.7013130  63.5837126  55.2915573
 110.2157974  64.4078112  55.2545023 110.7106781  63.3528090  56.2204409
  44.2893565  93.4870635  17.0489554  43.6169399  93.2295595  17.6796584
  44.9780906  93.8843213  17.5819258  91.0691547  91.4033890  65.9295559
  91.3198566  92.2503281  65.5606794  91.3292503  90.7660198  65.2644634
 111.3818836  68.1017017  70.7937860 110.9366608  68.6587620  70.1552773
 111.9696236  68.6954212  71.2610054 102.5497723  55.3221178  87.1366882
 103.3137512  55.1811123  86.5775108 102.9088497  55.3832340  88.0218697
 110.7999420  19.3917441  86.2388706 111.1380482  20.2258754  86.5646648
 110.0649452  19.6347153  85.6758690 110.0708580  25.6354690  59.9578762
 109.3572712  26.2420368  59.7601414 110.6054783  26.0970449  60.6039143
  89.0269279  36.0586214  56.0884762  88.5487461  36.7995024  55.7160950
  88.5181618  35.2904367  55.8291006 115.3258228  54.3596554  50.3024912
 115.2159786  53.4089804  50.3220510 115.9937572  54.5098686  49.6335030
  21.5589107  89.2188106  26.0119395  21.5348018  88.5661183  26.7116885
  22.4801696  89.4715701  25.9518103 102.3064995  73.4456587  94.7875690
 102.5772476  73.0007029  95.5906487 103.1275940  73.6932898  94.3624687
   2.1983856  47.7654076  94.8614883   2.4206967  47.5008059  95.7541275
   1.6029972  48.5066175  94.9726582  36.5875018 103.9313613   0.2367835
  36.4269984 103.0262576   0.5037264  36.0777057 104.0382157  -0.5662866
 115.2725983  65.1113653  64.9597597 115.6502819  65.4225206  64.1371012
 114.8983192  65.8947086  65.3628922 115.3323460  15.9317219  59.1028023
 115.9961033  16.1330700  58.4431648 115.3901577  14.9833679  59.2190599
  61.7396606 106.3048802   2.6301150  62.0497573 105.7998191   1.8784575
  61.7437995 107.2127448   2.3268084 111.7154026  69.8742533  59.8126936
 111.7549992  70.3174210  58.9651871 112.3022556  70.3798628  60.3750086
  95.5222988  60.7517624  81.5762424  95.7100391  59.9329376  81.1174202
  94.8137569  60.5306339  82.1806335  87.6574802  31.0144806  73.2525587
  86.8875217  30.6083679  72.8544855  87.4105263  31.1505985  74.1672802
  80.7676029  48.7270260  58.6582613  80.8527946  48.6615133  57.7071142
  81.6159916  48.4389639  58.9951324 102.7528667  64.2205000  86.5701962
 101.8509388  64.5333767  86.6399670 103.2872486  64.9690723  86.8353653
  35.6173194  80.2409802   6.4996962  35.8522380  81.1081539   6.8299250
  36.0622848  80.1779090   5.6545500  97.9507637  59.3415928  53.0445862
  97.7543831  58.9806557  52.1800709  97.1066666  59.6526432  53.3716583
  47.5161917   0.2191686  14.7172408  47.7334101  -0.0537396  15.6086306
  46.5960295   0.4787444  14.7637515 106.0935402  43.4260368  43.0218840
 106.8725491  42.8744602  43.0935574 105.4076672  42.9312468  43.4702015
  97.4016380  39.6255469  88.4801197  97.8899956  39.8241091  87.6811790
  96.6385841  39.1327906  88.1781960  54.0660632  99.1380034  16.5829329
  54.2638744 100.0723897  16.5195136  53.2486594  99.0993939  17.0795207
  39.1699184  81.3402448   1.5043215  39.6341766  81.6915284   0.7445197
  39.8602164  80.9813844   2.0619349  15.8934826  56.6815233  82.1431255
  16.3771576  57.1146679  81.4398003  15.4632801  55.9403181  81.7167759
 114.8962688  72.4736881  57.1395397 114.7113323  72.7169609  58.0466509
 114.2352962  72.9393196  56.6271687  67.1241379  55.9378481  81.5470028
  67.2569704  55.1783466  80.9797859  66.2777710  56.2937689  81.2764072
  62.9455900  63.1644201  88.9199352  62.8850269  63.2786655  89.8683548
  63.1268120  62.2319460  88.8020992   6.3041539  34.5365143  85.7512283
   6.1895699  34.0248013  86.5520096   5.8309788  35.3516722  85.9181213
  23.6198372  40.7856989  60.7031631  24.3366761  40.5121088  61.2754583
  23.6226410  41.7414379  60.7559538  98.9861488  65.3847933  93.5215092
  99.3608952  64.9370575  94.2800045  98.0596161  65.1448107  93.5353565
  20.6269897  87.1384536  19.0268187  20.6493057  87.9137288  18.4658579
  21.5321983  87.0268546  19.3172888 105.8255404 100.6065379   1.7946772
 105.4122371 100.7355128   2.6483683 106.7626494 100.7005606   1.9656138
  43.5285647  22.1164846  33.9124827  43.2645304  21.7299413  34.7474150
  42.7208407  22.1549463  33.4002833   0.8768791 109.5681381  75.5738783
   1.5510220 108.8939953  75.6592607   0.2019257 109.3129253  76.2027931
  21.0962737 110.1708136   5.3658537  21.1777747 109.4544802   4.7362093
  21.9092334 110.1400147   5.8702330  22.2715897  63.9912081  87.3093224
  21.8725533  63.6899996  86.4930725  21.5290589  64.2015219  87.8755856
 108.6431789  89.9007893  77.5936604 107.8781033  90.0363064  77.0346117
 108.8595009  90.7744503  77.9194880  96.4222336  48.2737875  68.3380556
  96.7084599  47.4341583  67.9784298  96.9685078  48.9229059  67.8948164
  79.8022318  73.6076164  93.2878017  79.2811203  73.0266333  93.8420010
  80.6094742  73.1205130  93.1225204 107.8631687  49.8873615  27.7394843
 107.4427605  50.4578495  27.0960307 108.2422161  49.1785669  27.2197104
  42.0293886  39.1222333  33.5554938  42.3431570  39.3438196  32.6787524
  41.6511805  38.2480478  33.4606795  34.9165327  46.6218614  12.9123644
  35.5583698  46.3829755  12.2436289  35.4302961  47.0567083  13.5929541
  26.7823643  59.5940351  46.1198378  26.9092984  59.4500589  45.1820803
  26.7112774  60.5444384  46.2087774  64.5650656  25.3168248  21.4692549
  65.2578909  24.6599340  21.4005045  63.7814695  24.8733806  21.1443476
  35.2975792  83.4651375  66.3624191  35.8502907  84.1863728  66.6633463
  35.5303807  83.3534336  65.4407024  74.1854555   0.8477115  13.9422087
  74.6277601   0.4290962  13.2037310  73.8033850   0.1217222  14.4353537
  70.7309961  77.0675659  93.3934402  71.4293575  76.7453384  92.8236198
  71.0056257  76.8153095  94.2750168 109.3928432  73.3001089  62.1656799
 110.0752735  73.5251570  62.7980328 108.5822201  73.3093929  62.6746416
   9.6075577 107.5584030  60.1682901  10.1270909 106.9957638  59.5940495
  10.0894493 108.3850670  60.1935577 111.9862843  86.5461731  54.4939899
 111.0947514  86.8070507  54.2630386 111.8940735  86.0952187  55.3332520
  46.2928850  20.9112977   5.9315638  46.1791784  21.7914819   6.2901454
  47.2124369  20.7025718   6.0961298  68.7147505  31.9091939  14.8190169
  69.3892367  32.4918603  15.1680140  68.0353624  32.4984693  14.4912867
   6.0479874  65.7474136  86.6887474   5.6135983  66.0485554  87.4867725
   6.7536492  65.1802683  86.9995975  98.0434305   9.4261932  28.1296877
  97.5756056   9.0463208  27.3860030  98.9431936   9.1148710  28.0309729
 111.8929672  61.5970087  93.5342026 111.2135029  61.4487696  94.1919231
 111.4799404  61.3567495  92.7048016  27.5622428  12.2328032  89.6382332
  27.8810371  11.8896235  90.4729939  28.1439269  11.8473948  88.9829922
  16.1602939   8.6934317  84.8989582  16.4600528   9.3481101  85.5296516
  15.6968272   8.0449141  85.4289150  90.7795221  20.9072398  25.5545573
  90.7466585  21.1117267  24.6200327  90.8805163  19.9559736  25.5881838
  71.9882471  42.6209497  13.6527304  72.3438341  42.5626611  14.5395140
  71.2932379  41.9631814  13.6296515  54.1629774  61.5769338  10.5180697
  54.4747049  62.4669980  10.6819014  54.8577768  61.1714982   9.9993186
  92.8357029  65.7011938  72.6565790  92.1018314  66.2765074  72.4404955
  93.1044579  65.9749126  73.5335541 108.6267376  82.5011253  74.1053963
 109.0878868  81.7381096  74.4537973 109.3031025  83.1736565  74.0249968
  67.2648764 100.2626419  76.0438013  67.7247620 101.0934925  75.9236670
  67.8420115  99.6099377  75.6474161  20.6601853  96.1254120  83.0971146
  20.6791634  97.0042515  82.7182770  19.7463078  95.9929085  83.3491230
  32.7205069  45.3724908  15.0843863  32.9197008  45.8641385  14.2876105
  33.3532841  45.6921338  15.7275443  59.3402559  45.2911710   7.2814517
  59.3030150  44.6453428   7.9869608  59.3503172  46.1363458   7.7306895
  42.9998267 100.6699143  17.4587206  42.1702159 100.3556596  17.8182082
  42.9433215 100.4778586  16.5226893  64.5840532  14.8488712  10.9757285
  64.4099219  14.5265865  10.0913958  65.4570181  15.2377319  10.9213690
 102.0735741  72.3460197  78.3364296 101.6110992  73.0667925  77.9088259
 102.0206928  71.6231251  77.7112436 113.1012249  82.2745800  74.2629910
 113.1731415  83.1802845  73.9617205 113.4479141  81.7531109  73.5390377
  20.6736225  54.0648127  74.9708176  20.8756108  54.6045542  74.2065477
  21.4802975  54.0677929  75.4860926  94.6174049 102.9035568  76.1164284
  94.5270729 102.7195168  77.0514202  94.3772125 103.8260555  76.0296011
 106.7990017  73.9904165  84.9257469 105.8896732  73.9508629  84.6294689
 107.2571278  73.3524132  84.3786621 109.1404326  23.9294194   4.6505312
 108.8234598  24.7979402   4.8983721 109.9905188  23.8521051   5.0836710
  11.7764420  81.0462761  71.1048651  12.3756165  80.5548191  71.6667175
  11.0959381  80.4152203  70.8705235   4.9268002  43.9475060  82.7387047
   4.7467942  44.0465784  83.6735916   5.8334965  44.2370987  82.6373672
   2.7939266  42.2141123  66.1090946   2.2960800  41.9225502  65.3453064
   2.1290726  42.5217819  66.7251682  34.3695987   0.9926356  76.2171650
  34.2540515   1.7311991  76.8149900  33.9240134   0.2634467  76.6484165
 106.5367317  47.0287418  72.1795988 106.8216991  47.4773264  72.9757166
 107.1589375  47.3116732  71.5094900  90.9002972  45.6388569  76.1847162
  91.1848831  44.7718859  76.4738464  91.2475300  46.2377357  76.8457747
 101.0561371  37.8967571  84.6717072 101.0603428  37.4082375  85.4948521
 101.9715214  37.9025269  84.3919373  95.9826660  78.3722925  70.5835819
  95.1538372  78.5134077  70.1260328  96.6300392  78.2824612  69.8842478
 101.8391895  61.9417000  78.6103106 102.5529480  61.3099337  78.6977530
 101.4880848  61.7865467  77.7334499  89.4830132  63.1066418  65.7025671
  90.1273918  62.4877596  66.0460663  89.4249344  62.8989983  64.7699690
 101.4425373  86.8187237  71.6969347 100.5260563  87.0635033  71.5689421
 101.9169521  87.6499271  71.6807747  99.6011734  63.9311457  78.3997679
  99.9777126  63.2086849  78.9022636 100.3584576  64.3923998  78.0392265
 105.2540779  89.1386890  62.5245714 105.8972359  89.2458439  63.2253456
 105.3959370  88.2482052  62.2033834 112.8931713  87.5807762  75.0468588
 112.3804092  87.5900459  75.8550835 112.7428246  88.4423733  74.6579266
  62.7645571  22.2384786   4.2314581  61.9380457  22.5097799   3.8320879
  63.0175192  21.4521360   3.7478213  89.5572853  96.3907242  80.1635170
  89.5009422  96.0551357  81.0581875  89.5613384  95.6072330  79.6136427
   1.7099423  90.5789089  40.2456570   1.7758412  90.1346970  41.0909700
   1.2619252  89.9506760  39.6792293  87.4116325  63.7245989  78.3034563
  88.0790997  63.9256763  78.9594221  87.6585293  64.2492819  77.5418949
 109.5623875  99.6773338  94.5212650 110.0476074  99.0714264  95.0813293
 108.6453819  99.4285679  94.6372414  94.9394131  79.5347166  65.9249973
  95.4712582  80.3262711  66.0075426  94.5205116  79.6158981  65.0681686
  87.9472906  34.0367460   6.0700469  86.9905932  34.0107202   6.0531382
  88.1809218  33.6963224   6.9336180  32.5491566  85.2752972  80.8693409
  33.4702153  85.2983189  80.6098080  32.0667118  85.3922367  80.0509262
   9.3533940  83.5861588  69.7016191   8.9638752  82.9686832  70.3206682
   9.5662922  83.0543327  68.9347601  99.5565987  83.5155964  83.7166309
  98.8491726  84.1602707  83.7302971 100.2257824  83.9062023  83.1546211
  74.1914255  18.2454776  17.8755621  74.5986445  18.4795331  18.7096076
  73.2508356  18.2893657  18.0476145  21.7009491  54.1839266  64.6389198
  22.6561875  54.2320108  64.6008730  21.4312596  55.0389576  64.9742079
  16.5353817  76.9508886  76.1310530  17.1627087  77.3804140  76.7126036
  16.9568390  76.9650269  75.2717495 101.8249607  88.1001282  76.8836164
 102.2920513  88.4296608  77.6513815 102.2874165  87.2955704  76.6489840
  49.1090835 108.6537467  18.8482337  49.8327697 108.4201442  18.2669119
  49.4617522 109.3506013  19.4016222 105.0171835  45.3047704  12.2621302
 105.3062708  46.2107896  12.3707728 105.7929022  44.8422384  11.9450335
  90.8870983 103.7207508  77.4619150  91.0901928 103.0715275  78.1353331
  90.1896477 104.2528915  77.8448200 105.0625896  44.9742603  68.1412029
 105.5147743  44.1308069  68.1225586 104.1539097  44.7543764  68.3465910
 101.5877533  65.6815386  77.7412510 101.6289043  66.0749769  76.8696165
 101.3142490  66.3975859  78.3145714  92.4126513  32.9502343   8.0246691
  91.8064959  33.1771898   8.7298636  93.2155115  33.4264802   8.2364039
  72.9856075 102.4492560  20.4060130  72.2326244 102.1683942  19.8860507
  73.7350429 102.0196734  19.9936633 106.8255138  73.5825205  79.5920563
 106.4405727  74.1123295  80.2901554 106.1325741  72.9693651  79.3468904
  58.6829532   0.9917296  64.0782070  59.6339858   0.8834494  64.0839863
  58.3403171   0.1061190  64.1987562  93.9874458  84.6275139  69.3256426
  94.2308140  84.2067432  70.1502419  93.5215378  83.9480019  68.8383865
 115.0873280  86.6847801  84.6262264 115.7118130  87.0753765  85.2375221
 114.6813869  87.4327087  84.1879940  71.1308462  54.1036462   5.3209548
  71.4812739  54.5949601   4.5779566  70.2983172  53.7526845   5.0047831
   3.2607121  61.3096666  69.4584608   3.2927841  60.6605673  68.7556982
   2.6114983  61.9487906  69.1647387  62.7236159  24.1255998  11.5095858
  63.6419661  24.3753433  11.6120486  62.7402861  23.4044647  10.8803610
 113.0608940  66.5480185  69.4829369 113.1021309  65.9968472  70.2644396
 112.2926903  67.1021461  69.6209240  63.2629854  47.8821801   4.1247038
  63.0418284  48.8054227   4.0024142  62.4213297  47.4523782   4.2767481
  31.8154223   3.1967592   2.4254660  31.3141234   2.8787565   1.6745905
  32.3313315   2.4410199   2.7064185  73.1400568  59.8766565  19.0068774
  73.3052427  60.5922174  19.6208243  72.3935492  59.4081640  19.3803458
  59.6916849  27.2479581   2.6721339  59.7489149  27.1303319   1.7239146
  60.4831965  26.8316221   3.0133299 104.5034218  74.2860794  60.3502131
 104.6815681  74.0783024  59.4329786 104.4918919  75.2427101  60.3812170
  74.7159243  68.2064676  80.5490971  74.7255230  67.7577066  81.3945293
  74.6778202  67.5006199  79.9036837  96.6910934  75.0659943  89.6207714
  95.7497215  75.0864840  89.4486141  96.7647839  75.2005672  90.5655956
 104.5791721  95.4053020  94.3164253 104.2954636  94.4940376  94.3895054
 103.9773273  95.8895969  94.8816395  20.3732342  69.9856853  73.7677431
  19.9085182  69.5681763  73.0425167  20.9840054  70.5893660  73.3449507
 105.6602859  79.2444897  59.9971437 105.4275417  79.8822498  59.3223667
 106.4909554  79.5624399  60.3508854  69.7099383  82.7119874   1.4062075
  69.8971922  81.8802022   1.8412928  70.2500517  82.6959276   0.6161074
  17.1180404  98.9618264   0.8096842  16.4855731  99.6781503   0.8653693
  17.9390205  99.3423854   1.1217741  94.2778683  59.4976616  69.9296522
  94.5277882  60.0357962  70.6807709  94.8751068  58.7503052  69.9611425
 104.6090586  49.5619058  27.2698645 105.5601294  49.6052884  27.3689608
 104.4614298  48.8030099  26.7054801 111.8842220  93.5614681  78.8917589
 112.6464176  93.8858032  79.3714476 112.2539043  93.0890083  78.1458712
  16.4935440  56.9128180  93.8736725  16.5055603  57.8543234  93.7014675
  16.0051388  56.5411949  93.1391048  37.4692005  64.5392895  56.8698359
  37.8044648  65.2628803  56.3404512  38.0500168  63.8056946  56.6680336
  30.2651180  77.2048221  23.3883528  30.6133426  77.4690781  22.5367980
  30.9880889  77.3506723  23.9984946   1.7798371  63.7750053  71.9869089
   1.8383736  64.7297192  71.9504595   2.6506943  63.4716845  71.7303181
   4.1908497  92.4777508  74.7195244   5.0643009  92.2602844  75.0451279
   3.7431092  92.8621006  75.4732037 101.3975620  52.8854847  89.0718079
 102.1557713  52.7530718  88.5027504 101.4339638  52.1577358  89.6925259
  29.5728666   1.6366481   8.3540587  29.1880304   1.3543796   9.1837935
  29.3551094   2.5667619   8.2931761  73.1203348  27.0985746  11.0671191
  73.3095724  26.1699819  10.9324412  73.8874895  27.5524091  10.7181887
 111.5168571  72.9445076  60.3590393 110.9494400  73.0947542  59.6029329
 110.9405613  73.0508995  61.1158705   8.2171482  88.8069057  78.2094145
   8.6608834  87.9652214  78.3138084   7.8824562  89.0111446  79.0826273
  94.6531296  58.8915873  93.6679935  93.8634872  58.6588192  94.1563797
  94.8180771  59.8052883  93.9007378   5.0386584   9.1970671  54.1759443
   5.1497520   8.7943591  55.0371742   5.9162296   9.4941844  53.9354706
  14.1697640  91.0864544  71.0109091  13.3414120  91.0923576  70.5313063
  13.9210362  90.9000683  71.9162416  19.7351135 104.6540461   4.7617106
  20.5002654 105.0184260   4.3167452  20.0971378 104.0178643   5.3785090
  82.8944111  58.7481833  92.7317333  82.4151993  58.6774731  93.5573101
  82.2121906  58.7896681  92.0615959  17.5593418  87.9927635  71.0782146
  17.3542160  87.4786472  71.8591356  16.7064041  88.1949329  70.6936932
  87.6178932  97.1179867  91.6846752  87.1980286  97.9777527  91.6572285
  86.9406033  96.5110397  91.3861370  24.4086326  99.4214307   6.0034995
  25.1517642  99.9802647   6.2308459  24.5749343  99.1582881   5.0983290
 115.4716379  23.1927585   3.6200003 116.2328322  22.6133155   3.6526064
 114.9300654  22.8373193   2.9153018  88.8380797  32.0247793  35.7232241
  88.8714392  32.9789876  35.6553797  89.6218283  31.7925309  36.2212615
  19.2501701   5.0167025  72.1997976  20.0213683   4.7446764  72.6972723
  18.5434783   4.4629038  72.5316525  30.3573304  98.3614706  55.1161528
  30.4539329  99.1756462  54.6221685  30.4664308  98.6218606  56.0307693
  70.6874895  22.3935199  72.6080894  71.4029360  23.0223703  72.7025080
  71.0691452  21.5555024  72.8694344   4.9869519  91.0312592  47.0957422
   5.0136596  91.7438256  47.7343082   4.0656644  90.7736253  47.0627403
   4.4955998 106.7158841  60.8600664   4.0004998 107.2954946  61.4389992
   5.4071122 106.9848084  60.9743404  70.4554510   5.6113338  73.6421633
  71.0948277   5.5247551  74.3492270  70.2110767   6.5367579  73.6522198
  86.0965824  36.3139176  63.6003399  85.5770206  37.0342183  63.9573431
  86.9781303  36.6759396  63.5106993 105.3302574   1.7342038  44.9693632
 105.2245903   1.6845956  44.0193081 104.4717884   2.0085716  45.2918291
  92.7997589  22.8481603  65.9593296  91.9430065  22.9245853  65.5393696
  93.3732796  23.4092236  65.4373121  61.4713651 103.7554937  86.8405151
  62.3899633 103.4923356  86.8967533  61.5020162 104.6940630  86.6551018
  65.2374601   9.3124461  63.3715725  64.6326733   8.7368482  62.9034328
  65.9734821   9.4264102  62.7703142  72.6118088   9.9399322  79.0417242
  71.7063665  10.2018118  78.8749027  72.5425339   9.0583074  79.4080162
  78.2473469  12.0951474  80.1551914  78.7610006  12.9017532  80.1973248
  78.7879944  11.4433205  80.6013393 115.4306316  28.8100767  59.2882395
 116.3532639  28.6735082  59.0729809 114.9858379  28.0392170  58.9358759
  69.1841793   8.1562483  82.0799828  69.0201378   8.2730734  83.0157566
  70.0141287   7.6810646  82.0398045  64.6822882  28.0749321  41.9927168
  64.4332218  28.5829949  41.2206602  64.6638250  27.1648359  41.6967154
  94.4139385   8.4268677  87.9958916  95.0506306   7.7484405  88.2208061
  93.6617947   8.2458025  88.5595703 106.9158715  35.3774689  18.6668639
 106.9813222  35.9438358  19.4357352 107.3507041  34.5661317  18.9293055
   9.6000415  94.4841050  40.3712320   9.9152165  93.7220859  40.8572578
   9.0685826  94.9682378  41.0032129  94.6982098   8.0535430  64.8055601
  95.3244877   8.1789315  64.0926170  95.2149963   7.6686943  65.5134106
 106.0100860  50.8498855  34.4740252 106.2320823  51.6957922  34.8631148
 105.1109713  50.9575178  34.1637854  47.1506578  74.4700490  48.9064550
  47.1196347  73.9554726  48.0999327  46.7184239  73.9189803  49.5589352
  99.4742775   2.8707421  61.6752148  99.5633221   3.8213649  61.7431736
  98.7046909   2.7412868  61.1209440  69.2617178  24.4242811  76.0390043
  69.3976355  25.3202891  76.3471079  70.1402569  24.0454578  76.0090160
  92.3013496  59.5867252  71.8399191  92.7187157  60.2577114  72.3801279
  92.7022743  59.6904516  70.9769392  61.4408445  13.5955703  61.0174608
  61.9006205  14.4145226  60.8326530  61.1787367  13.2685769  60.1568747
  80.1890373  16.6355813  67.2810984  79.9685478  16.9248116  66.3956833
  80.4287720  17.4390709  67.7427959  30.3154147  57.5413081   0.2414088
  30.2167190  57.4502021  -0.7063241  30.0934184  56.6777019   0.5894522
  83.5677147  22.0535088  52.5815630  82.6150608  22.1253800  52.5223637
  83.8962460  22.7478623  52.0104408  58.7306786   4.0310282  80.9183884
  59.4414377   4.0273562  80.2772617  58.8262224   3.2016718  81.3866520
  30.0851279  92.4560331  93.9984894  30.8612519  92.2260236  94.5093250
  29.6753007  91.6155433  93.7939167  59.9041444 104.6248918  73.1575680
  60.2209645 105.5263745  73.1011295  59.1533738 104.6714913  73.7495232
   2.1181340  15.0813067  59.5825577   1.6419262  15.7388675  60.0895739
   2.3631138  14.4149959  60.2246237  42.9841691  99.3857061  86.7501259
  42.1847039  99.8875367  86.5911865  43.3103543  99.7138952  87.5880527
  30.0844842  92.3292099  83.0712795  29.3082791  91.9326877  82.6756668
  30.1183969  91.9603859  83.9539146  96.5756416   9.2893851  39.9037623
  96.1477852   8.5083842  40.2547789  96.9594288   9.7168076  40.6694269
  80.6781673  39.6124673  47.3450947  79.8477316  39.6720028  46.8728065
  80.4893875  39.9795008  48.2087374  85.3806859  81.3648211  35.4752636
  84.9999314  82.2362052  35.5845690  85.8379823  81.1981474  36.2994790
  88.4679395 107.8179119  69.2553997  87.5573999 107.8959871  69.5401096
  88.5982591 106.8787040  69.1244888  72.2006989  16.7242503  34.6099091
  72.6733446  16.8577576  35.4314995  71.3049889  17.0025468  34.8009276
  82.8806782  51.0788107  56.4205742  82.1259689  51.6486788  56.5685558
  83.5728836  51.4514303  56.9666815  75.5475235  11.7925227  71.7582321
  75.3742218  11.0782886  72.3714733  74.7740698  12.3531747  71.8187857
  51.4908868  78.5868751  23.1151891  51.3752824  79.2345368  23.8104582
  52.1290380  77.9672228  23.4687757  89.3248826 110.4256666  69.9993896
  88.8690740 110.3144913  70.8337259  89.0161019 109.6984261  69.4590139
  22.0324577  90.0368772  23.1006388  22.8015292  90.5796228  23.2743506
  21.5865958  89.9758492  23.9454512  84.3229198  29.8207498  56.3274050
  84.0473652  29.5888209  55.4405499  84.8510456  30.6111360  56.2151241
  35.5414945 110.4015198  88.9421082  36.0647946 109.6426870  88.6841106
  34.6983605 110.0326925  89.2053986  88.0605507  12.3815906  56.2579346
  88.5692215  11.6971481  56.6927004  88.3187294  13.1898534  56.7009735
  80.2196312  14.5510340  54.4269657  79.9566078  13.6516905  54.2314291
  79.4929075  14.9073923  54.9379587   6.9751531  89.4133603  80.6530857
   6.4719373  90.2236902  80.5732632   7.5878459  89.5814501  81.3690376
  80.3144455  39.5357728  67.4979639  79.8560953  39.1809511  66.7362213
  79.6251345  39.9383903  68.0261564  52.2085649 104.2657184  56.2134218
  52.7939778 103.6127495  55.8298111  52.7633744 104.7595160  56.8172216
  65.1391315  33.3022904  55.7171726  64.7429037  34.0714145  56.1266661
  64.4286346  32.9072237  55.2118540  50.5322820 102.2072773  78.3390188
  50.4168588 103.0939709  77.9974270  49.6575433 101.8204158  78.3015442
  81.4508629  21.0287189  57.2646761  81.2821579  21.1027455  58.2039833
  81.9279480  21.8284631  57.0432615  60.7958889  33.6163855  34.8630667
  61.4004183  33.9275074  35.5368423  60.0465727  34.2091393  34.9214005
  44.1400415 108.0849960  72.3060513  43.5151368 107.5350254  71.8335533
  43.6909181 108.3128350  73.1200600  86.2926292   5.1307052  72.4931812
  86.0763168   5.8723557  71.9280338  86.9120407   5.4873902  73.1298447
 114.3677825 100.3579818   8.2832388 113.6215323 100.3426753   7.6839785
 114.9707955 100.9941254   7.8986315  94.5974636  10.9606957  70.2028799
  93.6877155  10.7130444  70.3679943  94.9478340  11.1756670  71.0673237
 100.9391785  44.9227190  67.4100876 100.2339077  44.3807793  67.0563459
 101.2785435  44.4205332  68.1509447  76.7033291  26.5520406  76.7550945
  77.0905399  27.4245000  76.8266439  77.2000408  26.1261201  76.0564470
  79.4226074  22.8563476  89.1153431  78.9288187  22.2931337  89.7113323
  78.8763857  23.6359477  89.0148449 100.2516174  12.0210719  61.1167955
 100.3210735  12.5612652  61.9039440 100.4881668  11.1407304  61.4088202
  26.6286880 109.1127977  57.2388029  25.9638530 108.6962635  56.6904211
  26.3687831 110.0334130  57.2726965 116.7493057  60.7349968  67.1489620
 115.8137321  60.7550859  67.3502684 116.8128681  61.1052513  66.2685633
  87.8269386  17.7497792  67.5293159  88.3566380  16.9567192  67.4474478
  87.0327950  17.5600100  67.0297527 102.3229694  44.9705791  80.7384014
 101.3759422  45.0724316  80.8332348 102.5560284  44.2943859  81.3745499
  15.9456521 101.3757305  79.4222403  16.1623555 100.4921483  79.7198153
  15.4215079 101.7458611  80.1325226  94.1710281  51.3411808  66.8778372
  94.2923260  51.7620897  66.0267448  94.0030575  52.0650053  67.4812365
  19.9412137  92.5496375  47.4720430  20.2754432  92.6881241  48.3582401
  18.9985305  92.6985215  47.5456095  96.9588089  46.7439270  77.4321556
  96.2819958  46.7406988  76.7552900  96.5560436  47.1994305  78.1714296
  98.9161271  39.2320441   3.3033900  99.0303391  39.8003028   4.0651373
  99.2331189  38.3765720   3.5930686  47.5065041  17.7912593  88.6795235
  47.7892828  18.6792529  88.4610367  46.8743944  17.5663948  87.9967976
   1.0100377  72.7320848   4.9226527   0.1926053  73.1622968   4.6717505
   0.8744682  72.4731873   5.8341460  94.3000603  16.2888312  73.7700796
  94.6132755  17.0327699  74.2845535  93.3779049  16.2019157  74.0115499
  87.3208523   1.1528242   8.7789685  86.7208672   1.8665440   8.5624933
  86.9005489   0.7000505   9.5101178  96.6225815  11.2819660  54.0436792
  97.1242237  11.9974685  54.4343758  97.2815132  10.6301808  53.8044739
  62.3913050  33.0433989  93.7308121  62.1527290  32.2569513  93.2400799
  61.8251610  33.7284803  93.3753109  58.3618259   0.1455667  36.3838029
  58.2575512  -0.2178021  35.5044150  58.2138252   1.0848525  36.2739372
   1.8552459  69.9223243   1.9940714   2.1299804  69.6409772   2.8667693
   2.6176894  69.7592984   1.4387850  67.6086187  32.5486374  46.0016918
  67.5916195  33.5037851  46.0619831  67.0001411  32.3425722  45.2921009
  62.5768185   9.3506938  71.2118721  63.3223104   8.9973903  70.7264328
  61.8351746   9.2558891  70.6142044  14.4327241  98.9865874  46.8372345
  15.2824288  99.2083704  46.4563847  14.6418601  98.4002804  47.5643778
   6.5184575 101.5855294  80.7386971   7.1810180 102.2611271  80.5944347
   5.8988410 101.6999941  80.0181389  73.0597401  28.0828691  64.2713308
  74.0009737  28.0213332  64.1084576  72.9926777  28.4527111  65.1516438
  51.7520523   0.7802661  93.2829189  52.5489998   0.4923756  93.7281418
  51.0825968   0.1558735  93.5625648  42.8594953  67.5021564  85.4669094
  42.6280290  68.3971178  85.7153034  43.7592298  67.5675117  85.1468468
  75.1835871  16.7881858  76.5079355  75.0361586  17.2716880  77.3207855
  75.1154423  15.8675957  76.7611217  70.0161630 101.8866568  40.0310135
  69.7902089 102.6172107  39.4552851  69.2240220 101.3500475  40.0592089
  70.7015371  21.0962629  51.2216520  69.7712708  21.2486267  51.0554695
  71.1494875  21.7730880  50.7142258  60.9531194 106.0121199  37.5561953
  61.9048005 105.9097331  37.5487375  60.6363851 105.2697732  38.0708122
 114.9365920  62.8195296   7.2031645 115.5007428  62.9607932   7.9634432
 115.2787560  63.4156184   6.5369563  67.1799642 103.0417561  81.4326286
  67.7379972 103.4795569  80.7898521  67.6185876 102.2080450  81.6022396
  46.5494424  97.6097023  74.6726990  46.5801030  98.4361385  74.1907263
  45.6208783  97.4786412  74.8645735  82.1288300  19.0805352  82.4102306
  81.4182854  18.4539914  82.2730923  82.8971195  18.6595654  82.0245647
  68.9631271  14.2968059  53.2602692  68.4281778  14.4836545  54.0317249
  68.3469296  14.3272698  52.5284195 100.7722473   9.3522543  46.0878468
 101.4770699   8.8338125  46.4760113 100.3804779   8.7726885  45.4345036
  45.7536107  96.6144680  63.2674932  45.3388578  95.8023368  63.5584402
  46.2169725  96.3728165  62.4655342  89.5417404   1.3676792  58.3528519
  89.8724651   1.0045964  59.1744471  88.6214256   1.5621120  58.5302019
 111.9320315  33.3876739   6.8029933 111.0600299  33.1465016   7.1155409
 112.4853343  33.3487044   7.5831084  58.6881047 105.2653404  70.8609772
  58.5257989 106.0522737  71.3811922  59.4529134 104.8609691  71.2705898
  49.5418340 106.7107182  81.7775059  50.4458982 106.6282644  82.0809650
  49.4337636 107.6446520  81.5977287  96.2597370  28.1306124  77.8918457
  95.6951427  28.1219029  78.6647558  95.6564236  28.2320428  77.1556664
  73.4148407   8.0934590  87.6464272  73.1969786   9.0153241  87.7840328
  74.3674421   8.0570090  87.7327347  98.9829922  43.7456465  56.9050455
  98.9221001  42.8065348  57.0799398  98.4122753  44.1486359  57.5593472
 106.6978455  16.5724671  86.0085106 107.4888134  16.0335612  85.9948444
 105.9790802  15.9448528  85.9329605  71.0257864   7.3055375  54.0198421
  71.1112261   7.6661521  54.9023867  70.1412344   6.9406068  53.9948130
  60.7747221   2.1679305  83.3713722  60.3608561   1.3051689  83.3956909
  61.6712713   2.0119561  83.6681938  51.3004285 101.4872836  70.3442287
  51.8651372 101.9172709  70.9864426  50.4729158 101.3515257  70.8057833
  25.9105075  68.2017611   3.8258032  26.4333976  68.9781116   3.6255698
  25.1068843  68.5478268   4.2139678 107.9478264  62.3131847  31.4818692
 107.6403522  61.5176535  31.9164014 108.9006615  62.2794628  31.5667534
  79.0283471 108.0916793  62.1749735  79.9549180 108.1989535  61.9600821
  78.5696679 108.6383971  61.5370464  23.4661067  98.8246451  14.8712973
  22.5777114  98.5469542  15.0946288  23.9365829  98.0085288  14.7014956
  84.7699070  39.3406916  68.2282925  85.4973698  39.7615290  68.6864567
  84.1919422  40.0629330  67.9821873  96.9617748  18.8089120  80.6778526
  96.9877625  17.9182327  80.3282166  96.0876083  18.8911664  81.0590458
  86.3911724  42.7924776  55.1656294  86.8713760  42.5402308  54.3769550
  86.7755032  42.2587013  55.8610487  72.1460104  36.2278390  91.0229492
  72.2878408  36.5519500  91.9123745  72.5962019  36.8602514  90.4629421
  37.9423791 107.8374491  69.0533209  37.3073369 107.5291716  68.4068584
  37.8739625 108.7916244  69.0201569 101.4678955  40.2183390  69.2001963
 102.3668194  40.0637770  68.9098930 100.9785843  39.4614935  68.8777208
 112.7633065  84.2113958  14.9071173 112.3071212  84.1648041  15.7473235
 113.0986518  85.1069890  14.8659853  81.3038826  32.6234269  81.6279793
  80.4179382  32.2986913  81.4670849  81.6620541  32.7847338  80.7551003
 116.4458245  83.9992152   0.3188662 116.7905873  83.2234631  -0.1233812
 115.5982799  83.7204443   0.6655364  75.2961540  27.0969987  42.7615738
  74.7029209  26.8861103  42.0405769  75.7268667  27.9069471  42.4882603
  71.9661570   4.2844599  62.1696043  72.1257734   5.2225900  62.2728872
  72.7801752   3.8700762  62.4557686  17.4344582  31.1292458  70.2888441
  17.5616783  31.9639802  70.7396936  18.1367058  30.5690408  70.6193876
  87.3989582   2.0200938  82.1164894  87.6766109   2.5199288  81.3488293
  87.7866554   1.1539116  81.9913769  93.4041309  52.8477764  76.5741873
  94.0092945  52.1062899  76.5595818  93.8606453  53.5389996  76.0945749
  86.4750957  56.2951708  58.8662672  87.0936775  55.6560373  58.5125637
  86.9608116  57.1199465  58.8735294   8.5367817  20.5030489  85.2404118
   9.1375489  19.7658420  85.1316071   8.7062306  20.8212614  86.1271191
 112.0847607  30.5777311  32.1441078 111.4236641  30.2996159  32.7780151
 112.2967529  31.4760613  32.3976660  87.5849992 106.9771343  57.5485659
  86.6476804 106.7874159  57.5075626  87.7180940 107.3386147  58.4248352
  13.8336319  15.4119349  75.0628424  13.3688397  14.6627045  74.6902084
  14.2430634  15.8383608  74.3100071 104.1316986  27.8121519  70.6008768
 104.0953732  27.0157027  71.1305761 104.9440289  28.2414675  70.8692884
 115.9700584  34.9100709  52.1939135 116.6978550  34.3823934  52.5227118
 116.1872101  35.8055544  52.4531126  87.4898911  61.3309479  66.6185856
  88.1160450  62.0448971  66.4984465  87.8413582  60.8248377  67.3510790
  83.6610317  43.1045485  57.4118614  83.5941792  42.1616077  57.5622797
  83.9120388  43.4655190  58.2621098  98.5186672   4.1031000  94.3920135
  99.2833328   4.4410270  94.8581982  98.7700844   3.2175142  94.1297913
  22.6648772  66.0914503   6.3293032  22.3673499  65.2089237   6.1082701
  21.9763530  66.4417992   6.8944792  87.1284866  23.7243271  63.5722399
  86.2259197  23.6350369  63.8782597  87.0461464  24.0395141  62.6721811
  19.6876586  96.0394202   2.7613501  19.2046607  96.7597400   3.1664233
  20.5997527  96.3297234   2.7667002  86.9118118  42.7237844  93.2787323
  86.7911243  41.9403505  92.7421665  86.8546867  42.4076700  94.1804218
  62.5806427  22.2191143  44.4920397  61.9894123  22.5919557  43.8380766
  63.4212923  22.6455903  44.3257427  94.8832607  16.6269469  62.3306274
  94.6449184  16.3862514  61.4353657  95.6624985  17.1740448  62.2321653
  87.7151394  21.5988588  50.0023460  86.8201542  21.2593913  50.0013494
  88.1076145  21.2371373  50.7969236   0.8831752  88.8455735   4.9081568
  -0.0366341  88.6434279   5.0793795   1.2241615  89.1427098   5.7517581
  92.3591042  37.8464317  60.4133797  92.2206783  36.9341493  60.6679583
  93.2474041  38.0455065  60.7092428 109.7723389   0.9777323  86.6071510
 109.2206764   1.1586622  85.8461189 110.2693367   1.7849264  86.7400360
 113.0364323  63.2399654  65.7433939 113.8622952  63.6091566  65.4305410
 112.6046658  63.9661407  66.1933756 107.2966194  15.1265252  39.5520592
 106.7568779  14.4536316  39.9669433 107.3305035  15.8358085  40.1939344
  14.1469521  28.3459210  73.5259867  13.3793396  27.9761171  73.0898046
  14.8691410  28.1822014  72.9194593 113.4993667 103.8219033   6.5724139
 113.6020202 104.4688521   5.8744578 112.5606364 103.6356173   6.5901522
  32.3172265  67.6710187  18.8459098  32.9260903  67.9028665  19.5471692
  32.6516515  68.1316148  18.0763376  69.4134045   9.2432606  75.3413057
  68.6764574   8.6371702  75.4174519  70.1293039   8.8093752  75.8054829
 102.8139973  37.4866390  64.6423960 101.9545555  37.6238894  64.2439651
 102.6237869  37.0816493  65.4885864   5.2617783  43.7110472  57.6944065
   4.5045323  44.2906952  57.7769089   4.8869271  42.8310776  57.6574469
 106.2401867  28.5312271  72.3406887 106.6904640  27.7373075  72.6290941
 106.8224907  28.9113045  71.6828966 103.3639717  44.9602795  53.7284470
 103.9828300  44.6092463  54.3687820 102.5953007  44.3948030  53.8033152
 104.1941738  33.9546585  54.3901730 104.2760563  33.4920287  53.5562086
 104.3133354  34.8773193  54.1649485 102.4195671  29.6618843  34.3906546
 101.5216446  29.3835878  34.2103481 102.6854992  30.1375198  33.6037064
  68.2422876  60.3253889  81.5307903  69.0971041  60.7483578  81.4494419
  68.4445763  59.3973827  81.6495609  64.2057562  33.2828403  69.9118805
  64.5076275  33.9869237  69.3379688  63.3237457  33.5479474  70.1726580
  67.8235531  30.4834127  92.3058605  67.1037436  29.8712230  92.1531105
  68.5784292  30.0763965  91.8807411 107.4356461   1.4046875  72.9605818
 108.2578373   1.8784992  73.0860710 106.7884922   1.9148196  73.4475994
  66.9221115   6.7841762  42.6309919  66.0266352   6.4461565  42.6213121
  67.3292112   6.4062715  41.8514490  56.4929849  96.6003667  73.8605547
  55.8054429  97.0435416  73.3634424  56.3817674  95.6734406  73.6491966
  87.0959091  27.4641562  58.0938387  87.2165871  27.5777841  57.1510983
  86.3783741  26.8351316  58.1693554  77.5912142  42.1596479  75.3259706
  76.8343639  42.7084732  75.5314064  78.3157444  42.5616932  75.8051872
   1.3144726  49.3977594  60.2844238   1.7036480  49.4363737  59.4107676
   0.4453034  49.0225267  60.1430798  40.1786102  36.0075877   1.0939078
  40.8085883  36.6993962   1.2958006  40.4686225  35.2596818   1.6161685
  45.6622010 105.2088641  88.0369949  44.8906118 105.6429296  88.4009552
  45.5730516 105.3162499  87.0900249  63.5096598  13.9455605  84.0831375
  62.6568794  13.5357201  84.2281532  64.0685034  13.2326663  83.7737656
  88.6617565  17.4766469  71.2409782  87.9252625  17.0337164  70.8195162
  89.3605709  16.8225956  71.2511539  69.7629213  18.4746456  46.3155222
  69.6719646  19.4001377  46.5422869  70.6829643  18.2749856  46.4884138
  78.3790093 108.4439911  64.8998880  79.0367681 109.1184257  65.0693464
  78.4670240 108.2528447  63.9661026  94.7504234  15.5262649  53.9869261
  95.4034328  15.0108635  53.5134506  93.9618111  15.4673505  53.4476233
  71.4653540   3.8664484  19.8155510  71.6260719   3.1786752  19.1695106
  71.0750103   3.4090257  20.5602837   1.7114109  30.8129120  40.0270605
   1.5843815  31.7160749  39.7365618   1.2926335  30.7767749  40.8870316
  73.8674068   7.5025880  64.4546032  74.6201754   7.0326489  64.0958166
  73.2259893   6.8179524  64.6445799  14.9212975  44.6476936  63.5857296
  14.1951412  44.0540504  63.7768221  15.4509205  44.1785240  62.9410553
 103.3688545  18.5529685  50.1641607 102.8508377  17.8969133  50.6305075
 103.9382553  18.0431700  49.5878553  55.6365186  99.9928283  77.3329496
  55.2161580  99.3053173  76.8163633  55.0543386 100.7476299  77.2459364
  83.7777233  18.2158029  72.9094601  84.6223640  17.9498696  72.5460148
  83.9806652  18.9743423  73.4568739  94.0872955   9.8486924  66.6678762
  95.0012589  10.0295675  66.8873930  94.1268349   9.4174296  65.8142471
  65.5359536  89.1428148  85.1012325  65.9149915  89.8075663  84.5261955
  64.7220021  89.5352232  85.4170322  -0.2082210  13.8496697  79.2098951
   0.6830067  13.7384808  79.5409393  -0.1280742  13.7347353  78.2630062
  57.6762390  57.1665859  77.0686436  58.0943918  56.4689732  76.5639448
  58.1855822  57.2152662  77.8776121   6.7858296 107.6697307  66.5619135
   6.8720895 108.6014981  66.3604164   7.6847535 107.3695009  66.6961861
 115.6324673  33.7531734  93.0231762 115.3749752  34.2265844  92.2320938
 115.9750557  32.9189801  92.7022648  12.2403205  41.2156580   5.4832892
  11.3624824  41.2532519   5.8630423  12.2125304  40.4653142   4.8896174
  14.8984188  22.8716564  75.4199505  14.4473786  23.7006664  75.5797434
  15.0730461  22.5217223  76.2936115 100.8070660  44.5657349  50.4465437
 100.1998234  44.3558168  49.7370243 101.6212368  44.8030472  50.0026512
  44.3842870 110.4436022  55.7973766  43.9563638 109.7009489  56.2234974
  45.3203469 110.2702357  55.8972359  97.4621487  44.2699003  54.4516850
  98.1760883  44.2025614  55.0857115  96.6844082  43.9936972  54.9365187
   5.3768218  88.2598005  16.9537596   5.8697379  88.4918438  16.1667304
   5.9551109  87.6656256  17.4320654  15.8671599  79.1338026  60.8307314
  15.9458428  79.2050754  59.8794365  16.7583400  78.9573466  61.1322165
  25.5921025  52.6048803  69.1901922  24.7032685  52.4554396  69.5124769
  25.4739613  52.8828812  68.2819033  94.1852856  23.6377001  68.1086111
  93.8767815  23.2315707  67.2985983  94.5379257  24.4838476  67.8330851
  75.6048775  36.3879251  68.3734989  76.1024141  36.9966507  68.9195204
  76.1832714  35.6324577  68.2688141  28.9558185  82.7378164  28.8368372
  28.5232795  82.3138438  29.5780425  28.3409274  83.4156953  28.5564570
   7.3974384  78.8418732   7.6887087   6.6122306  78.2945000   7.6966242
   8.1149734  78.2290850   7.5278716 103.0172253   6.3230354  94.6034622
 102.7097511   5.5555719  95.0858402 102.9237461   6.0802215  93.6822987
  19.0105689  79.2621313  16.3643984  19.1219581  79.3604408  15.4188017
  19.5717872  78.5221229  16.5960269  89.3382454  39.0242791  54.2179728
  88.5802937  38.9610457  54.7991228  89.4213009  39.9598742  54.0336037
   2.4213166  46.7629099  38.2693100   1.5095848  47.0512152  38.3123589
   2.4192948  46.0579967  37.6217532 100.7007885  32.5322437  69.0946150
 101.0620689  31.6622615  69.2644358 101.4413357  33.1267285  69.2146587
 104.4877815   0.3332420  89.3343925 104.7977257  -0.5722210  89.3517685
 103.7715149   0.3290728  88.6994267  94.9912643  68.9501953  66.5441799
  95.1033783  68.5025024  65.7055902  94.4733715  69.7271442  66.3335466
  83.9148426   1.1335299  59.4335890  83.8199043   0.6920432  60.2775764
  84.3013477   0.4722611  58.8595152 104.9585533  65.2879047  68.4877634
 104.0147972  65.3180265  68.6447716 105.1253986  64.3894529  68.2028484
  80.2037144  21.4276695  86.1817646  81.0808182  21.6232133  86.5114212
  80.3069687  21.3954520  85.2307034  94.5288658  14.2614090  72.0307970
  94.3964577  15.0804043  72.5082350  94.2563438  13.5795009  72.6447678
  79.5249081  18.8024855  86.0671902  79.5194054  19.0901148  85.1542473
  79.5304775  19.6144319  86.5740871  24.4962162  15.7954574  67.3895741
  23.5519738  15.9450543  67.3420525  24.8700375  16.4273381  66.7753935
  54.5780277  43.0962229  94.9898434  53.8180876  42.8484678  94.4632053
  54.7922039  43.9826870  94.6990776 109.7537518  19.9672472  45.5360746
 110.2922630  20.7302451  45.3261423 109.2066383  20.2540970  46.2672472
  18.1872524 107.5729762  14.0822367  18.9245189 107.7870236  13.5105280
  18.4058154 106.7139302  14.4434790 104.3959540  51.6300006  10.3073363
 104.9296397  51.3175033   9.5767550 104.5013970  50.9613930  10.9841494
 105.9666902 109.1607521  45.6491947 105.3592568 108.8806826  44.9644899
 105.9534722 110.1168252  45.6046867  99.0924644  10.2253461  70.5906248
  99.3625164  10.9785616  71.1159563  98.1731319  10.0902951  70.8204365
  86.7719346  75.3931986  88.2451916  86.6603547  75.7596814  87.3679924
  86.1856252  75.9105693  88.7972736  75.3084183  71.0735703  84.2722893
  75.1344776  70.1602840  84.5000744  75.2546978  71.0965395  83.3168793
  85.1927853  25.5380607  57.3264217  85.8328819  24.8875284  57.0377731
  84.7632980  25.1334572  58.0801249  13.6599106  21.5121412  80.8561993
  13.2036347  21.3675237  81.6851234  14.2855019  20.7900000  80.7979870
  95.4792023   5.4040802  49.8103952  95.1261711   5.1804799  50.6715584
  95.8538437   4.5854658  49.4852018  76.2356043   2.6609519  81.8610477
  75.8811903   3.3738175  81.3295937  75.8523655   2.7950448  82.7278709
  97.2737980  28.8245416  91.8110943  97.7076149  29.3909979  92.4491882
  96.4506817  28.5762167  92.2318554 110.9135151  64.4044590  49.4333267
 110.3606987  63.6881399  49.7455835 110.7216644  64.4646168  48.4974813
  59.5685655 105.8551358  49.5065832  60.3948861 105.9103422  49.0265942
  59.0734655 106.6226431  49.2201614  54.7286874 100.7270127  57.4120855
  54.7915917  99.8163806  57.7002287  54.0756684 100.7122653  56.7123842
  99.3060398  43.1206894  76.9038486  99.0171432  42.4675274  76.2665462
 100.0542641  42.7141666  77.3410416 102.6325607  25.9504104  92.7516651
 103.3129501  26.4753795  92.3301029 102.9777145  25.0576711  92.7408504
 112.8727818  32.1150088  44.5970154 113.5415077  31.8238878  45.2169228
 112.5370693  32.9293180  44.9717522  28.4038395  20.0807428  63.7645197
  28.2023663  19.7436285  62.8915977  27.8723473  19.5476127  64.3557167
  70.2722979  41.1963892  77.6312780  70.5111980  42.0247889  77.2154379
  70.6942940  41.2289095  78.4898186  37.8588706 110.1736475  38.4081244
  37.6171619 109.3390044  38.8095975  37.4107152 110.1712717  37.5623226
 111.5944958  11.8996680  65.6669617 112.1243095  11.4205766  65.0297785
 110.8271790  11.3445985  65.8060980  65.5681133  26.0052204  60.0197744
  65.3113937  25.6545520  60.8726311  64.9458122  26.7135906  59.8548985
   9.5666564  65.9530268   1.1873297   9.7615588  65.7852612   0.2653269
   9.8800147  65.1724730   1.6442542  68.6879730  13.2670999  87.8366280
  69.1350746  14.0301311  87.4704170  69.3937302  12.6601553  88.0596924
 106.4111137  18.6584926  46.9803524 105.9452057  19.4238782  46.6436863
 105.7919693  18.2474160  47.5835991 116.3498020  17.7749181  76.3030863
 116.9904804  17.2736061  76.8075132 116.0256767  18.4347904  76.9160652
  99.1046047  57.9948473  71.3415909  99.4458580  58.8870430  71.2802076
  98.2033920  58.0608559  71.0258579   7.2487397  30.4083228  87.9768658
   6.9537968  30.0558305  87.1372223   8.1840939  30.5699515  87.8534889
  96.2837124  62.8148508  73.1572819  96.8372154  62.0339203  73.1604385
  96.5880775  63.3211088  72.4040937  69.3509942 106.6239264  64.6002007
  70.2839929 106.7916222  64.4674206  69.2940408 106.2792944  65.4913855
  86.9220734  49.5191479  62.5533772  87.0718193  48.9645720  61.7877054
  87.6016998  50.1910114  62.4990845   2.2417683   6.2331307  74.3780613
   3.0710930   6.3856715  73.9250851   2.4940056   6.0405731  75.2811289
  27.2133506  89.0467511   9.6994643  27.5652278  89.0879784   8.8102393
  26.8771709  88.1544195   9.7828822  91.2507629  38.3185649  72.8551722
  90.3905869  38.6503839  72.5978374  91.0997581  37.8892732  73.6972761
  80.2219009  23.8836312  72.9921007  80.8397293  24.6058249  73.1059504
  79.4397402  24.2935371  72.6227379 104.9694252  38.8879442  55.1537561
 105.4995155  39.1961026  54.4187212 105.6066704  38.6709118  55.8342361
  23.8632453  98.5025464   9.4806437  22.9967368  98.8826953   9.3361620
  23.9893020  98.5470258  10.4284625  73.8662958  28.7960315  46.1540985
  74.0523863  27.9993987  45.6571293  73.2133818  29.2588687  45.6290102
  62.4381638   7.7509457  48.6234283  62.4695444   7.0550734  47.9669189
  63.3193779   8.1246692  48.6186314  83.2359677  86.4636241  89.5083046
  83.8324338  86.9913136  90.0393391  83.8100606  85.8834182  89.0082932
 109.1660786  16.8299222  55.4474354 109.4908237  15.9294903  55.4478073
 109.5743275  17.2314453  54.6803951  42.2320426  70.9910034  13.9799933
  42.1624149  71.1942242  14.9127821  43.1728709  70.9943090  13.8037352
  85.3357315  16.3604677  48.2773018  85.4952049  16.5234184  49.2069530
  86.1025047  15.8673155  47.9855967   2.7405418 106.7060052   1.9842581
   3.5543121 106.2995635   2.2822527   2.0530761 106.2486707   2.4684958
  82.4788857  26.2374854  79.2363214  81.8441105  26.1397052  78.5265875
  82.9327679  27.0571613  79.0404749  82.8790474  33.4682870  55.5495071
  82.7566814  34.1649389  54.9045801  83.1620502  32.7124619  55.0348568
  75.8989859  52.2589254  51.3882494  76.2047863  53.1427002  51.5923548
  76.5179825  51.9366360  50.7331133   2.9055924  43.3988762  69.9537706
   2.2960610  43.1941462  69.2446947   3.5200638  44.0235615  69.5685148
  59.1311455  21.2755680  77.0023584  59.4140291  20.3716087  77.1404266
  59.8096657  21.8054318  77.4207878  76.9401503  36.4867663  65.0996017
  77.3524046  35.7199121  64.7018480  76.4283133  36.1332226  65.8271074
  29.4384349  84.7893797  22.3564677  29.0719188  84.1050635  22.9164748
  28.7333358  85.0015531  21.7448668 114.8976612   1.9067825  51.0700321
 115.4396629   1.1260764  51.1839008 114.0542984   1.5706979  50.7666922
  16.8826068  76.9649587  13.7517313  16.4358485  76.1531316  13.5117964
  16.6775668  77.0861898  14.6788268  26.0951770  52.6310845   9.7452120
  25.3591216  52.0255838   9.6567683  26.5207160  52.6176397   8.8879160
  95.8858776  27.8321981  64.5445585  96.6525936  27.3403621  64.2504930
  95.6827736  28.4178209  63.8151598  30.3529686  15.5546057  68.7772846
  29.6745724  14.9755800  68.4297991  29.8890728  16.1277437  69.3876553
  98.5011864   8.7328333  89.2608738  97.9883671   8.1113446  89.7775936
  99.4118500   8.5196674  89.4645882  86.3942224 101.0141509  12.0196450
  85.4748612 100.8009260  12.1794629  86.4274388 101.9702350  12.0517552
 113.9890862  23.6138058  40.7158136 114.3690586  24.4913554  40.7577181
 113.7825775  23.3985353  41.6253424  38.4625703 101.2788694  11.6467988
  38.7830573 102.0680570  11.2101030  37.7316075 100.9845214  11.1034000
  94.7654629  19.6328020  56.3981152  94.9112034  18.7064350  56.2061834
  93.8239670  19.6991420  56.5575027   2.3626102  60.0474153  25.1910357
   1.5153373  59.6823133  25.4460959   2.7423347  60.3661679  26.0098414
 104.0402317  13.9677894  78.7137032 104.4460487  14.8174965  78.5418224
 104.7323990  13.4507585  79.1257906  83.9069939   9.7806472  56.2801456
  83.2380581  10.0462520  55.6491041  84.7371769   9.9523687  55.8356905
 101.8651581   2.4903482  83.1171417 101.0386658   2.9001999  82.8618717
 102.4790764   3.2201359  83.1992626  56.8185025 105.7970860  60.3683043
  57.1559030 106.4676722  59.7744131  56.9523793 104.9730830  59.8999786
 103.0300999   6.9954836  29.5679045 103.4487343   6.9720036  30.4283810
 102.6100826   6.1396104  29.4824600  14.3300658  91.6245352  55.4158401
  13.6713773  92.3155211  55.3458261  14.9936372  91.8595861  54.7672606
   2.6643414  26.8320894  41.9736052   2.0810074  27.1585464  42.6587152
   2.6665539  25.8824158  42.0933771  48.9863473  95.4627823  14.5523417
  48.8543969  95.1227879  15.4373431  49.8678475  95.8355295  14.5679116
 107.7249450  73.7057136  21.0635809 108.4755296  73.8483988  20.4869608
 107.0009631  73.5073171  20.4696803  85.8109760  19.8397517  85.1164532
  85.0403309  20.2021956  84.6794605  86.4549923  19.7325528  84.4164658
  78.0085897  40.3203583  88.6323261  77.2350264  40.8264160  88.3838558
  77.9462099  39.5177341  88.1145096  85.3931046  29.6713710  72.4917650
  85.3384972  29.1084027  71.7195511  84.8283100  29.2472386  73.1377935
  43.0833990   0.3724479   8.1420092  43.7256319  -0.3357220   8.1895785
  43.4999735   1.1045265   8.5967116 111.3847369  78.7533985  21.3568453
 111.8556422  78.6095081  20.5360083 112.0519179  79.0769206  21.9621901
  87.9187393   7.9445177  68.2167006  87.1911049   8.5619557  68.1422186
  88.1105137   7.9122591  69.1539383  67.7684116   5.9619641  60.6814051
  68.1291437   5.0757211  60.6554031  68.4656429   6.5148032  60.3286076
  61.1122894   0.5515369  33.9047313  60.3252029   0.5686685  33.3602786
  61.6822195  -0.0906846  33.4816909   0.8349461  20.7881808  61.0566092
   0.7393307  21.7385101  60.9936476   1.2695545  20.5366755  60.2416897
  44.6530896 100.0883471  67.1396160  45.4538518  99.5838772  66.9963503
  44.0786820  99.8363768  66.4165640  44.5974696 101.2228404   0.5673651
  44.4731010 101.0094415  -0.3574224  44.4562495 100.3943215   1.0254530
  25.7755894  52.7160788  87.2373199  25.8437104  53.6557150  87.4066353
  24.8771519  52.5923824  86.9311619  95.5997944  34.8110318  74.9151611
  96.1090088  34.3523288  74.2469406  96.1219597  34.7280908  75.7131004
  23.8715614  80.5556975   9.3136363  24.0089572  79.7723065   8.7810473
  24.1633285  81.2778245   8.7571959  15.5169720  53.7292576  80.1305962
  16.4189858  54.0271235  80.0128269  15.5922550  52.9485321  80.6792641
  72.0314866 100.4386233  48.6812305  71.7472249  99.5745813  48.9793205
  72.5999051 100.2586137  47.9324150  10.4770435  50.3903870   6.8329196
  10.4106773  51.2353007   6.3880114   9.8968566  49.8124836   6.3372950
   5.5069107  56.9671535  72.3275852   6.2289566  56.4399242  72.6695061
   5.8399720  57.8644896  72.3374176 105.4812908   4.3733299  78.6250877
 105.1449871   3.6150068  79.1026592 106.2885380   4.6064174  79.0836143
  89.5755845 106.0272249  89.2671299  90.2722817 105.4236709  89.5251274
  89.9767858 106.5854903  88.6010933   1.0550923  21.0667729  72.6832056
   1.4639897  21.7150521  72.1098185   1.0283703  21.4892912  73.5416889
  48.7381345 105.4032796  84.4947815  48.9961797 105.9267383  83.7360764
  49.3557340 104.6720230  84.5024967  71.2601566  13.0279577  74.4277525
  70.4902077  12.4896169  74.6110487  71.4738846  13.4341371  75.2677345
  52.1944505 107.1336566  61.6799164  51.2929994 107.4095043  61.5140104
  52.6924401 107.9504072  61.7139578 111.8044853  10.2568543  56.5374374
 111.1379051  10.9268415  56.6891289 111.6972828  10.0163531  55.6171703
 102.0929718  31.4432573  95.5045033 103.0419540  31.4823818  95.3856087
 101.8000412  32.3475981  95.3922939 102.5366879  21.9635963  56.2944603
 103.0681896  22.6989245  56.5994692 103.1426430  21.2229490  56.2724447
  85.5366421  11.8682861  77.7163315  84.9525261  12.6225364  77.6379442
  86.3105106  12.2101712  78.1640768  96.7809391  24.9953151  79.8565912
  96.5134621  25.8981943  79.6848297  96.6550922  24.5451999  79.0212536
  75.4107714  11.6707480  84.1876698  76.1448908  11.1114573  84.4416237
  75.4610205  11.7130136  83.2327271 113.4172821   9.2776603  95.0204945
 113.4837151   8.3883345  95.3682232 112.5239658   9.5505184  95.2297020
  92.9973507  32.9349041  37.9260588  93.5086823  33.5288548  38.4755945
  93.3434200  33.0675220  37.0435166  73.1549245  99.8280918  80.4808903
  73.4062654 100.3772091  79.7382355  73.8445264  99.9715351  81.1290455
 107.6824570  61.6728449  56.2751579 106.8375111  62.0553637  56.0385561
 108.3293533  62.2736502  55.9053040  70.5115873   4.0885019  12.2307734
  70.8911211   4.9350595  11.9951491  69.7215349   4.0225887  11.6943984
 110.4191113  61.9787788  74.9566460 110.6667042  62.4445438  74.1578960
 109.5539093  61.6171503  74.7646093  89.0825653  29.3586779  49.8400164
  88.9048290  28.7085867  50.5197382  90.0374794  29.3887997  49.7812223
 103.5051632  58.7666368  72.1550179 103.1455708  58.3042288  71.3979816
 103.2271481  59.6747112  72.0352507  80.3269863  11.7153788  65.1087713
  79.3710327  11.7511916  65.1419115  80.6078529  12.0087516  65.9755325
  90.8173656  36.7788601  35.3717113  90.0553036  37.3543882  35.3064704
  91.2640095  37.0623469  36.1694431 103.8172245  21.2680125  75.9439754
 104.3574524  20.9089327  75.2400923 104.4312000  21.4231706  76.6617489
 108.8726234  48.4691238  64.0311909 109.7582054  48.3774805  64.3827343
 108.2993317  48.2643318  64.7698545  69.6919155   6.7890865  66.3033772
  68.8470411   7.1439421  66.5799522  70.1861382   6.6858900  67.1165991
 109.7781849  33.6380172  85.3018379 110.1387978  32.8946733  85.7851887
 108.9157200  33.3400369  85.0127220  75.5856323  33.4341478  64.9083042
  75.9953165  33.5716105  65.7624102  76.2090635  33.8015079  64.2817211
  78.0937481  26.1875200  95.2294731  77.5844002  25.8989501  94.4721603
  78.9888763  26.2670755  94.8998451  17.4303497  96.3081895   7.5412802
  17.0436919  95.4363356   7.4600081  18.0633891  96.3571749   6.8249754
 102.0944023  31.4261770  86.6307926 101.9454670  32.2682977  87.0607758
 102.7926254  31.0165906  87.1416378  97.7880955  33.1292892  76.9191265
  98.5303879  33.5453701  77.3574400  97.9146099  33.3295798  75.9917021
  97.4532413  73.1625414  59.8398829  98.2528114  73.2279968  60.3620338
  96.7821789  73.5858107  60.3753662 103.2077122   3.0228513  54.8912430
 102.5431538   3.7051421  54.7960234 102.8870678   2.2993672  54.3527365
 115.4225826  25.7584667  83.9675045 115.7070065  26.4514828  84.5633698
 115.6992912  26.0585284  83.1016922  94.7502518   1.0177016  89.4650364
  93.8927937   1.3974251  89.6568775  94.8021889   1.0141092  88.5092545
   8.8181919  53.8889980  86.1251068   8.2024903  54.0616465  86.8373775
   9.6700901  53.8206148  86.5561962   8.3589215  10.6301713  56.0083485
   8.9220757   9.8763233  55.8328390   7.5757927  10.2554131  56.4114571
 111.9506168  14.7705805  57.5659323 112.0350647  15.5483115  57.0143557
 111.1548519  14.3403268  57.2530651  89.8517609  49.4834709  77.5658655
  90.1596355  48.6122704  77.8157711  89.7507095  49.9490643  78.3960772
  14.0592427  36.5922117  69.0019369  14.4563431  37.3180079  68.5205173
  13.1334729  36.8264294  69.0676451  95.7084846  83.1208897  60.6007957
  95.2266502  82.7461624  61.3381243  95.5579758  84.0635967  60.6706095
 103.8135529  20.0787616  65.2946329 104.6718884  20.4636002  65.4718065
 103.1960392  20.6500888  65.7512522   9.9222321  46.6498756  55.6417799
  10.2965874  47.3867750  56.1245537  10.4292816  45.8914232  55.9314060
 108.2022095   1.6961408  78.8114691 108.6017704   2.2736479  78.1610346
 107.3316288   2.0662008  78.9577103  87.6147175   1.6474725  95.2011108
  87.0703506   2.4139799  95.0212383  87.7556419   1.2471227  94.3431568
 109.5004749  40.3968191  95.2548885 109.8747063  40.5764008  94.3923759
 108.5680103  40.5891991  95.1561642   4.5844502  70.4535246  56.4532185
   4.2148632  70.7909155  57.2691870   5.4389900  70.1028824  56.7042971
 113.0848217  42.5012922  76.1006498 112.5630951  41.8805742  76.6093206
 112.7658463  42.4035168  75.2034712 103.0619431  14.0817523  63.7104368
 102.1236038  13.9822829  63.8712406 103.2504654  14.9899840  63.9466619
   8.2379401  92.7676903  18.0007319   8.1228603  91.8699036  17.6893382
   7.3474944  93.0849396  18.1513838  95.5442333  25.0600529  54.0018559
  94.6515942  25.2234411  53.6973381  95.5345058  24.1486502  54.2942286
   0.6048358  93.7375723   0.2831320   0.0086892  93.2719718  -0.3034349
   0.9686864  93.0545054   0.8463912  63.9817870  96.3962422  17.6438574
  63.2082809  96.8095694  18.0273585  63.9220298  96.5964328  16.7097334
 102.8970242  38.7882495  90.7286739 102.7177238  37.8486562  90.7639408
 103.0173779  39.0436172  91.6432953   9.8976845  63.0071115  42.3908997
   9.6720738  62.4145460  43.1079769   9.0610928  63.3858919  42.1209764
  64.1721487  38.2038140  89.5381260  63.6660385  38.5370851  90.2790833
  64.1692924  37.2536731  89.6541309  14.6866459  41.5538788  67.7607012
  14.4323963  41.8652201  66.8919945  15.5766339  41.8844461  67.8826141
 103.2670116  40.7637262  92.7497578 103.6490250  41.1171007  91.9463730
 102.4600124  41.2639141  92.8714180  92.9205799  15.9838617  81.4672089
  92.3770237  16.7458093  81.2666798  92.5643349  15.6449807  82.2884750
 111.0978031  28.0300856  66.7967892 111.2135983  28.9252186  67.1154737
 110.6914425  28.1329036  65.9362459  97.0274049  97.2967052  81.9417095
  96.4509564  96.6372608  82.3278141  97.2545796  96.9424163  81.0820007
 109.4525146  22.3880005  68.3869553 108.6126328  21.9781041  68.1800318
 109.9555779  22.3264527  67.5749397  94.6236229  55.8833027  81.6152382
  95.1068687  56.7094612  81.6283417  94.4368267  55.7004595  82.5360584
  44.7554094   3.2231569   5.9098963  45.5971510   2.8196096   5.6981329
  44.1226942   2.7592706   5.3615241  80.0013048  29.2155694  14.0963225
  79.8898489  29.8046827  13.3501677  79.9714358  28.3380269  13.7151961
 112.4839515  99.9341403  10.6454997 111.5573615  99.7338544  10.5130248
 112.8862733  99.7832547   9.7901587  64.8808843 105.1733558  76.2301970
  65.7143861 105.1989376  75.7602358  64.6198731 104.2527758  76.2049961
  83.6833477  67.1902180  89.4382858  84.6332836  67.0857477  89.4925022
  83.5573864  68.1006622  89.1709805  39.6344418  24.4814086  87.5006485
  40.0761456  23.9837146  88.1887150  38.7484116  24.6189332  87.8357124
  82.2042561  60.5397511  68.8153744  81.7527008  60.4219151  69.6510983
  82.8468513  59.8308325  68.7882996  13.9192165  84.7793041   6.4819293
  14.2753852  84.2070685   5.8022837  13.0143035  84.9367080   6.2125067
  88.8530254  16.2637901  83.4429741  89.7985649  16.1279356  83.3819580
  88.6702347  16.2571728  84.3825340  77.2833806  92.0604753  54.8821163
  77.3216420  91.8756114  55.8205128  77.0728284  92.9927801  54.8300505
  28.7425483  59.7070558  10.5383353  28.6603606  60.4763727  11.1019187
  29.3793739  59.1495569  10.9854178 115.4177189  37.7163458  65.3252172
 115.0969791  36.8235850  65.1974154 114.7389698  38.1420207  65.8489895
   8.6376519  49.8255491  57.0149851   9.4566769  50.3197813  57.0491505
   8.1670136  50.1933050  56.2669945  65.8501988 104.7091531  67.4025679
  65.5320626 104.6799128  68.3048820  66.4749127 105.4343148  67.3922491
  33.4331269  64.6566629  53.8588381  33.6601776  64.2786551  53.0092573
  33.9095539  64.1219521  54.4939232  75.8737421  30.4605508  45.5862713
  75.7006884  30.4370260  44.6451378  75.0139189  30.3454304  45.9908485
 100.5057335  31.0059476  51.4106035  99.7915649  30.3951883  51.5927410
 100.9724998  31.0836577  52.2426605  81.7586899  36.3585663  78.1769133
  81.1282921  36.9524741  78.5844755  81.3798141  35.4878163  78.2972527
  27.2839398  11.8277311  49.9338102  28.0724282  11.7012250  49.4060564
  27.2612423  12.7685285  50.1087904  20.4767097  74.5665966   5.5635123
  21.2330497  75.0571190   5.2416853  20.8424438  73.7373780   5.8715205
  14.8500103  45.8550692  50.5348969  15.5681271  45.3163195  50.2027988
  14.2050022  45.8568192  49.8276520   2.0921654  61.1545086  57.6178169
   2.6665539  60.3888321  57.6107979   2.6841778  61.8990231  57.5107908
 116.0049725  51.5969181  47.6121855 115.2775669  51.6108179  46.9901562
 116.4331818  50.7542658  47.4611664  21.7216266  79.2829357   6.4652972
  21.6290630  79.3314443   5.5138163  22.6445544  79.4790588   6.6264586
  18.1812996  62.5844145  71.0414076  18.5929245  63.3494329  71.4433384
  18.4989781  62.5881958  70.1384687 102.1783352  51.2475729  41.6847515
 103.0930519  50.9704876  41.7372417 102.0342541  51.4231873  40.7548952
 108.6143112  29.4708157  41.2610006 108.4171486  28.6371088  40.8340454
 108.1713200  29.4169044  42.1078110   3.1395478  54.5757341  79.0558195
   3.3250183  54.4252539  79.9827433   2.2591633  54.9513006  79.0456200
  62.0848353  10.1926660   4.9259238  61.1384852  10.2367639   5.0626902
  62.1915705  10.2319145   3.9755015   1.9550652  19.7914672  64.3757486
   1.0605091  19.5239830  64.1648912   2.4641461  18.9821684  64.3299007
   8.1494469  56.7588902  61.5601397   8.9513344  57.0179462  62.0141172
   8.2965321  57.0144510  60.6494904   9.4306148  93.1436477   1.1581378
   9.5324958  94.0911184   1.0678439   8.7241615  93.0383693   1.7953734
 108.9878464  59.0110922  56.4775658 108.6785412  59.8709536  56.1926126
 109.6345997  59.2022276  57.1568394  99.9094486   5.5284822  61.7800188
  99.7490883   6.0454512  62.5694847 100.7959461   5.7699347  61.5115786
 114.1117668  21.1059093  71.8979502 114.2627144  21.7057991  72.6284170
 113.2976913  20.6552291  72.1224403  84.9062824  58.5229969  58.5997486
  85.4110146  57.7187347  58.4787560  85.4442501  59.2059278  58.1992245
   2.3780674  62.3335505  45.6876612   2.6571984  62.1124840  44.7991514
   2.4743695  63.2844925  45.7393408  65.1276588  10.8948576  52.6794004
  65.1005840   9.9448717  52.5652647  64.3435097  11.2123406  52.2315788
 113.5931110  51.8863106  89.3844414 114.1382313  51.7284966  88.6136150
 113.1459999  52.7115917  89.1967010  11.2853569   4.9336451  40.1297188
  12.2391362   4.8883557  40.1967812  11.0540814   5.7582426  40.5572510
  78.5621881  61.8280840  70.5351257  79.2023420  61.2859964  70.9961891
  78.1248903  62.3235607  71.2275934  60.9792978   2.5185966   7.1117835
  61.5809233   1.8137311   6.8721060  60.3738958   2.5783967   6.3727717
  94.8725224  45.6313753  79.8634195  94.1369152  45.0313568  79.9862909
  95.6495667  45.0830364  79.9718189 114.8020840  39.6031284  68.7389565
 115.2000713  39.4997334  69.6033287 115.4125023  39.1717100  68.1410503
  59.7641659  33.7385130  93.1874180  59.3017960  34.5585561  93.0142879
  59.7501516  33.6522818  94.1406155  20.1879448  29.4834113  74.9325180
  20.0767273  28.9928842  75.7469177  19.3354172  29.8911166  74.7801590
 112.1014214  71.7485762  36.4645934 112.7801609  72.3942423  36.2679601
 111.7814541  71.4686728  35.6069779   8.4001774  13.3638906  30.2966905
   7.4743885  13.5528064  30.4498482   8.5365242  13.5684729  29.3716002
  51.4340824   7.2552109  68.3897352  51.4617581   7.9318070  69.0662622
  51.5299076   7.7350444  67.5670528  53.2162536  98.2065736  36.5758376
  52.9215682  98.8228713  37.2463469  53.4287799  98.7565575  35.8217959
 113.8024998  17.0155346  79.3235826 114.0172195  16.0861993  79.4039440
 112.8839874  17.0727634  79.5868301 100.8621693  53.2085896  54.2692709
 100.3239346  53.6951256  53.6449146 101.4806080  52.7220869  53.7242222
  76.8906450  48.9332867  59.6111774  77.1177721  49.1873074  60.5056715
  76.7412376  49.7626781  59.1572809   0.6559796  45.6045008  68.5201216
   1.1280197  45.9677458  67.7708101   0.9881157  46.0940361  69.2726278
 114.7127914  14.5272529  81.0054588 115.3025055  14.0389764  80.4309559
 115.2631760  15.2098513  81.3893318  87.5704861  50.7578850  59.3128967
  88.0242634  49.9434185  59.5296049  87.7587795  50.8973455  58.3848238
  91.4084435  39.6430612  56.7481518  91.2334728  40.3996611  56.1885309
  90.8433056  39.7726822  57.5097609   6.0913128  51.6999817  48.3740091
   6.6887898  51.9907570  47.6850224   6.1339993  52.3907185  49.0352869
  99.5159912  49.2239046  84.7969818  99.9285507  50.0761747  84.9372101
  99.0980244  49.2983818  83.9390850 112.8036022  36.2900543  82.8940487
 112.4232769  35.4118204  82.9111481 112.1247578  36.8373919  82.4993038
  21.0167546  43.4237432  67.9058790  20.9843296  43.3741140  66.9505167
  20.4119915  44.1311550  68.1296253 103.3703995  37.1107817  82.8922081
 102.5802326  36.5884328  82.7542591 103.7945366  37.1346068  82.0344353
 115.2466583  51.8043995  62.3949194 115.9511852  51.9651031  61.7671824
 115.5843925  52.1403074  63.2251787  71.3126469  45.8759928  34.4070935
  70.9352970  45.9773493  35.2809167  71.9071865  46.6205025  34.3151140
  43.5146297  98.9083062  20.0466113  43.8258327  99.0661822  19.1552882
  42.7566589  99.4851361  20.1413588 100.1735020  15.8594692  78.4043980
 100.0500774  15.4610038  77.5428772  99.2858887  15.9810054  78.7414551
  87.1496010  47.5196218  69.5289993  86.5132046  48.0124092  69.0109396
  87.9239655  48.0816936  69.5549393  91.5371799  56.4914083  84.8250675
  91.5091324  56.8637276  85.7064342  91.3520145  57.2311831  84.2465496
  89.8275834 109.7090203  83.1162262  90.1552182 110.2987248  82.4371624
  88.9100152 109.9579269  83.2272911 100.8461857  55.7543707  26.0522866
 100.8851337  54.8840046  26.4487386  99.9528217  56.0542774  26.2201929
  98.2492352  43.4415627  90.6927967  97.7542591  42.7988195  91.2008476
  97.8422642  43.4269476  89.8265457  54.2879260  90.2275191   4.2681841
  55.1111854  89.7393833   4.2541270  53.6233199  89.5703588   4.4747691
  94.2425520  17.7896547  16.8076949  93.4453280  18.3173513  16.7608218
  94.2684729  17.4745988  17.7111868  72.0832825  23.6230826  84.8659992
  72.3298311  23.3986163  85.7632542  72.4232006  24.5087862  84.7386646
  64.8883438  29.8794556  61.6407061  64.0097523  29.6531391  61.9458008
  65.4705238  29.3090940  62.1426916  92.1766472  34.0434265  84.5570087
  92.4729538  34.1007733  83.6486340  92.9792023  34.1047740  85.0750637
   8.2061238  56.8020678  65.2773094   7.7341790  56.6102934  64.4669247
   9.0897412  56.4670849  65.1248980  94.9821186  26.0010386  75.5693007
  95.5976486  25.6512237  76.2134886  95.0320530  26.9503617  75.6812143
  85.9717655  34.2683911  47.4039602  86.3414669  33.6144471  46.8107414
  86.2543392  33.9888239  48.2747173  72.8885984   9.8985004  91.6795158
  72.8204823   8.9527750  91.8106461  73.7992096  10.1045966  91.8905640
  22.7764285 109.5780621   0.8761172  23.4857047 109.8504887   1.4583067
  22.9973090 108.6786900   0.6340842  96.3492393  28.2359838  71.6312075
  95.5839443  27.6617789  71.6602564  96.8908787  27.9505801  72.3670101
  89.1784477  40.6015825  43.8715601  88.4731865  39.9572778  43.8106441
  88.9951229  41.2245607  43.1683350  98.5306263  68.2464695  31.4183068
  98.7620068  69.1752052  31.4304399  99.2777729  67.8189468  30.9997058
  93.5642242  32.3196507  77.5587940  92.9005718  32.2777915  78.2473040
  93.0806160  32.1537328  76.7495823  81.7780590  30.6279135  48.1848383
  82.6783466  30.5419183  48.4984016  81.7028809  29.9737144  47.4901438
  96.4951420  51.3175440  60.1046371  96.1928272  51.5719700  59.2327976
  97.3460007  51.7460680  60.1976109 109.3911648  27.1527481  21.2361264
 108.8775349  27.8577161  21.6303825 110.1613331  27.0738745  21.7990255
  97.8089809  60.3384686  89.4880104  97.7018547  60.0068045  88.5965252
  98.7393379  60.5539560  89.5532131 102.2848034  26.5859127  65.0689220
 102.8033924  26.3006330  65.8211899 102.0633221  25.7758260  64.6096373
  94.5254517   3.9732516  28.7836075  95.2147388   3.8038164  29.4258022
  93.7174892   3.9842823  29.2967319  67.8262216 104.0555524  53.5135508
  68.3595162 103.5469907  54.1244459  67.2914773 104.6182918  54.0735579
   1.8515343  35.3057957  45.7387590   1.9408936  35.9579802  45.0438499
   1.3412613  35.7474613  46.4175701  78.1492138  29.0049720  76.8471575
  78.3339453  29.8830414  77.1804762  78.3790588  29.0478706  75.9189558
   0.3826279  28.8879585  66.8546724   0.1020474  28.3289123  66.1301231
   1.3362831  28.8062429  66.8648386  98.5833359  52.3973274  74.6730471
  97.9411316  51.8813276  75.1604366  99.0146732  51.7634869  74.0999651
  72.8447104  27.5069189  50.9168673  73.5007477  27.5969219  50.2256727
  72.0181513  27.7406144  50.4944658  -0.1096302  44.1418505  58.5302019
   0.5057186  43.9702988  57.8173542  -0.0419002  45.0842714  58.6834812
 102.2597694  35.0755644  76.5742779 102.0063782  34.3834186  75.9635735
 101.5784454  35.7410002  76.4781952  89.1452962 106.5149727  51.0394812
  89.3167382 107.3906528  50.6930351  89.1441613 106.6293695  51.9898224
   0.6014294  34.7728682  73.1378984   1.0320515  35.1136208  72.3538828
   1.1413998  35.0866747  73.8632870 116.4524746  23.4816504  79.0470648
 115.6822777  24.0017939  79.2761564 116.8517494  23.9539027  78.3164597
  84.0487385  49.4388056  61.7278051  84.7951889  49.8673773  62.1465731
  84.4284821  48.6873245  61.2725115   9.7673363  35.8265495  72.2387934
   9.6927876  36.6816497  71.8151426   9.4807286  35.2028990  71.5715981
  97.3970509  56.7108250  23.1874132  96.9911289  56.1286449  22.5451326
  96.6627502  57.0575428  23.6941791  49.1948652  70.7762909  48.8050127
  49.1522932  71.4233875  49.5090580  48.4894037  70.1603270  49.0028620
 101.6459274  45.7088232  88.6045265 102.0079613  45.9524345  87.7525711
 100.7078838  45.6044197  88.4451580  94.1650486  37.7001333  82.0000172
  95.0492668  37.9163170  82.2960854  93.5888672  38.1454706  82.6212406
  81.3649178  47.2899246  91.9986629  82.3150349  47.3848534  91.9316101
  81.0596371  48.1448078  92.3023319  11.8259109  89.6755491   8.8527445
  11.3588775  89.0391122   8.3113818  12.3068965  90.2159558   8.2259707
 101.9135761  34.0253830  60.3464985 102.5380707  34.5606208  59.8568487
 102.4095345  33.2451034  60.5943298  82.4967557 109.8429386  56.6174984
  82.9463464 109.5852311  57.4222898  82.4927121 110.7998341  56.6413021
 110.4853630  24.0058851  42.6158285 111.2877560  23.9476538  43.1344891
 110.6155300  24.7731924  42.0585775 115.9303665  10.3499162  54.9361467
 115.8412933   9.4631368  55.2853155 116.4743900  10.2463841  54.1554070
  39.0073360  67.7812932  21.2787394  38.0710471  67.8953455  21.1156992
  39.0491355  67.2653042  22.0838789   1.4413208  27.8794146  36.0809040
   0.7767529  28.5617208  36.1759973   2.2695488  28.3254194  36.2579584
 112.8926468  45.1530457  93.7763500 112.6449680  44.7301531  94.5985699
 113.5451221  44.5671082  93.3926964  65.0503808 110.1256159  67.8657246
  64.8599702 109.2167975  67.6332903  65.9714204 110.2442544  67.6337004
   9.5592636   6.7410314  45.2030945   8.8592953   6.1035973  45.3443861
  10.1792759   6.2924176  44.6281528 113.0165386  21.0242486  67.8110552
 112.5451565  21.8451834  67.6692724 112.5172329  20.3731513  67.3180962
  45.4705775  74.8556624  15.8845953  45.3245509  73.9111636  15.8313708
  45.6590141  75.0171660  16.8090586 112.2483349  65.8994293  66.4260054
 112.3909473  65.9519672  67.3710585 113.0237770  66.3101053  66.0435629
  90.2940464  37.1665716  51.8626976  91.1765099  37.3890066  52.1593523
  89.7155094  37.6838136  52.4230433  12.0763439  45.4978037  87.0485401
  12.0596928  46.4547396  87.0637417  12.6752037  45.2574062  87.7555084
  98.0793285  57.6872587  43.8818312  98.6000633  57.4512863  43.1141186
  98.0848980  58.6444092  43.8900423   2.5133557  47.0612764  78.1212664
   2.0378823  46.3128376  78.4818172   2.0592636  47.8262663  78.4745741
 100.0143909  64.8015165  74.3537521 100.6844234  64.1185284  74.3252277
  99.2581367  64.3783045  74.7602177 110.6603527  48.5908747  53.9257336
 109.9203587  48.0063343  54.0898848 110.2882862  49.4707966  53.9851713
 109.0221596  11.7306066  57.4108505 108.5917568  10.8814573  57.3111534
 109.2077446  11.7965531  58.3475685 107.0103168  15.0942707  71.0156870
 107.4279308  14.2331433  70.9986544 106.1829662  14.9684596  70.5510521
  85.2176857  27.7685761  42.2099686  85.5603600  28.6591434  42.2854519
  84.2870140  27.8516436  42.4177408  85.1048356 108.4993987  66.2170696
  84.6568566 107.8093054  66.7062664  85.4298001 108.0625684  65.4297876
  92.8914261  39.0074825  51.6607761  93.3053684  39.7888350  51.2941980
  93.0880451  38.3142853  51.0306549  75.8744318  10.4492616   7.4444155
  76.7072374  10.7592963   7.0886664  75.2429754  10.5985307   6.7407088
   7.2404904  59.0859938  33.6657023   7.3086304  59.7663212  34.3355823
   6.7972607  58.3604383  34.1054177  17.6878781  39.0444112  55.7630444
  17.1794743  38.4841847  56.3494730  18.4365696  38.5058999  55.5067348
 113.5693550  22.6983023  93.8288784 113.6934948  23.1360364  92.9867363
 113.5595608  23.4095716  94.4693756 104.3189430  17.1348035  56.6520596
 103.7471867  16.3798213  56.7911005 104.7657776  16.9480228  55.8264208
 115.5360222  33.0963016  73.3583307 116.3610935  33.5807943  73.3307648
 115.2925873  32.9853654  72.4392748   9.2557282  84.3925571  60.8884478
   8.9961762  85.2939320  60.6976795   8.6432022  83.8554668  60.3858805
  19.5714516  24.0606236  26.4953923  18.9690537  24.2441463  27.2162724
  19.5322174  23.1104493  26.3864756  93.1823921  27.4717689  90.3386402
  93.3864021  26.6433930  89.9045849  93.6847591  28.1264186  89.8535728
 111.5718555  39.0456939  65.9089231 112.3306847  39.6290636  65.9177589
 111.7503262  38.4100389  66.6019726 102.5568962  40.6875992  88.7041092
 102.7045918  40.6232309  89.6476555 102.6800346  39.7950482  88.3809662
  23.0058903  13.5613596  86.7847252  23.4662194  12.7222979  86.8022251
  22.9339833  13.7757421  85.8546162 106.5207100  73.5051537  50.0591326
 107.1152115  74.0530729  50.5715752 106.7433167  73.6971617  49.1481924
   8.5338635  41.4061165  63.2489252   9.2358631  41.9040298  63.6678600
   8.8880390  41.1669827  62.3924160  79.9590951 101.9062721  69.5058060
  79.2130071 101.7996513  68.9157057  79.5997220 101.7439507  70.3780127
  13.1364769  39.1135550  52.6976299  12.5685639  38.9217758  53.4439087
  13.9234776  38.5920215  52.8552961 112.1457672  68.0034876  75.3194332
 111.9987583  68.1859684  76.2475061 111.3950253  67.4701405  75.0583506
  87.4514294  33.9745903  76.1173964  87.9677582  34.6694827  76.5257645
  87.4017811  34.2238832  75.1945639  96.7699146  39.9982834  51.8274403
  97.2284794  39.6758914  51.0515451  95.9953785  40.4413843  51.4810467
   5.4707283  36.3981867  79.0398359   4.6416897  36.0333276  79.3493605
   5.8215851  36.8700647  79.7951269   9.9786610  64.9463892  60.0892115
  10.2260441  65.1424456  60.9928703  10.5101818  65.5418015  59.5608187
  26.9137520  63.4135580  88.7833595  27.3704666  64.2545033  88.8047886
  25.9850163  63.6452770  88.7852097   1.6054959  20.9306502  83.8369942
   1.5908474  21.5724826  84.5469666   1.5423817  21.4550519  83.0387115
  85.3659725  51.1120892  44.7485733  84.6146774  51.3142920  44.1909885
  86.1209393  51.4445877  44.2630768   4.7831387   3.0798197  69.9443102
   5.6907028   2.7977085  69.8304701   4.8505730   3.9643103  70.3039789
  99.0122128  11.4232290  57.3646116  99.0304947  12.2439528  57.8568602
  98.7821960  11.6839111  56.4727783  59.7862226 109.9802865  60.7189178
  59.2490083 110.6396425  60.2797318  60.6288892 110.0177537  60.2664328
  75.8901167  43.4999752  50.8044863  75.6833410  42.9811430  50.0271225
  75.0544405  43.8894606  51.0617447   2.7360863  45.8908176  83.6514568
   3.1209130  45.3906775  84.3711758   2.2642178  45.2394247  83.1325531
 113.4993172  12.8286970  61.7693996 113.0895805  12.6699066  60.9190273
 114.1973686  13.4572315  61.5852928  14.4728989  47.3373699  63.6818266
  15.0680203  47.8670645  63.1512737  14.8691124  46.4660454  63.6884642
 113.1544399  10.9171128  83.2216644 112.6384640  10.4030967  83.8427925
 112.6739120  10.8485746  82.3966599  66.9970495   1.2293290   1.0015444
  66.4204867   1.9425678   0.7274966  66.6461260   0.4551172   0.5614523
  96.3802242  52.2615623  89.6279049  96.5453053  53.0208969  89.0689850
  96.2797546  52.6281118  90.5064106 108.7767506  24.2880392  75.1101828
 109.4637108  23.7659001  74.6958447 108.0725861  23.6632276  75.2833939
  69.0700865  30.1093745  63.1863785  68.4424925  30.7055545  62.7778101
  69.8471117  30.1613784  62.6298189  23.3979458  27.3215723  81.2868786
  22.7333874  27.9679394  81.0485363  23.8613552  27.1416879  80.4688740
  97.4372864  87.8369617  44.6450901  96.8834496  87.4358940  45.3148937
  97.1447945  88.7475491  44.6061945 100.6158543 104.6898556  54.4106913
 100.8106804 104.6873951  55.3478479 101.0062695 103.8797474  54.0827656
  50.8269961  51.8320512  12.0135645  50.9641821  50.9121274  12.2397284
  50.0612337  52.0928716  12.5252394   1.4059586  53.5419273  71.0067320
   0.9301705  53.8172817  71.7903423   2.2162766  53.1575584  71.3412285
  74.5539570  42.3227978  60.6780005  75.4760647  42.3823214  60.9278059
  74.5593405  42.3937798  59.7234535  60.2277833 103.0202602  82.0298481
  61.1516553 103.2561695  82.1137714  59.8661214 103.1530636  82.9060841
  90.4580290  11.7556142  24.1745715  90.0490458  11.1954402  23.5148959
  89.7562296  11.9432639  24.7978739 113.6505604  58.3613300  55.9759617
 113.7684059  58.1370831  55.0528908 113.7544823  59.3123817  56.0065508
 112.4892139  69.3268061  56.3991308 112.1115398  68.8899565  57.1625137
 112.9803562  68.6397505  55.9486151  33.4441418  50.1511717  73.7743139
  32.9647488  49.8485279  73.0030727  33.3903927  51.1058521  73.7303543
  77.1458721  42.2127056  61.9224596  77.7777863  41.5095091  61.7726898
  77.5655317  42.7776623  62.5712633 111.5233898  46.3398266  51.5990114
 110.9690475  46.0182810  52.3100281 112.3889732  46.4378500  51.9957447
  26.8766750 100.8994923  14.9988513  27.1153033 100.1747142  15.5767684
  27.1500266 101.6843997  15.4736380  86.7488480  54.0219116  88.0732536
  86.8303585  53.0838203  87.9013062  85.9962940  54.0932798  88.6604595
  18.1016106  19.6630406  95.3070545  17.2246975  19.7952247  95.6673145
  18.2527966  20.4315019  94.7567463  23.6863751  30.9317422  77.3473644
  23.9962715  30.8739972  78.2511663  22.8636307  31.4173198  77.4068308
  77.9911041  68.5759544  78.9918995  78.9018297  68.3020496  78.8833141
  78.0484295  69.4711494  79.3259239 102.2598171  47.9864788  46.2041855
 101.3667870  48.3283329  46.2472296 102.1746731  47.1513128  45.7443190
  69.5599730  17.0453738   6.6500048  69.2478640  17.6974201   6.0225825
  68.7670118  16.7345952   7.0868830  19.8612255  56.2289047  70.5448580
  20.6573242  55.8053684  70.2237940  19.1541809  55.6385088  70.2845716
  22.1278614  28.9840484  54.7278452  21.8897194  28.8919735  55.6503630
  21.5700383  29.6922135  54.4060135  99.2413044  87.3890686  77.7123117
  99.5794678  86.6920853  78.2745409 100.0102711  87.7124023  77.2428608
  21.5341324  50.7620573  47.4078226  20.6256909  50.4811192  47.2980452
  21.8273396  50.3188944  48.2039785   2.9883427  16.1294174  89.5817566
   3.4334893  16.9275749  89.8663902   3.2416386  16.0281062  88.6642551
 108.4207058  94.4957733  58.9192963 108.5704422  93.9592361  58.1408739
 107.7255535  94.0401936  59.3941021  99.7087479  48.2072687  42.2002459
  99.2589760  47.5350618  42.7121830  99.1549015  48.9833641  42.2848940
  41.7023451   0.2532291  14.0212302  41.7968256   1.0228204  14.5825057
  42.5448305  -0.1963044  14.0873198  75.5502462  60.1608801  81.0842514
  74.6267271  59.9140263  81.1333370  75.5780554  60.8545399  80.4252434
  96.7602062  60.0202036  60.4888105  97.1228409  60.8601141  60.2072382
  95.8146763  60.1177263  60.3761911  98.8947582  50.5643368  50.2556753
  98.3384895  50.0933743  49.6352005  99.0797043  49.9255991  50.9441805
   0.2214283  27.3667359  64.5366669   1.1538929  27.5773883  64.5853186
   0.1838249  26.5654707  64.0143728  24.6556706  32.7653122  62.6190042
  24.6760697  33.7222815  62.6238012  23.7367958  32.5445652  62.7712393
  24.7351689  68.5628462  43.8492870  24.4269509  67.7907228  43.3748817
  25.3729863  68.2204008  44.4755030  13.4147019  29.0877986  77.8585386
  13.6328644  29.6896720  77.1469259  12.5424904  28.7614322  77.6372719
  70.9968931  51.0549878  16.3466792  70.6390650  50.9395742  15.4664092
  70.2270014  51.1446046  16.9083361   2.1695275  56.8882227  75.4420519
   2.1603054  57.6086426  76.0722399   1.6024918  57.1852684  74.7303820
  93.4460258  46.3169670  72.0295620  93.7070847  46.2067890  71.1152649
  94.2372990  46.6289139  72.4686575  55.2441389  18.5352468   9.5142798
  55.9138376  19.0170383   9.0288786  55.6724817  17.7168702   9.7652869
  70.3097517  13.1113433   0.4799799  70.7360537  13.9631461   0.5744891
  71.0273726  12.5023984   0.3055338  92.4833012  74.8757219  73.5514927
  92.5238895  75.3784847  72.7379751  91.7878056  74.2351151  73.4027100
   1.8493027  49.2016792  90.9603024   1.9972843  49.6335268  91.8016338
   0.9115166  49.3058968  90.7992649   1.7109532  52.5189924  74.7608852
   1.5941185  51.5749598  74.6541452   2.3409600  52.7606392  74.0819693
 103.0309547 100.7721530   6.8492178 102.1466315 100.5001984   6.6037611
 102.9050315 101.3354646   7.6127963   3.4926457  95.4660988  70.3918600
   2.9813809  94.6593952  70.4557085   4.0154595  95.4823971  71.1935043
   3.0982441  15.2836299  52.8786373   2.3355240  14.7089112  52.9433823
   3.1981224  15.6490147  53.7577009 110.2741814  49.2462111  59.3977165
 110.1682568  49.9964523  59.9826527 110.6661892  48.5675383  59.9472332
  49.0084422 104.7377168  13.5687499  48.2404197 104.1751014  13.6679129
  48.9307559 105.0953732  12.6842837 102.8563881  34.0783811  69.4111681
 103.7195206  33.6649323  69.3941164 103.0256844  34.9742985  69.7025537
 104.6985722  39.9918771  76.5904617 104.1705894  39.9171042  77.3853683
 104.6333599  39.1306996  76.1777258  91.2484646  61.4358377  66.8834591
  90.5430698  61.3345337  67.5225163  92.0033836  61.7139721  67.4020815
 105.7638741  64.8562527  81.5451813 105.5085850  65.3982019  80.7986259
 106.7055702  64.7248220  81.4348412 115.8678341  50.4285812  79.0317154
 116.6273212  49.8545408  79.1312122 115.1276970  49.9006367  79.3312168
  99.5191097  70.2546883  48.6293602  98.9563370  70.2531052  47.8550768
  99.5071602  71.1626101  48.9322853  91.9376469  54.9119616  64.9724245
  92.2833633  54.4202900  64.2274618  91.0951138  54.4990015  65.1617336
  99.9819565  85.4943848  51.6310501  99.5320511  85.9151459  52.3637056
 100.3889179  84.7173595  52.0142746  26.4823211  69.6375750  11.9996790
  26.3104404  69.3525039  11.1022238  26.6814388  70.5704950  11.9206576
  27.0003856  86.1667143  16.9224505  26.3902152  86.5572630  16.2968306
  27.7886546  85.9891997  16.4092783  77.7829981  18.0383897  45.7685757
  77.3762608  18.8960099  45.6449413  78.7220573  18.2210624  45.8007288
 114.8743343  76.8376637  11.2267852 114.5785522  77.7137804  10.9794569
 115.0762177  76.4093065  10.3949285  63.5048437  36.3931751  38.5667062
  63.7244511  36.6816330  39.4525909  63.6789894  35.4519606  38.5712171
  96.8547821  30.8194876  84.9146652  96.6945362  29.9618340  84.5209885
  97.6533890  31.1325693  84.4898891 109.8500347  54.4991636  88.4141445
 109.4583035  53.9012814  87.7775002 109.6238708  54.1243792  89.2653847
   6.7494721  41.3915920  81.3823700   6.7073387  42.3031521  81.6713619
   7.6809544  41.1733723  81.4131927  86.7944717  69.7832060  82.4570847
  86.1341858  69.1179180  82.2630501  87.2911263  69.4209003  83.1907654
   1.3086075  55.6066036  89.8876381   0.6473965  55.0719023  89.4481754
   0.9059662  56.4717674  89.9624729  13.3373112  28.1195688  80.7362175
  13.6007256  27.5781465  79.9921036  12.7181191  28.7492394  80.3669739
  75.7643127  52.4340487  70.1178074  75.3096628  53.2583809  69.9445820
  76.6348410  52.6985598  70.4152060  88.3865261  35.8506441  87.1589184
  88.1201935  35.3716922  86.3741207  87.7375412  36.5489388  87.2451305
  21.2830109  43.1734800  78.1692410  20.3816742  43.4299517  77.9742098
  21.3746590  43.3178282  79.1110468  58.8657361 106.5241637  36.0072279
  58.2147103 105.9613167  36.4262867  59.6952134 106.2759318  36.4153576
 101.0577679  33.2045674  74.3373108 101.4706326  33.6792874  73.6159134
 101.1850452  32.2810388  74.1202259  28.8601345  65.9368706  62.4282837
  29.6983856  65.8484507  61.9746876  29.0974564  66.1507607  63.3305931
 105.5012226  25.1319790  60.0498533 104.9553108  24.6523643  59.4268131
 105.4003143  24.6548796  60.8735180  98.9815903  70.8320236  62.7501774
  98.7427711  70.3269720  61.9729233  98.9152718  70.2066994  63.4718466
 103.4225559  64.4616699  89.8797321 103.7535858  65.3567934  89.8061943
 103.8661957  64.1046953  90.6491375 102.3533440  30.7062292  73.6526442
 102.6724339  29.8081708  73.5637379 103.0736446  31.2491584  73.3322906
  26.2172950  99.6360837   3.5962634  26.5992797  99.0922795   2.9073576
  25.4757179 100.0705539   3.1749110   6.1124462  49.9035597  77.7520609
   5.4258198  50.5516434  77.5946903   5.6676621  49.0595865  77.6738930
 101.0717964  31.8101430  84.0280247 101.4638710  31.0463810  83.6047363
 101.4285374  31.8011999  84.9162197  21.8319363  58.5520554  75.2262449
  21.2788243  59.1634083  74.7398853  22.4253792  59.1120768  75.7266808
  20.8757729  59.6643400  71.2252617  21.5785641  60.3121567  71.1738253
  21.0289044  59.0850544  70.4787922  14.4452614  78.8932419  64.5869541
  13.8943333  78.2486439  65.0310230  14.0400261  79.7360182  64.7912693
 107.9637241  40.1271915  86.5084076 108.3013916  39.2545509  86.7101765
 107.9012012  40.1449060  85.5534077 109.9191380  80.2603245  81.7890453
 109.8178768  80.6373024  82.6630402 109.0479279  79.9313450  81.5676880
 107.3892307  48.0741215  66.2556648 106.8142509  47.3170280  66.1441326
 106.8439198  48.7262583  66.6956568   8.0264611  56.1492205  29.5400214
   8.8529057  55.8586931  29.9257922   7.6264233  55.3488588  29.1999793
   9.7209400  29.5622349  66.5868711   9.6651310  28.6080694  66.5350533
  10.0388474  29.8307276  65.7248545 101.8248749  63.3192015  93.4796906
 101.4805603  62.7341986  94.1545582 101.0779762  63.4881639  92.9053783
   2.1838993  62.4972820  78.0261183   2.4782318  62.9631853  77.2434759
   1.7352814  61.7219257  77.6887703  74.4320393  42.9299355  57.9623461
  75.2771378  43.1499338  57.5703716  73.9384317  42.5192213  57.2524929
  31.7845214  90.2568875  10.3044943  31.0879482  90.7234155   9.8425822
  32.4892295  90.1807485   9.6611933  71.1218166  33.6157966  86.1632633
  70.4939795  33.8723779  85.4878235  70.5885029  33.1989884  86.8400764
  62.0162851   5.4266261  15.8090453  62.1567900   6.3425445  16.0490088
  61.3218958   5.4552888  15.1508383  78.2011509  12.2605956  67.4191236
  78.1729841  13.2173312  67.4288988  77.8839016  12.0205224  66.5485239
   1.6596073  35.4521775  25.6568336   1.7796368  36.2904739  25.2106428
   2.2769875  35.4793692  26.3878179  13.7421936  49.3359947  74.7099495
  13.4185166  48.4490681  74.5523882  14.2631668  49.2623091  75.5095720
 107.9191208  21.1991119  52.3730135 108.0711269  20.3678775  52.8226519
 107.2037983  21.6077590  52.8604126 116.9781399  13.5582471  76.5422678
 117.1399784  12.7125192  76.1241913 116.1697865  13.8742042  76.1385822
 110.0603771  97.9281521  61.8758726 109.4342709  97.6365376  61.2131596
 110.4316044  97.1188450  62.2272205   8.9511341  78.4081078  92.7928829
   8.9395279  77.7444315  92.1032238   8.8385720  77.9125738  93.6040592
  28.2396740 101.5215206  94.4651318  28.0875439 101.4798069  95.4092407
  28.9728970 100.9250259  94.3140984  30.2779370  90.1088869  35.0436997
  29.3755752  89.9930226  34.7461295  30.1983529  90.5859410  35.8697248
   7.5009007  13.8874829  43.5502434   6.6981358  14.3799198  43.7214613
   7.2430367  13.2241166  42.9101753  60.8160478  76.8490516  29.0885592
  61.7255765  76.8946134  28.7937450  60.6045419  75.9157049  29.0694571
  91.8043327  43.1027412  51.7184067  92.5320339  43.0739355  52.3395729
  92.1128559  42.5999832  50.9645653   3.0471749  40.2624941  75.7988548
   2.1970028  39.8241067  75.8343840   2.9918331  40.9468317  76.4658308
  85.2564812   8.0606759  58.6636448  84.9564934   8.9696431  58.6597776
  85.3754330   7.8437811  57.7389622 107.9171848  16.0475683  25.2224541
 108.6045837  16.5499377  25.6598735 107.9676247  16.3199723  24.3062210
  33.0358487  97.3104297  43.6795235  33.3679229  96.8341874  44.4405460
  33.3191424  96.7890905  42.9284048   1.3989777  54.4222021  82.5327778
   2.0180744  53.8732481  82.0515347   0.6473393  54.5064449  81.9461155
  62.0879793  16.5086710  86.0618782  62.4863815  15.6761491  86.3156796
  62.7337074  17.1694028  86.3122845  33.0813069  15.8900356  37.1006989
  32.6519245  16.7395794  37.0000219  32.3607964  15.2617168  37.1488619
  14.9840302  40.3318357  51.0821533  14.5164627  40.6679106  50.3175163
  14.2935509  40.0197935  51.6670465  80.4748899  97.3332225  81.7303848
  80.2018434  97.7037822  82.5696468  81.2203199  97.8706132  81.4624596
  70.4715329 105.5378904  40.7613993  70.4014474 104.8138832  41.3836002
  70.1589948 105.1732360  39.9334049  31.3123208 106.9490247  64.1857862
  30.9930497 106.1964445  63.6878729  32.1664744 106.6719662  64.5172930
  98.7036228   6.4191204  28.0407619  99.4827938   6.9262785  27.8128982
  98.0045319   6.8034542  27.5118065  79.7131062  33.6741686  88.3825493
  78.9183855  33.8340783  87.8735542  79.6061945  32.7850413  88.7205601
  43.8232673  70.9540103  20.2473597  42.9818595  71.0660778  19.8049693
  43.9250625  71.7474697  20.7729964  72.7801275  30.5277562  93.4847164
  72.1838427  30.0485492  92.9093552  72.3087120  30.5959010  94.3149853
  54.4556236   0.7411738   4.3513304  54.7354650   0.8396500   3.4412622
  55.2651405   0.5743313   4.8341128  57.9065323  16.0796702  62.7715111
  58.6637783  15.4957426  62.7286673  58.2405567  16.9270527  62.4772310
  75.0450993  28.7541819  33.7751055  75.2271175  28.1198573  34.4684553
  74.0897751  28.8016748  33.7386847  45.3568822 104.3358629  74.2091846
  44.9289208 104.0136807  73.4159136  44.6414357 104.4644289  74.8319530
  69.4037419 109.3499867  79.1916132  69.1072732 109.2368302  80.0946808
  69.1708642 110.2526590  78.9743996 106.5915775   5.8360004  64.5315552
 107.1778393   5.5595756  65.2359200 105.7332325   5.4989624  64.7882223
  45.9724122  98.5807299  50.2092981  46.5790349  99.2457162  50.5349255
  46.3588792  98.2874834  49.3841410  70.2810269 109.3667150  74.7860050
  70.7862168 109.8295856  74.1176033  70.8871251 108.7128191  75.1342821
 100.1819020  93.7044465  77.3491812  99.2417127  93.5443019  77.2678232
 100.2521592  94.6471452  77.4995708 101.4167023  18.9951789  54.2641115
 102.0362377  19.4950986  54.7956085 101.0622883  18.3384717  54.8635769
  17.7199311  16.4469111  81.9067383  17.9467720  16.8684590  82.7356339
  18.2811207  16.8738711  81.2594318 101.0256004  16.3263059  59.1074228
 101.4910221  16.4307404  59.9373102 101.5707588  15.7239699  58.6012316
  94.6025753  18.5982013  47.2015524  94.5550156  18.7105656  48.1509447
  95.2420807  17.8972912  47.0750666  92.5052452  31.5130305  87.8259373
  91.6782284  31.7432547  87.4025249  92.9389381  30.9297228  87.2031307
   7.7240509   7.0198452  40.3529310   7.0795388   7.4132013  39.7646236
   8.0694050   6.2725198  39.8645997  52.3848611  81.9500433  13.6724806
  52.9592687  82.3088657  14.3488967  51.5289861  82.3381006  13.8544834
 106.4238071  33.2986856  33.5209107 107.0642948  33.0247188  34.1773820
 105.5962467  32.9242349  33.8228226  99.8362160   1.4168122  56.7360687
  99.5301628   1.1737835  55.8622837  99.2967510   0.8970766  57.3319578
 109.6874809  26.0887432  45.3495359 109.4267941  26.5147567  44.5329666
 109.4273281  26.7045522  46.0346222   4.3494648  10.2963710  24.5785785
   4.3375820   9.9609601  25.4750085   5.2514786  10.1659489  24.2859912
  42.7355236  20.4336500  91.7907524  42.0707173  20.2929807  91.1166000
  43.0646366  21.3165236  91.6220570   7.6157135  27.5495267  79.4928789
   7.1932453  27.6331306  78.6380339   7.9903836  28.4142613  79.6604776
  15.9933132   9.6032822  42.8602886  15.9169335   8.6491811  42.8509045
  16.3870377   9.8203659  42.0152521   6.8990464  44.7249269  55.4325390
   7.0476860  45.6029940  55.7834435   6.4227623  44.2675304  56.1254883
   9.0405220  14.5590436  46.1859274   8.6748738  14.5287800  45.3018332
   8.4100003  15.0750232  46.6883564  73.3471727  22.9233050  64.8862028
  73.1311226  23.6750698  64.3344736  72.8231096  22.2060490  64.5296431
  10.3648323  19.0640712  70.7296419  10.8125824  19.9082220  70.7858992
  11.0148186  18.4278476  71.0279226  46.3231927  96.5921389  22.5665641
  46.8022615  95.9813999  23.1266761  45.4920465  96.7317461  23.0203605
  42.9396785  49.6784268  10.8433299  43.5652889  50.2528770  10.4019026
  43.0648006  49.8589752  11.7749838  52.6284295  83.8995444  46.2457371
  52.1966916  83.3115303  46.8654728  52.7739030  83.3620535  45.4671621
  82.3013306  36.4907455  70.9424400  82.0864677  37.1161175  70.2503586
  83.0757332  36.8599868  71.3669348  88.4082317  12.1641338  39.9626422
  89.2438126  12.4272001  39.5768595  87.8078747  12.8763413  39.7422481
  72.5003701 110.3179847  55.6811953  72.5919419 109.7545047  54.9128628
  72.0678216 109.7660961  56.3327694  74.4609815 105.5028903  70.7094622
  74.4813710 104.9083143  71.4593267  74.0863305 104.9808644  69.9999905
  45.9666997  98.9130866  55.3521919  45.8582192  98.6978327  54.4258404
  46.2041265  99.8403644  55.3564072 107.0155334  38.4927654  93.0367947
 106.2630177  38.7054968  93.5887814 106.8041039  38.8759804  92.1855164
 107.9516792   9.3081439  67.2252893 107.8381062   9.1987544  66.2811661
 108.5556030   8.6092687  67.4764442   0.5426640  13.3251977  52.3303461
   0.6403298  12.4769056  52.7628899  -0.0770813  13.8045073  52.8802681
  96.0520172  26.8350673  34.7943020  95.1513958  26.8232727  34.4702983
  96.0504818  27.5009680  35.4819107 105.6238651  43.1426382  78.6701059
 104.8827076  43.7483358  78.6636543 105.3297997  42.3987007  78.1444502
  15.0744194  45.9327602  92.5836849  15.2351517  45.1159096  92.1112919
  15.1155514  45.6870365  93.5078907  76.4709663  19.7132456  10.1126277
  76.6299152  18.8440490  10.4806864  76.4234972  19.5681882   9.1676742
  52.1832514   4.0633062  74.2453194  52.9456377   3.6626145  74.6629858
  51.7601585   3.3431336  73.7777948  81.3219357   3.1655017  42.5539827
  80.6127453   2.7834651  43.0710268  81.9049931   3.5605675  43.2022095
  28.8026852  20.6293058  51.9964981  27.9642052  20.7410622  51.5485239
  29.4494957  20.9826875  51.3857698  86.2035179  11.8415308  32.3889089
  86.8791294  11.2341321  32.0875049  85.3995132  11.5314817  31.9721580
  93.7203217   0.9900457  65.0073099  94.1916656   0.1748011  65.1788998
  93.7089729   1.0638490  64.0530252  51.7286759  99.2019605  58.1567764
  50.8137685  99.0494179  58.3932304  52.1126824  99.6070670  58.9343739
  60.5082112  81.3819014  20.4080009  59.6883756  80.9364831  20.6217885
  60.3449708  81.7886268  19.5570254  90.8319664  25.2701569  54.2813683
  90.4889202  25.1000953  53.4040833  90.3342247  24.6836662  54.8510265
  85.3339273 104.4369887  63.9379168  84.4192296 104.6115499  64.1595078
  85.5076963 103.5697143  64.3038034   3.9035172   8.0515844  59.4975281
   3.4988922   8.9178365  59.5435143   4.3507046   8.0407268  58.6512756
 106.1001682   7.1316236  44.1097212 106.4245129   7.3921192  44.9717951
 105.3100586   6.6238695  44.2944813 111.5624142   9.3893319  62.7647209
 110.9194088   9.4714969  63.4690142 111.4214516   8.5102993  62.4130630
  25.3766579  57.0507145  42.5650358  24.4250817  56.9536829  42.6013517
  25.5144638  57.9430056  42.2471428  29.7450585  17.7726746  83.5385704
  29.9535698  18.1277668  82.6744652  30.0829930  16.8773603  83.5175133
  25.2033168  91.5054916  57.3606253  26.1118680  91.5357780  57.6603651
  24.9804193  92.4185144  57.1791315 110.8073521  14.7264481  77.2054100
 110.3625870  14.1946256  77.8653955 111.1421871  14.0915883  76.5721083
  71.1079949  77.9229008   5.9439711  70.8410615  78.7918006   6.2439589
  71.4029211  77.4757682   6.7372756  12.2896618  24.2818689  63.4991598
  13.1835789  24.1074061  63.7936306  11.7689270  23.5766864  63.8835859
 103.3537960  22.9926848  59.6468735 102.5049305  23.1774473  60.0487661
 103.2319260  22.1521354  59.2054462  86.3069820  23.9794111  67.2119093
  85.6705475  23.8041186  66.5187550  87.1563244  23.8021421  66.8076515
 104.6641350  32.1318674  65.2740431 104.2404842  32.5728846  64.5376682
 103.9885426  32.0934463  65.9510469  89.5205116  15.5304146  51.3555336
  89.1114616  16.3496685  51.0767221  88.8351631  14.8711860  51.2462282
 105.7826138  12.0488775  79.7456455 105.9944534  11.5187049  80.5139351
 105.6792927  11.4134693  79.0372562 110.3241634   9.2751992  47.4778843
 110.5500317   9.0977663  46.5647888 109.4322014   9.6205711  47.4412155
  99.3186569  12.4525917  72.0049381  98.6837959  12.8411603  72.6067686
 100.0804806  12.2604394  72.5516891 105.9657097  25.9658909  87.6609039
 105.7381916  26.6353488  87.0156956 105.9971619  25.1510334  87.1596622
 101.7536163  17.5375426  79.6455717 101.3474369  16.7826021  79.2197561
 102.2193527  17.9880297  78.9410305  12.8091759   4.1655022  58.5134983
  12.8998894   4.3194145  57.5731182  12.3349518   3.3363700  58.5758448
  -0.0009113   8.8840264  32.3859239   0.4443020   8.0393583  32.3184466
  -0.3226333   8.9138937  33.2869411  82.8229141  11.8166614  24.3162823
  83.0837631  11.9859302  25.2215648  83.3922291  12.3812270  23.7934256
  11.9952435  19.1844690  36.8341780  11.3820690  18.6392295  37.3270941
  12.8436512  18.7571704  36.9518113 100.7168961  34.7071981  63.5532331
  99.9791431  34.6846342  64.1626930 100.6748104  33.8678384  63.0950451
   3.4827084  25.6274199  49.5318508   2.9498333  24.9780774  49.0729046
   4.3635887  25.5086756  49.1766167  99.7934341  11.9723105  50.6346512
  99.7645092  11.5203273  51.4779234  99.8164082  11.2684810  49.9863243
 110.4622173   6.8900102  93.1898022 111.2853336   7.1630597  92.7846336
 110.6359577   6.9225252  94.1305351  98.8693333  36.7507911  83.5873318
  98.2907581  36.3684130  84.2470837  99.5606136  37.1776319  84.0934563
  11.8616432  14.3699729  47.2047663  10.9638829  14.5803773  47.4616528
  12.0683045  15.0023711  46.5165854 112.5168610  28.6552525  56.8895197
 112.9534340  28.9874768  57.6739025 111.9554329  29.3761706  56.6043806
 101.9340897  49.9907303  60.8434582 101.2707806  49.8576880  61.5206289
 101.7615795  49.3026972  60.2007437  95.7592106  57.9295349  32.7739072
  94.8533916  57.7611685  33.0334783  95.8159828  58.8827085  32.7070355
  87.6934528  33.2244086  38.0474544  88.0684853  34.0948701  37.9137206
  88.3830166  32.6213074  37.7699494 115.2972317   1.8919525  58.7983847
 114.9899864   2.7535966  58.5166025 114.7050095   1.2743811  58.3692980
 109.8577309  36.7856050  84.1804790 109.6352863  36.8865776  85.1059914
 109.2768288  36.0915661  83.8688755 113.3198738  15.5313993  70.3756618
 113.8877392  16.0417402  69.7983313 113.7937546  15.4948020  71.2065268
  25.9362567  73.5056339   8.9376883  25.7855762  73.8465892   9.8193125
  26.8536151  73.7094413   8.7556033  32.0979351  15.4688442  32.4952245
  31.8923611  15.2051008  31.5983367  32.3526329  14.6558309  32.9315424
 115.4373455  40.0383186  59.7240162 115.8019924  40.8762264  60.0089264
 114.5187950  40.2290535  59.5339870  23.1462712  22.5383496  48.9890528
  22.2071404  22.7230430  48.9764881  23.2335133  21.7087340  48.5196304
  28.6414284  28.2171130  75.4255629  28.4177632  28.5006022  74.5390892
  29.5717091  28.4237742  75.5155563   8.0390305  19.0029728  38.1188440
   7.5859684  18.1628382  38.0471301   8.0697674  19.3358445  37.2219133
  93.2295990  49.4937372   8.9003170  92.3613644  49.2383814   8.5885626
  93.3326817  50.3990650   8.6070818  12.9843659  15.2606070  49.8013735
  12.2661156  15.5119371  50.3820419  12.5787968  15.1848614  48.9376593
 108.6330223  10.9591615  49.7807980 108.2036972  10.8918345  48.9279318
 107.9592323  11.3139439  50.3607750   4.3139023  56.6307592  49.1711473
   5.2388615  56.6604853  49.4156885   4.1711754  55.7291603  48.8830757
 114.4136143  23.5012388  24.7244000 114.0832138  23.8994026  25.5297136
 114.0803623  24.0634274  24.0250301  14.5428414  47.1024990  72.2495604
  14.1393608  47.9575968  72.1003771  13.8200611  46.5428972  72.5335741
  97.1343994  38.8799548  82.3945236  97.3258686  37.9895949  82.6891899
  97.7707481  39.4267774  82.8552532   5.9009117  14.9056709  79.2050934
   6.7001862  14.3858433  79.1204405   5.2009434  14.2575741  79.2841387
  97.0790482   3.6996764  89.9385548  96.2301540   4.0613422  90.1931381
  97.0829964   3.7479633  88.9825821 115.7271862  61.3497162  83.5710907
 115.4055595  61.2671852  82.6733303 115.7937050  60.4480791  83.8855171
  50.2808536  58.8108413   1.1598162  49.5679439  59.3201737   0.7743697
  49.9002326  58.4250642   1.9488196  56.6832876  49.9155903  90.7075882
  57.2539377  50.0737762  91.4596367  57.1054220  49.1994524  90.2330589
  71.2514859  98.0708217  76.1395025  71.6847211  97.2275602  76.2715960
  71.0575563  98.0962895  75.2024984  10.9237332  32.9653287  20.7559681
  11.7119736  33.4782052  20.9344816  10.9372086  32.2690392  21.4126539
  69.3862897 105.2556880  60.7229948  69.8057633 105.0603538  61.5609217
  70.1019078 105.5508467  60.1599550  75.5521566 103.5294961  64.7799206
  76.2220841 102.8459608  64.7940493  76.0457212 104.3491994  64.8064709
  42.9434628   4.3349701  79.0537548  42.0136113   4.2465964  79.2630339
  42.9716343   4.3684226  78.0975580 107.6974201  10.3267121  47.0387983
 107.9022217  10.5191672  46.1237860 106.9184685  10.8508348  47.2252464
  79.9374658 106.8879168  91.2992859  80.3756696 107.4665903  90.6753063
  79.0478211 107.2351687  91.3639736  93.1575012  35.1419401  54.1286612
  92.4149323  35.7414484  54.0550280  93.7205791  35.5386138  54.7933578
  66.8677425  21.7172313  59.0101051  66.6504431  21.0538816  59.6650743
  66.2275648  22.4142361  59.1536045  21.5944332  29.4987702  84.6163559
  22.0247025  28.6727548  84.3954468  21.7281956  29.5937872  85.5593967
  27.4810643  50.5567694  44.9186516  27.5395150  49.8661900  45.5788946
  26.7225308  50.3160286  44.3867636 108.0697060  27.9243588  80.9700775
 108.8548183  27.3768234  80.9638882 107.7990437  27.9653358  80.0528526
  99.4549084  54.9022388  68.1837988 100.0526905  55.4739761  67.7021313
  99.6553040  55.0678253  69.1050243 113.0855942  38.1679106  60.0176430
 113.2096863  37.4177361  60.5990791 113.3872414  38.9192176  60.5283070
  10.5086941  45.0784969  51.9666386   9.5886940  45.2886724  52.1268606
  10.5458874  44.8604774  51.0353422 115.2045441  14.1151559  40.1116896
 114.4040966  13.6780345  39.8211122 115.0623131  15.0385332  39.9034214
   0.5929608  46.8787718  58.5877323  -0.0105911  47.5304413  58.9444971
   1.4629311  47.2420692  58.7532759   5.9133763   8.3183497  61.7083883
   5.2952141   8.2883430  62.4385929   5.3605408   8.3386111  60.9272385
  18.3440346  35.4485488  53.1853437  18.4515328  36.2000084  52.6022625
  19.1686768  34.9681854  53.1114864 109.3801403   7.0254731  25.6339955
 108.8132191   7.6955277  25.2520871 108.9505386   6.7882466  26.4558196
  74.1665077   1.5947939  66.4364576  73.2335901   1.4059497  66.3352919
  74.6013498   0.7643240  66.2428999  15.8746285   4.3356019  69.1806746
  15.8796734   4.8523939  69.9863625  16.6528172   3.7821132  69.2462683
  92.2057819  16.8829834  45.5989456  92.0843315  16.9381845  46.5468025
  91.3789558  17.1969366  45.2328444  92.2839355  26.5301728  84.6401882
  92.2638512  27.3959398  85.0479603  93.2007313  26.2606239  84.6954060
  46.3026124 108.1377441  63.6478567  46.2232667 108.1847089  64.6006060
  46.8085652 108.9150249  63.4110451  17.4686683  84.8568927   4.6952204
  17.9366077  84.7837482   3.8634066  17.1503032  85.7594333   4.7123675
  17.6526398  36.2190533  26.7965746  18.3771557  36.4573574  27.3749590
  17.1783108  37.0386124  26.6566896  70.7321895 100.8968983   6.5059046
  70.2897037 101.7374812   6.6236548  71.5966857 101.0245047   6.8965487
  91.1295986  41.8152809  49.1730881  90.6342125  41.8278360  49.9920273
  91.4531231  40.9171724  49.1026115 102.3557186   2.8157589  62.3457146
 101.4079189   2.6868159  62.3815060 102.7177143   2.0623899  62.8122187
 106.1774826  48.8433218  48.4856462 106.6107655  47.9899883  48.4677601
 106.6580391  49.3421412  49.1463137  19.1129059  15.1237941  57.9448318
  18.9552540  16.0656893  57.8799295  19.9877400  15.0014091  57.5761557
   0.5983776  22.3345733  52.6748753  -0.1538044  22.8966737  52.4891424
   1.2963814  22.9418492  52.9202986   0.0822586  54.6996450  61.3140011
   0.9671540  54.5094299  61.6254663  -0.0887256  54.0281487  60.6536245
   1.4487786  49.3540764  79.6366596   1.4564080  49.1667128  80.5753136
   1.8956322  50.1968145  79.5570087  30.9822983  37.2331810  38.7051630
  30.7943863  37.3796010  39.6322441  30.6536049  38.0183029  38.2672453
 107.1053791  62.9867029  66.9921732 106.9584274  62.5314903  66.1630678
 108.0572224  63.0007029  67.0922947  36.6800386  92.4629401  62.7381277
  36.6777736  91.5559255  63.0439901  35.7545358  92.6806270  62.6272535
  34.5166344  21.7937469  32.5715399  35.0203938  22.2607350  33.2381582
  33.9098877  22.4490571  32.2270775  20.4169030  38.7945676  74.5681810
  20.6103176  39.5439386  75.1314449  19.7275681  39.1070247  73.9821672
  73.4453755 102.0807623  56.2791586  73.3831388 103.0344396  56.2257004
  73.3868199 101.7856096  55.3704834 104.5333099  27.8310537  82.0836449
 105.3727722  28.2738042  82.2081757 104.5671177  27.0818424  82.6784229
   1.7155403  63.1138945  35.0245500   1.8927140  62.7918053  35.9083462
   0.7903714  62.9164076  34.8786402 107.8493977  33.3477974  49.8537207
 108.2936764  32.5047922  49.9442291 107.8877735  33.7339211  50.7287455
  37.9161912  96.9216393  47.9583836  37.4612170  97.7451657  47.7822113
  37.3462230  96.2487303  47.5861454 103.6855984   6.3711840  39.5756698
 103.5223484   6.4749712  38.6382222 102.8876972   5.9650111  39.9142122
  77.3769933 105.7745408  62.5284624  77.8685838 106.5891640  62.6331615
  77.9699784 105.0942587  62.8475475  19.6813358  83.7936316  41.4470534
  18.8336910  83.3499585  41.4767699  20.3200496  83.1015502  41.6181998
  12.3254914  32.4420977  47.8022575  12.1031994  32.3718548  48.7306356
  11.7473454  33.1282377  47.4687958  58.7527717  98.9124833   1.3471083
  58.9569915  98.2322322   1.9888072  57.9946483  98.5731326   0.8713679
  91.6235924  36.0716152  38.3858228  92.3478794  35.5518699  38.0372429
  92.0353413  36.6655898  39.0134263 107.8341103   8.8918906  41.3995218
 108.7845421   8.8103849  41.3204193 107.5293827   7.9982984  41.5572262
  17.4449868  23.4212041  60.3098249  18.2951016  23.8059330  60.0964785
  17.3730320  22.6628733  59.7301817  32.0487637  15.8468974  51.2766886
  31.7499203  16.4283085  51.9758940  31.3021416  15.2722967  51.1074924
  99.5369434  17.5409174  55.5860376  99.1543484  16.9940341  56.2721634
  98.7918377  18.0094969  55.2098989  98.6933804  31.1751175  17.1569419
  98.2291794  31.7844272  17.7309573  99.6113014  31.2533784  17.4167800
  98.2615089  26.9017935  28.8622928  99.0768337  27.2448683  28.4965539
  98.4994221  26.0444784  29.2153311 116.1123848  53.2990742  90.8834743
 115.6505489  52.4821758  91.0721874 115.4485798  53.8634539  90.4871559
  96.1321831  17.5062871  76.3432741  96.2011909  18.3247888  75.8518267
  96.6517162  17.6565742  77.1330357  64.9914885  35.5078673  73.3235931
  65.7322216  35.7968116  73.8565636  65.1401758  34.5711207  73.1946421
 112.7444458  16.5268409  59.9580097 112.1575451  16.1036599  59.3313599
 113.6141682  16.1970663  59.7320080  73.9673024 104.1699915  28.6884379
  74.8496991 103.9911049  29.0134287  73.7218171 103.3764612  28.2127523
 105.6893444  28.9587569  47.8872728 105.6101513  29.8136377  47.4640226
 104.9645233  28.4461951  47.5292969   7.3486656  49.9707317  63.9309168
   6.6051239  50.1667690  64.5009565   7.8161759  50.8023119  63.8525534
  86.1298352 102.3645430  39.5448899  85.6475907 101.8442225  38.9022875
  85.6133824 103.1646710  39.6413612   9.0434403  32.9459691  68.5654354
   9.7553486  33.2500529  68.0024576   8.4296364  32.5205493  67.9666948
  81.3236237  33.6502099  50.9650755  81.6703320  34.3410158  50.4004383
  81.1956882  34.0755773  51.8129683  11.8666596  32.8805923  29.4288659
  12.2021431  33.2044649  30.2648044  11.1551613  33.4813786  29.2073894
  21.8240589  36.0094619  53.6882305  22.1862168  36.1356282  52.8112173
  22.5299687  35.5909371  54.1809368  71.7828637 103.3537339  87.1790886
  71.5046674 103.0251639  88.0340004  71.2522203 102.8646242  86.5502644
   9.4323487  23.2137775  45.4190159   9.7743077  24.1024089  45.5171776
   8.7343258  23.2961679  44.7692442   2.6748127   4.3486100  14.3642974
   1.7384857   4.4882643  14.5057690   2.9569287   5.1107568  13.8585532
   5.5985684   2.1755444  35.4897213   6.5239949   2.2182108  35.2488804
   5.1350827   2.5022981  34.7185922 115.1690388  31.9579148  11.3653696
 115.4985428  31.5659809  12.1740997 115.8588505  32.5637078  11.0944200
  96.5106010  50.5460215  62.8870535  96.8207169  51.3042450  63.3821917
  96.6405582  50.7891083  61.9703960  62.2180331  58.0446686  34.0243105
  62.5067104  57.8207065  33.1395773  61.7934669  58.8972597  33.9290766
  21.9942707  19.3548465  55.9048605  22.3781533  19.8834205  55.2052307
  22.6777500  18.7239933  56.1309481   2.9490704  37.7018952  21.9775629
   1.9919819  37.7105021  21.9656491   3.1808705  38.0392575  22.8428292
   4.6493668  40.3522110  73.3879423   4.0677780  40.1340055  72.6596785
   4.0604634  40.5090141  74.1260719  71.3015556  29.8088050  61.5757942
  71.3609743  29.0876389  60.9492016  72.1086454  30.3066063  61.4452791
  91.3812637  35.6713080  69.3045616  91.5060711  35.4464722  68.3825493
  92.1489239  36.1972570  69.5288706  99.8193169  19.0826833  41.6731977
  99.9419975  18.7267828  40.7931280  98.8695335  19.1224241  41.7852354
 103.2469845  60.2307606  64.2494106 102.6526642  60.0448227  63.5224676
 103.7661552  59.4322395  64.3445826  69.5525980  45.8257961  73.6480999
  69.4215059  45.0332212  74.1685534  70.1579523  46.3555765  74.1668606
  16.0185761  25.1469660  55.7661152  16.8512673  24.7960234  55.4503727
  15.3722042  24.8374677  55.1315689   5.6109262 101.8300222  67.3786736
   5.5403352 100.8883070  67.5349522   6.0448480 102.1707528  68.1608772
 114.1977501  40.3386450  65.7954407 114.6315289  41.1005163  66.1796570
 114.7226429  40.1283646  65.0231028 111.8056774  34.6869850  20.2204680
 112.4312210  34.9538231  20.8940506 111.3757420  35.5006242  19.9570620
   9.4994301  53.0441284  74.6769094  10.1244683  52.4005604  74.3431759
   8.6907906  52.5483370  74.8054695   2.0146603  54.4171095  45.4699993
   1.0974640  54.1482925  45.4178572   2.4323124  53.9900112  44.7220755
  15.2556748  40.6438780  89.7678375  15.2486843  39.8829508  90.3485107
  16.0093064  40.5012608  89.1951942  82.9134750  40.8489513  60.5380583
  83.6486912  40.2521038  60.3985548  82.4478912  40.8550215  59.7017431
 104.5344830   0.0546339  50.6447220 105.4363441  -0.0958937  50.3614664
 104.3011284   0.9002580  50.2617168 109.0011215  17.9410827  52.0316505
 109.4577122  17.3358405  51.4473248 109.6654606  18.5856092  52.2755146
  84.7950059 100.3665357  37.9689431  83.8837987 100.0897311  38.0654144
  85.2663308  99.8785793  38.6442113   3.1207604  11.0483932  49.0047932
   2.6837296  11.2812734  49.8239422   3.0711026  10.0931156  48.9700079
 113.8687134  29.3235207  53.6807442 114.2485905  28.6342454  54.2255592
 112.9248428  29.1704273  53.7243795  22.0878548   6.9378626  58.4243011
  21.2724728   7.4046546  58.6073256  22.2461743   7.0886618  57.4924040
  95.2361125 106.7604695  38.4265093  94.7548884 106.6235028  39.2425398
  95.9241599 106.0951482  38.4396510  22.2750854  47.3465633  85.2098274
  22.7707744  46.8215895  85.8382607  21.4906216  46.8281412  85.0306988
 100.2154672   6.7558479  36.5077834 100.9105146   6.1282348  36.7058901
  99.9373830   7.0831918  37.3632102  88.5602403   7.2538375   1.8869261
  89.0240622   6.6285037   2.4437480  88.0973518   7.8238773   2.5009398
  49.2961615  71.7613862  15.3174548  49.0378457  72.6374601  15.0311045
  49.7915703  71.4047681  14.5801501   5.1012261  34.3803548  10.8261065
   4.8456461  34.7419214  11.6747336   4.4418366  33.7112474  10.6424479
  96.4529491  29.5291280  19.7008376  96.0775054  28.8390397  20.2476935
  96.7315460  29.0781831  18.9038043 104.8208154  36.4718103  53.4221224
 104.8271525  37.2050618  54.0373759 105.4402006  36.7273759  52.7385382
  47.1445280 104.9262439  24.3106322  46.9247097 105.8530341  24.2159228
  46.3028956 104.4736300  24.2556147   0.4169352  26.0023164  49.2821459
   0.1701195  26.4809369  48.4907965   0.7621534  25.1695012  48.9604716
 104.3081987  41.7810392  52.6635603 104.8368085  41.8923902  51.8733744
 103.4237612  42.0324182  52.3974661  51.6577721  90.0739479  79.8674726
  51.8646526  90.1603413  78.9369011  52.5095320  89.9840450  80.2948570
 104.9107373  32.0544957  29.0868525 104.0896476  31.7959356  28.6682944
 104.6641267  32.7641439  29.6799998  57.6238412  96.3241540  20.1695780
  57.3161239  96.2479983  21.0727648  56.8250019  96.4259921  19.6521620
   2.2640831   9.8304271  35.3527979   2.2101433  10.0737285  36.2769942
   1.7794687  10.5176591  34.8955302  66.5415591 103.3917819  40.7516913
  66.4981646 103.3112727  39.7988753  66.9479364 104.2453633  40.9016757
  41.4953748  96.6081153  27.1323733  42.2017020  96.5056096  27.7702002
  41.7063874  95.9830819  26.4388041  12.0924217  19.6120548   6.7551665
  11.3223107  19.8584413   6.2428622  11.7348702  19.2081880   7.5459151
 114.3981421  60.4610204  33.9870028 114.7119153  60.1775502  34.8457388
 114.8356450  59.8771238  33.3674197  10.1789887  22.6188182  24.1398100
   9.2896540  22.7214574  23.8010172  10.1364882  21.8377065  24.6914248
  14.2714770  41.8682336  23.7060790  14.2837555  41.3783597  24.5283370
  14.1510040  41.2002897  23.0311160  91.4063996 106.1318456  16.4854197
  91.3621491 105.2554284  16.1031107  90.9673518 106.0464488  17.3316912
  35.1076634   9.4608735  54.6972518  35.0236685   8.5266208  54.5065932
  34.2540295   9.7108506  55.0508837  10.7730372   7.2712373  35.4858832
  10.2782805   6.5522718  35.0927786  10.9340174   7.8755521  34.7612338
  16.8802054  14.7329664  38.8717036  16.9930346  15.5249690  38.3461337
  16.9771130  15.0300836  39.7764544  95.8191860   1.8420362  34.8917059
  95.6750095   1.0021400  34.4557909  96.7706919   1.9456291  34.9033312
  96.0610116   0.9695482  14.5537714  95.9813655   0.0511169  14.2961363
  96.3228715   0.9383392  15.4739337  68.8579267 105.5008660  33.1924967
  69.7767681 105.7459460  33.3015589  68.7319297 104.7690259  33.7964587
   2.5403673  11.2634515  12.3623995   2.8769476  11.2891053  13.2581000
   2.4126608  12.1827077  12.1281104  60.8782023  85.7041655   1.3466506
  61.6971415  85.9653841   1.7677645  61.0777348  85.7101403   0.4104952
   0.3585632  30.4294729  50.9412531   0.4059488  29.4772767  50.8556799
   0.7007630  30.7618474  50.1114039  92.0760507 101.1210929   5.3038077
  92.0888871 100.9212933   4.3677763  92.9948491 101.0829125   5.5694823
 103.0953515   9.3740367  24.2074542 103.5645402   8.9065742  23.5163836
 102.1854508   9.3899011  23.9107089  27.2642040  48.6645508  94.4812012
  28.1981158  48.4637117  94.5420647  27.0864224  49.2112923  95.2465057
 101.5794218  12.4669790  23.7810092 100.9742439  11.9647645  23.2353262
 102.3377216  12.6217269  23.2177405  17.5196440  46.8050050   8.8679461
  17.5096161  46.2805604   8.0672698  16.8368847  47.4620580   8.7324671
  29.6724439  45.3564072  85.5987072  30.5840874  45.2054310  85.3490162
  29.7087836  46.1006451  86.1995602  57.8787518  69.3371153  94.0551376
  58.7477255  69.0186739  94.2994976  58.0361938  69.9118900  93.3060837
   6.3287383  79.9166489  88.6103630   5.4946578  80.3825665  88.6692333
   6.2976402  79.2788124  89.3233967  79.7963019  15.8338308  22.5565676
  79.9447334  14.8922109  22.6434569  78.8536857  15.9405088  22.6843504
  93.6541844  35.9910535  34.2258505  93.1516803  36.4299440  34.9122099
  94.3950606  36.5743493  34.0612463  42.6862001  75.2782345  78.4911394
  42.3677921  75.1618338  77.5959873  43.5575247  75.6607294  78.3875895
  87.1706593  23.3728170  41.5054564  86.4407581  23.5220145  40.9044413
  87.4992013  24.2493295  41.7054991  36.5894914  55.5180550  84.0180779
  35.7862020  55.6669378  84.5168686  37.2394180  56.0825253  84.4366455
  97.6860953  52.8210019  10.2913908  97.9141724  52.2722005  11.0417513
  98.1261432  53.6539029  10.4612784 108.5082329  33.1015348  12.4196009
 108.8444412  33.5363149  13.2032828 109.2703426  33.0178785  11.8465189
 104.6696222   2.6426362  23.2089476 104.5609725   2.9089975  22.2959952
 105.5896771   2.3872470  23.2760577 113.9455736  17.6890134  35.0252966
 113.1127799  18.0612134  35.3153853 114.6025884  18.1125640  35.5777125
   5.9688933  33.1091546   4.5268301   6.0105593  32.7363443   3.6462073
   5.5678064  33.9695405   4.4039492 112.6010406  32.3187875   1.4856390
 111.7363322  32.3813676   1.0799365 112.4206245  32.2284650   2.4213366
  33.0694890  68.2976294  95.4300976  32.5435019  69.0479994  95.1534843
  33.4037161  67.9255295  94.6139717  97.7430714  50.7884454  30.8826594
  98.5777009  50.3424119  31.0264735  97.1121967  50.2891397  31.4012389
  49.5403814  92.9695606  64.2401838  48.7721634  92.8322124  64.7944450
  49.5999813  92.1735668  63.7119102  99.3967647 109.7243939   8.6120657
  99.5022077 110.3025971   7.8565554  98.5105866 109.3735991   8.5233740
 112.4435890  27.8488778  11.0022120 112.5169933  28.7153100  11.4023928
 111.5019191  27.7118539  10.8987193  12.2438032  23.1801271  38.1141428
  13.0019791  22.8107976  37.6613860  12.5956137  23.5089683  38.9413886
 112.1619380  18.1525516  49.0240626 112.7957166  18.6206102  48.4804873
 112.4995649  17.2580098  49.0692191  85.3528411   1.7400836  19.3491606
  85.2313489   0.8122062  19.5504431  86.2326724   1.9411468  19.6680693
 115.6519544   7.9841375  68.1419329 115.4260624   8.8810539  68.3884005
 115.2079404   7.8466415  67.3051600  30.9492952  19.8791694  41.4769511
  31.4990885  20.6304836  41.6994147  31.2879927  19.5755576  40.6347327
  73.2991976 107.2532616  14.9810652  73.5407704 107.3422490  14.0591387
  74.0794438 106.8888913  15.3990130   4.5481712  41.8508958  29.5769648
   5.4101879  42.2623967  29.6388297   4.0018828  42.5038862  29.1394763
  96.5700686  21.8904399  42.0609240  95.9209562  22.5530290  42.2972731
  97.4119485  22.3367690  42.1518092  14.1881878  14.0888786  37.6616148
  15.0632746  14.4757079  37.6901679  13.8451273  14.2069005  38.5473971
  25.3430349  32.0591592  39.1651587  25.8522112  32.6235341  38.5833983
  25.6778843  31.1782121  38.9976935 102.6843846  13.2531070  25.9260802
 102.4973548  12.6818513  25.1811461 103.5359085  12.9566383  26.2473921
 116.8928778  62.3444223  28.3132414 116.4410484  62.3537111  29.1570334
 117.0675814  63.2665109  28.1249289   7.0249111  17.3184442  59.3518691
   7.7860863  17.2723007  58.7733225   6.8487293  16.4079570  59.5889620
  27.3947699  24.7613620  44.1763834  27.2839481  24.4697522  43.2714419
  27.9456741  25.5413961  44.1109042  13.8773377  64.2575311  37.0432143
  14.7140820  64.7071504  36.9251685  13.2192213  64.9443387  36.9364314
   5.0708468  13.9057731   7.5848155   4.2118485  14.0391444   7.9855208
   4.9644167  14.2096376   6.6833834  79.2231246  21.1854362  25.0304751
  79.4369600  21.8145084  25.7195143  79.8394090  20.4652929  25.1639609
  99.5329941   1.6705941  16.6107420  99.3358291   0.7849025  16.3059191
 100.4847563   1.6827535  16.7118983  96.1923647  38.6540937  43.1875567
  96.9254482  38.8357686  43.7756209  95.9915364  39.4998311  42.7867751
 102.4649084  18.1758022   9.5226435 102.6472175  17.5201606  10.1957945
 102.0963514  18.9167976  10.0036101  94.6457899   8.9977025  13.3202986
  93.7596119   9.2514228  13.0623297  94.5677495   8.0775070  13.5720686
  29.9291260  19.9574279  29.6885161  30.6919129  19.4769334  29.3667655
  29.2948372  19.9064445  28.9734606  97.3190976  19.8497342  22.8039603
  97.0880354  18.9253759  22.8956275  97.9306460  20.0160312  23.5213046
   3.2415611  29.8332738  19.3314604   2.7979262  30.2802228  20.0523238
   3.0904133  30.3956174  18.5717444 106.3221425 109.3808757   2.9477458
 105.5823058 108.8430510   2.6655726 106.9309300 108.7598668   3.3476882
  35.5057652  40.0069284   8.8458876  36.2938816  40.5495881   8.8207583
  35.8161719  39.1467428   9.1286425  19.0530808   3.7592696  24.4588618
  18.2642300   3.4696483  24.9171881  19.4746430   2.9490947  24.1722636
  48.1317151  84.6113454  22.0003562  47.4126715  85.2401958  21.9390826
  48.1473094  84.1812955  21.1453490  10.8936739  68.8477755  85.9194374
  11.1542785  68.9379120  86.8360519  10.0013232  69.1927719  85.8891010
   9.9408562  19.8665857  64.4549517   9.0174992  19.6462249  64.5777850
  10.2361757  19.2809438  63.7577872  58.3430356  88.1298958  18.3056502
  57.4989468  88.2886515  18.7281947  58.8728935  87.7060281  18.9807944
  15.6824619  18.9284467  28.9906554  14.7846110  18.8071346  29.2994837
  16.1434204  19.3093824  29.7380785  98.1160796  45.1084375  59.2595629
  98.3639014  45.9127664  58.8036494  98.8125289  44.9730348  59.9021010
  27.7358365  70.6631708  66.3394165  26.8870687  70.5880117  65.9033251
  28.3765745  70.5240774  65.6420374 108.4119052 102.4085294  45.5135302
 109.3317098 102.5849353  45.7111983 107.9404897 102.6872216  46.2985949
 113.9544666  55.4637670  33.5768752 114.1005171  54.8809957  32.8317027
 113.2195342  55.0708722  34.0477709   5.5882103  15.9287023  51.6657214
   6.1538107  15.7742690  52.4223475   4.6992476  15.8799838  52.0173029
 115.1781547  51.7556428  33.0257372 115.9269655  52.2358178  32.6722674
 114.5172441  51.8002080  32.3347716  34.2305977  15.7143688  48.3287005
  34.7012169  15.6846046  49.1616873  34.7837193  15.2205943  47.7233271
 108.2304824   2.6746749  10.8911948 107.7427090   2.6726150  11.7147879
 109.0514553   2.2280263  11.0979323  54.4115717  56.5580224  22.4689154
  54.5882589  55.7777452  22.9944472  53.5155279  56.8038511  22.6989035
  39.6482277  72.7890730  82.5247383  40.5883551  72.9190016  82.6492786
  39.3623424  73.5611629  82.0364952 110.6937945  38.4550046  61.8280177
 111.4139474  38.6786985  61.2384657 110.2485264  39.2869615  61.9886641
  93.4926367  25.7682466  18.1152205  92.7387059  25.7270192  18.7035422
  94.1691447  25.2545690  18.5564761  12.4272520  18.9043521  33.7520556
  12.5912888  19.7566127  33.3483557  11.7771322  19.0824031  34.4316630
  89.0314281  25.6362390  58.9421610  88.4772146  26.3837861  58.7179999
  88.5154438  25.1367997  59.5750479 110.1647472  87.8378391  80.2081013
 110.1086903  86.9499016  80.5611801 109.2543030  88.1236172  80.1329422
  20.8416445  32.7715253   7.8563647  20.8987410  32.1705865   8.5992198
  20.0000555  32.5683736   7.4480872 107.5174773  26.9507646  50.4305415
 106.6747344  27.4045514  50.4211955 107.4706257  26.3433313  49.6922545
  31.5822941 105.8018933  -0.0193830  31.1313749 106.4335595   0.5408911
  32.0918453 105.2646552   0.5872206 109.1507209   5.0744342  51.3387351
 108.9386356   5.6007432  50.5678610 110.1033032   4.9842786  51.3125185
  44.0649969   5.4224061  27.8418879  43.6585409   4.9739694  28.5834555
  45.0056917   5.3398752  27.9984240   6.8987162  26.6273641  24.0212111
   6.0201199  26.4227342  23.7011675   7.1316368  25.8819627  24.5747141
 107.6071894  12.8726100  14.2749648 107.9254639  13.6925029  14.6527342
 107.3072279  12.3627185  15.0274710  96.0486269  48.3578824  54.7829012
  96.8275524  48.4000730  54.2281680  96.3569236  48.6235189  55.6492857
 107.0575488  24.6620654  53.0530886 107.7766097  24.1092109  53.3589320
 107.3414839  25.5547952  53.2496790  22.4145014  45.9612321  23.0432276
  21.5664656  46.0293721  22.6045756  23.0542643  45.9763192  22.3313956
  74.3648210  22.0030355  36.0978465  74.3368835  21.5816020  36.9568209
  74.1018033  21.3160848  35.4853491 115.9850133  36.9817685   4.9345068
 115.4212106  37.7477407   4.8266177 116.5870965  37.2247075   5.6378703
 104.6669758  27.6542615  50.9343676 103.7635839  27.8967332  51.1376433
 104.6725643  26.6978215  50.9722285 114.0811837  69.8407792  26.0926585
 113.6200869  70.3873967  26.7289118 113.8538182  70.2185106  25.2430396
  69.5602697 103.6972533  17.5197367  69.4460839 104.5776807  17.1619086
  68.6837810 103.4391127  17.8049807  30.6788761   6.6174363  52.1754126
  30.2745468   5.7544326  52.0861678  29.9467547   7.2316932  52.1213583
  21.8345673  20.2202319   8.9247279  22.7258904  19.8747539   8.8755660
  21.4110024  19.6944856   9.6032671  26.7027981  19.0669584  12.6943831
  25.9924776  19.6504545  12.4275355  27.1095068  18.7931823  11.8722682
  27.4501545  24.0836620  17.1116309  28.2909758  24.3281984  17.4982218
  26.9378788  24.8921823  17.1213488  52.4673445  50.1400327   3.3083300
  52.8074247  50.1739167   4.2024378  51.5184576  50.2141713   3.4100203
  87.5862831  46.0104512  11.3202147  88.3148849  46.2468004  11.8942408
  87.4316764  45.0828885  11.4989810  62.3132038  75.1209307  91.5483379
  62.8686523  74.8263645  90.8265781  62.0122290  75.9890699  91.2800503
  19.6298391  12.7692413  33.5530715  19.6482355  12.4417638  32.6538138
  19.0773327  12.1453332  34.0239195 114.2451775  35.2380895  47.9809050
 113.8569415  34.3742132  47.8423171 114.7796929  35.3883504  47.2012000
  48.6415482  73.4626818  94.3773937  47.7510643  73.1867170  94.5944500
  48.5423851  74.3573236  94.0517998  19.1091711  32.7806806  48.6343054
  19.5076782  32.3153447  49.3697600  18.1671269  32.7113008  48.7891249
   6.5124638   9.5686483  12.7936511   6.4727766   8.6179256  12.8974776
   5.6403715   9.8735475  13.0441145  92.9229570  33.3290719   3.2289080
  92.1995807  33.3081579   3.8554244  93.4011031  34.1305017   3.4417967
   5.6820662  35.5612993  15.0815348   6.1187918  36.2756299  14.6176009
   6.2429411  34.8002195  14.9318366 101.8643010  56.5580320   4.9419455
 101.7293370  57.1388387   5.6907324 102.5528062  56.9828462   4.4303565
 100.0273961  95.1199017  10.5566172  99.6685141  96.0006200  10.4481177
 100.6476802  95.2015982  11.2810473  91.9883168  45.1704263  63.9736418
  92.6925242  45.8136510  64.0547614  91.5263033  45.2142286  64.8108058
  95.0449550  22.9812621  57.6510863  95.2322579  22.2083616  58.1837897
  94.5142317  23.5403585  58.2185130  87.3097700  27.2130441  16.9056849
  86.4507145  27.1489095  17.3229842  87.9299623  26.9836473  17.5977664
  86.9797230  42.5852632  48.9607481  87.8354007  43.0133771  48.9331011
  86.5788830  42.9031610  49.7697596  23.6949045  43.4921788  48.8150267
  23.2485993  44.2977666  48.5541396  24.1759140  43.7307023  49.6074728
  63.2022715  72.2209358  87.4900246  62.9312325  72.3298550  86.5784836
  63.1766987  71.2752962  87.6361465 103.8338507  40.1899671  36.8553977
 103.6253774  39.4008874  37.3555235 104.1449869  39.8632383  36.0111956
  11.6723902  72.4223661  15.9468417  12.5100739  72.5074147  16.4021353
  11.8763239  71.9114637  15.1635031 110.7191289  64.0614461  19.1288142
 110.5244506  63.8821077  18.2089381 110.0203479  63.6203718  19.6119170
  85.7555473  22.0361661  -0.0190301  86.1034251  21.9139146   0.8643012
  85.4847735  21.1599540  -0.2932020  33.5097575  74.4839716  78.8305902
  33.3227682  74.0927696  77.9772282  32.6498413  74.7155428  79.1815186
  59.1142416  94.3829727  95.0791740  59.5495510  93.9389896  94.3514252
  58.8242626  93.6740494  95.6532478 101.6588819  45.4545354  37.8117041
 102.1213258  46.1111974  38.3324484 101.3495696  44.8147153  38.4529452
 107.7462828  30.0678014  51.6491179 107.8489602  29.1191911  51.7253737
 108.6369098  30.3959226  51.5251879   7.8008587  57.9431867  26.0742526
   8.2968456  57.2885942  25.5825762   8.2967407  58.0605363  26.8845324
 111.9777882  50.1985215  50.0706057 112.8528130  50.1990651  49.6825842
 111.8347848  51.1057519  50.3402380   5.3939612  49.7638749  53.1658415
   5.2653391  49.0425443  53.7817626   5.3705866  49.3494176  52.3033385
  18.7114174  40.7399987  90.7095484  18.3726580  40.0338506  90.1592593
  19.1104967  41.3537645  90.0929026  33.3719856  20.6009721   0.6268935
  34.2303688  20.5318641   0.2089934  33.3756382  21.4643287   1.0402159
  94.0547848   0.3639459  62.5332026  95.0113261   0.3555059  62.4987463
  93.7822044   0.3805255  61.6157870  13.5004265  30.6578779  17.3776202
  12.6526959  30.5858087  17.8162436  13.2898934  30.6342458  16.4441638
 104.9898136  28.7518071  12.1599440 104.3080724  29.2575120  12.6023535
 104.8135031  28.8765668  11.2274317 111.5034426  25.7366037  31.1551337
 112.1099317  26.4732408  31.0791640 110.6831825  26.0625123  30.7847456
  13.5590822  14.4766712  40.3842120  12.7009422  14.8160075  40.1298956
  14.0219433  15.2363824  40.7375292 101.0326779  22.4687671  53.1883673
 101.2941683  22.1428251  54.0495352 101.6109312  22.0153569  52.5749545
  71.6634959 109.4623385  15.1552252  71.8861526 108.5575639  14.9360423
  72.1141142 109.9869405  14.4934325 111.4057362  48.3938455  29.3232016
 111.5084327  49.3350171  29.4642310 110.9184897  48.3264589  28.5020594
  58.2759899  99.2317258  27.1894316  58.1125873  99.5812951  26.3134627
  57.6059193  99.6387587  27.7385764  29.3969440  62.5093412  93.5077286
  28.5722542  62.1224403  93.8017082  29.8245907  62.8018999  94.3125629
   7.3014671  10.5264234  23.6961226   7.0639450  10.4707956  22.7705340
   7.5061638   9.6252202  23.9454512  94.2780084 106.7671214  17.3916678
  94.1341227 106.9657336  18.3169131  93.9592427 105.8706818  17.2867445
  24.2679531  14.1140127  38.3180193  24.8633654  13.4497165  38.6650519
  24.8437340  14.7694682  37.9241995  88.5183573  30.4331826  11.9555430
  88.1657422  29.6480607  11.5366416  88.0296886  30.5073022  12.7752642
  91.2357855  31.3086652  12.0673518  91.6175187  31.8370866  11.3664393
  90.3648448  31.0765695  11.7451338  50.4422182  85.3681551  33.9513258
  49.9507314  85.1964460  33.1480841  51.3454586  85.1383577  33.7331919
  17.2297461  42.2445058  30.1956610  17.3032839  41.4720392  29.6351866
  17.6627905  42.9408120  29.7018389  51.6318686  26.3055848  11.7808299
  51.3692076  25.5541658  12.3124270  51.5995009  25.9844827  10.8796744
  38.6357951  99.0782928  91.3565922  38.4338808  98.8249397  92.2572994
  38.4937620 100.0246906  91.3364220  52.9406214  93.0876350  78.4382057
  53.2071066  92.1992779  78.2014656  51.9845104  93.0514717  78.4660578
  63.6877329  34.1763734  31.4764742  64.2405016  34.8362302  31.0578208
  62.8295595  34.5940637  31.5493254 103.4970296  27.9241990  46.3595252
 103.0286587  27.2672223  46.8745379 102.9917682  27.9987478  45.5499606
   7.1376116  28.8229894  15.4988627   6.3778050  28.5073995  15.9880690
   7.3759920  28.0919027  14.9288420 114.4412297 106.0720073  37.8909640
 114.3504685 106.6680775  37.1475272 114.4190568 106.6423665  38.6593585
  21.2876780  35.9550237  21.1868529  20.8684523  35.7405996  22.0202212
  22.1782334  36.2119722  21.4258532   9.5924456   5.1990365  17.1332888
  10.0647099   5.5568694  16.3815264   9.1301806   4.4366597  16.7849688
   1.1138279   0.5173682  39.4787268   1.1390860  -0.4327346  39.5922808
   1.5070040   0.8648061  40.2793078  90.4845065 106.3224994  19.0523676
  90.7922000 107.2287141  19.0343432  89.8572368 106.2968598  19.7749381
   4.2677290  28.1096505   7.5122504   3.9870197  28.3429860   8.3971171
   3.5623200  28.4237050   6.9465689 109.4621003  16.3849544  41.8260340
 108.9587438  15.6256103  42.1197371 110.1133669  16.0227918  41.2252669
  22.0230848  36.3688325  30.5562071  21.9028837  35.4551839  30.2973132
  22.5151093  36.7596387  29.8341136  36.7530377  58.7103605  30.2770476
  36.9615872  58.3978795  29.3966631  36.9354803  57.9626035  30.8460860
   2.3523743  31.9710016  17.6345305   1.7149813  31.6712808  16.9863562
   2.2973616  32.9260206  17.6007227   7.4708683   9.7242593   5.8399634
   7.1580727  10.5244111   6.2620310   8.4152395   9.7245216   5.9961562
  10.3991825  29.1531610   7.8942637  10.1273138  28.2393789   7.9798560
   9.7879250  29.5264386   7.2592406 112.5733888   6.2220859   5.9110598
 113.4889829   6.5010595   5.9206538 112.3310173   6.2275790   4.9850707
  43.7545473  49.9817418   6.7995123  44.3749125  50.5156278   6.3031821
  43.0507071  49.7931337   6.1788134   7.9202587  83.2061052  28.9769034
   7.4614889  82.3660135  28.9756541   7.5838740  83.6638498  28.2064776
  30.6368096  21.4348411  15.5399756  29.7644217  21.7918777  15.3735499
  30.4848654  20.5083513  15.7264094  37.0438034  16.1125421  29.6559290
  36.4723141  16.7802762  29.2767672  36.6616852  15.9295463  30.5142645
  11.1797857  33.3498859  88.1184673  11.5799105  33.5404825  87.2700500
  11.1749160  34.1909957  88.5753536  25.9159732  75.1789236  88.1066132
  25.0467753  75.3323364  87.7362156  25.8680916  75.5452204  88.9896488
  48.3343566  99.4308005  30.3639941  48.4860563 100.2794133  30.7800250
  48.3544552  98.8029729  31.0862593  53.9864904  93.3826886   9.9846606
  53.1389886  93.6351357   9.6182684  53.8935834  93.5289250  10.9260516
  54.5531708 101.6382180   0.3278212  53.6028034 101.6313277   0.4417758
  54.8906011 101.9905291   1.1513762  67.4283022 109.1567050  43.0757002
  67.8896374 109.8789941  43.5019640  67.6184720 109.2675887  42.1441607
  30.9051800  25.4396129  88.4690571  30.6694317  26.3592529  88.3469200
  31.8069315  25.3795910  88.1536674  28.0808098  28.1831121   0.7522635
  28.8757164  27.6609659   0.6440024  27.6637489  28.1658410  -0.1091333
  80.4264277  62.3480402   6.1923937  79.6102065  61.8790333   6.0190539
  80.5447549  62.9131107   5.4288916  51.5546846  59.4891024  85.4550362
  51.5401459  60.4232550  85.6633186  51.3673973  59.4498730  84.5171642
  80.3032130  76.0297762  11.4931445  80.6007737  75.5677949  12.2768931
  81.0553521  76.0068308  10.9015421   7.3387272  32.9125737  15.4602198
   7.9640038  32.2208642  15.6765608   6.5308125  32.6520204  15.9025149
  14.3008501   3.1196307   9.5188956  14.5500452   3.8457584  10.0906138
  13.3921606   2.9311227   9.7533755  36.6806674  54.8948956  78.8521051
  36.2936759  55.1733065  79.6821404  36.9058537  53.9747667  78.9895201
  40.2194738  27.8026676  77.0413828  39.7689581  27.0699716  76.6213560
  39.8217249  27.8621888  77.9099941  48.3444357  17.3747170  81.7208290
  49.2199278  17.6388228  81.4379978  48.3419514  16.4215016  81.6336250
  66.3355655  79.5264684   7.2547678  67.1210522  79.8192154   6.7926650
  66.0758895  80.2790199   7.7862410   2.4745686   6.4291190   5.0988440
   3.2104523   7.0085573   4.9014716   2.8511269   5.7429075   5.6497912
  75.9089774  78.1279741   7.0685725  75.9769887  77.6978956   6.2161402
  75.2823705  77.5940214   7.5569205  36.2226915  50.1974010  84.6940327
  35.8806992  51.0886192  84.7648048  36.9383192  50.2649593  84.0619373
 113.9669288   3.8293790  13.0769782 114.3562711   4.6814632  12.8805117
 113.0939854   3.8691186  12.6863055  99.0190810  93.8797842  13.1640772
  98.6282033  94.2187725  12.3587565  98.7505359  92.9614673  13.1925540
  63.9327258  67.9542671  23.9578871  63.4576529  67.7842663  23.1444697
  64.3440265  68.8077102  23.8211493   3.6559040  14.7900342  17.0414595
   3.1492455  14.5650529  17.8217940   4.5603354  14.5803832  17.2744517
  83.1962174  94.9536739  17.8310446  82.9414576  94.3361221  17.1455054
  82.3969191  95.4454385  18.0195097  34.7576237  79.4242525  72.8823519
  35.1288486  78.9501286  72.1382856  35.4611278  79.4402838  73.5312462
  74.5283801   4.0000200   0.1584963  74.9955795   4.6729755  -0.3365655
  73.9376146   4.4901561   0.7303290  70.8467621   4.3720759  93.4289837
  70.2107233   3.6578310  93.4683323  71.6120142   3.9880122  93.0010605
  26.0094100 108.9010535  19.7948317  25.3614372 109.2261039  19.1697649
  25.6743652 108.0458270  20.0641970  38.3216281 103.3170472  32.9328780
  38.7022969 102.5244151  32.5546412  38.9844405 103.6311160  33.5479121
  47.9171467  27.4749851  80.7282829  48.7351322  27.0544958  80.4631042
  48.0672169  27.7398276  81.6357899  81.1384723  21.7166662  10.7706217
  80.9188962  22.1793079  11.5793089  80.4596365  21.9828796  10.1505045
  44.1431523  98.7010346   1.7166762  44.4971502  98.2439099   2.4795298
  43.7242913  98.0136977   1.1986403  49.5754665 107.9513369  38.0770068
  50.3596515 108.1253968  37.5564436  48.8680786 107.8989659  37.4342875
  84.7398728  88.7780796   2.5101428  85.2318877  88.0929075   2.0577197
  84.7620791  89.5242511   1.9110064 106.5601147   6.5082740   2.5347094
 107.1710098   7.2398090   2.4458365 105.8331645   6.7313098   1.9533019
  59.2869324 103.1229125  31.7091708  60.2068943 102.8598700  31.6825251
  58.8050717 102.3345671  31.4590601  99.4859284 108.3896981  17.1720175
 100.3786248 108.1564675  17.4268298  99.2141885 109.0400992  17.8196005
  78.3099431  66.9739173  32.6507525  77.5153274  66.6447256  33.0708079
  78.9943427  66.8597124  33.3101325   9.5249259  66.9682217  72.4726677
   8.9105445  66.4710283  71.9326973  10.3834939  66.6059208  72.2539616
  92.2090733   0.1477289  11.3958125  92.9460717   0.6818437  11.6920905
  92.5804127  -0.4186822  10.7194094  13.0924971  12.1454906  26.4762835
  12.8858788  12.5034999  27.3396353  12.5255472  12.6282739  25.8748583
  16.0121763  28.1620479  77.7157354  15.0876820  28.3087349  77.5156784
  16.3734770  29.0402436  77.8360081  86.9838304   1.9642925  25.8495574
  87.9218060   1.8891620  25.6740908  86.8296385   2.9056596  25.9288077
  58.6548287 105.3821145   7.4976973  59.2539114 105.4528437   6.7545084
  59.0118379 104.6682177   8.0260233 102.0979852  73.5602914  22.1453242
 101.9858045  73.1969248  21.2669043 101.3823527  73.1802617  22.6549105
  25.1580221   1.0630225  15.0882105  25.0088007   0.6289434  14.2482428
  26.0847981   1.3019561  15.0730280 110.8029163   0.3234433  46.9126372
 111.5807832   0.7035445  46.5043692 110.1184738   0.9795093  46.7809252
  81.1925143 102.3891507  20.2776389  80.8106393 102.2445117  21.1433653
  80.4621524 102.2693358  19.6706347  17.7594078  49.2151546  90.5410004
  18.2813251  49.1432381  91.3401699  18.0031466  50.0637722  90.1713085
  13.1127322  56.4668885  12.6607375  13.3122409  55.5540529  12.8684859
  13.1906856  56.9254689  13.4973101  60.7924461  52.7494144  93.9460564
  60.3025293  52.7529526  94.7683716  61.1092615  53.6477661  93.8521385
  41.9503936  86.0549293  18.5269598  42.3026848  85.1813112  18.3569102
  41.1199224  85.8951889  18.9753203   8.8812900   9.4369310  65.5404091
   8.7899619   9.1545254  64.6303892   8.1823987  10.0793695  65.6631088
  98.8467968  13.0524825   0.9166674  98.8986171  13.4309243   0.0389819
  99.6781552  13.2879829   1.3285117  78.9898080  97.9337321  17.3380141
  78.1820339  98.1659804  16.8799834  79.5968932  97.6841079  16.6413359
  95.4931975   8.9803647  18.6303095  95.4701341   9.3285322  17.7389769
  94.5788086   8.9858436  18.9133219  39.3005974   2.4119615  15.1146178
  39.3297465   2.6060962  14.1777663  40.2113039   2.2363424  15.3512721
  16.0351498   7.9625606  27.6777796  15.5293209   8.7314653  27.9407553
  15.3888304   7.3710679  27.2922472  72.8658122 109.6439372  29.3459754
  72.8867024 108.8121424  29.8191695  72.9069585 109.3952714  28.4225516
  80.0637883  89.2656718  17.2226576  80.9205836  89.4861279  16.8572287
  79.6215409  90.1087771  17.3217444  21.9287610  24.8900843  94.7707462
  22.0984602  25.4054475  95.5593109  22.4077249  24.0732503  94.9107838
  27.6828034  32.2137975  11.4149241  26.9436772  32.6319455  11.8565993
  27.7273638  32.6454496  10.5617480 112.3740589  42.3625612  71.6696262
 113.0998328  42.8320932  71.2585068 111.5886396  42.7960873  71.3358593
  36.4447832  74.2184973  91.4625931  36.9042158  73.3788443  91.4743900
  35.8961892  74.1803646  90.6791306  38.8299887  83.3036886  12.0402960
  39.2579160  83.9335833  11.4603476  38.0509102  83.0255924  11.5587000
 104.1598475  13.1805944  15.0309329 104.6469343  13.0542182  15.8451895
 104.6576012  12.6915502  14.3757205  80.9841490   1.6128921  40.4367785
  80.8872918   2.0786094  41.2674193  80.4613602   0.8184337  40.5452494
  59.4851250  88.6001168  39.2355876  58.5863573  88.3522545  39.4524054
  59.5291561  89.5361672  39.4307856 103.5335368  91.4693485  28.9052825
 103.0129832  90.6913720  28.7052588 103.4229297  91.5957676  29.8476271
  66.1345768  14.0646446  88.8471603  65.7444859  13.4904909  88.1880569
  67.0732450  13.8841450  88.7966728  39.9267478 100.4654418   4.7218947
  39.3854596  99.8073207   4.2858748  40.8264883 100.1986466   4.5334296
   7.2342093   2.0168447  30.2058653   6.7794354   1.6295051  29.4579463
   8.1415398   2.1063184  29.9143557  62.9539913 109.4622479  32.1377997
  63.3542365 108.6122237  31.9547896  62.5773114 109.7347413  31.3010840
  49.0051889  32.2105503  81.3451195  49.5285940  32.7559376  80.7578945
  49.2517424  32.4995542  82.2237110  75.7035038  17.9175424  15.7031111
  75.1484004  18.0077886  16.4776759  76.5581464  18.2468747  15.9812407
  60.5995417  41.5029860  81.7640686  61.3070774  41.6887903  82.3814106
  59.9222612  41.0839653  82.2950554  50.3268337  33.3593369  83.6210918
  49.7965860  33.6516428  84.3624592  51.2301874  33.4329557  83.9289284
  46.1639977  39.0786719  89.8770905  45.6377983  38.3791900  90.2644825
  45.5240393  39.7341633  89.5995808   0.4041750  30.4601239  42.4724249
  -0.3642648  30.2369642  42.9977183   1.1102707  30.5592870  43.1110434
  90.6205625  98.4152900  12.0296340  90.8490819  99.0434895  11.3445239
  89.6635169  98.4171496  12.0467619  26.5088868  21.0814404  73.4061384
  26.6224337  20.3620839  72.7849627  26.6483545  21.8721485  72.8850269
 103.3449257  15.7933807  18.9133982 103.7351787  15.4314756  19.7089819
 103.6697495  15.2311181  18.2101302  96.8513411  87.2727285  11.4170317
  97.6720923  87.7374826  11.5801386  96.7297763  86.7225538  12.1908335
  70.4587358  71.1896966  20.0398783  70.5822081  70.7491253  19.1991095
  71.3206285  71.5485225  20.2511076  51.2826270 106.7773591   4.4696574
  52.0182461 106.7252885   3.8594203  51.6078311 106.3694106   5.2721838
 112.0148467  37.3213792  51.3848066 112.2658872  37.9226780  50.6836271
 111.7896771  37.8914547  52.1200275  94.4651956  92.3456965  12.9282431
  94.8448295  92.7763830  13.6941580  94.7558803  91.4362393  12.9962401
  30.4573107  46.2537718  61.2099028  30.0659323  45.4441690  60.8818722
  30.9034824  46.6288853  60.4506588  65.7236523  80.4750119  36.8111758
  65.3578133  79.5942889  36.8931536  66.6503948  80.3704272  37.0266871
  58.5302448  51.9645929  92.1830463  59.3707085  51.5355730  92.3436642
  58.5271358  52.1406555  91.2421799  32.4973655 100.4833232  15.5664305
  32.3578948 101.1937295  14.9402480  33.0282307  99.8449574  15.0900893
  24.5167208  50.3343391  89.5049572  24.3811631  51.2800789  89.5634937
  24.0690780  49.9802017  90.2733517  38.4579539  38.2189465  90.0002289
  38.7212610  39.1350079  89.9123001  37.9375792  38.1953263  90.8032703
  21.3955767  26.0836458  15.8978991  21.1842329  25.6251191  16.7111163
  22.3380358  25.9564161  15.7891802  17.5633419  11.0105538  63.1878853
  16.6857350  10.7094657  63.4232235  18.1405938  10.5849075  63.8217878
  75.7255835  96.6461573  12.9733424  75.2117127  96.5786181  12.1686034
  75.0738543  96.7629967  13.6645941  54.6374732  49.9057619  34.2942957
  53.8402528  49.9607800  33.7673716  55.2514798  49.4138913  33.7490515
  46.8444872  30.8441758  81.0923004  46.5898371  30.7790232  82.0127010
  47.6068211  31.4230299  81.0951138   0.8095390   8.7210082  13.6486392
   0.6585295   9.1886758  12.8272204   1.7599613   8.6165284  13.6935286
  22.9286933  21.4323044  79.5671129  22.5567341  21.4697838  80.4482937
  23.7418842  21.9334388  79.6288824  94.4977445  89.4946204  13.7793784
  95.2730721  89.1456662  14.2190699  94.1457957  88.7517296  13.2889895
  45.8378363  55.5601883  80.6821728  45.9589243  54.6109867  80.7065010
  46.6261959  55.8912563  80.2519226  18.5306866   4.1887140  17.4769358
  18.9725334   4.6211337  18.2077078  19.1344244   4.2860698  16.7405562
  85.6555242 101.9759808   7.4719290  85.4398316 101.4027987   6.7362933
  86.6123265 102.0011292   7.4834494  44.1726446  18.2888913  76.0070658
  43.3398104  17.9549861  75.6737041  44.8088646  18.0675566  75.3270197
 115.5995976 104.6302067  86.8939018 114.9424803 103.9855700  86.6314697
 115.3835522 105.4126193  86.3865757  61.5939826  82.2595249   9.4508700
  62.4204058  82.5787459   9.8132948  60.9672684  82.9605184   9.6299319
  61.1327905 109.8090325  19.5116477  62.0466656 110.0883303  19.4563536
  61.1334032 109.1171084  20.1730589  62.2919369  60.7280827  78.7947655
  62.4489927  60.5207539  79.7159481  63.1538725  60.6612110  78.3838797
 101.9788874   2.1768808  75.6277995 101.7519248   3.0453252  75.9602503
 101.4143336   1.5781736  76.1167292  12.2682554  28.8301038  28.7015872
  12.9641277  29.4099569  28.3921294  12.5859530  27.9487371  28.5053782
 106.9068420   5.1080465  58.8868861 106.5731037   4.9976587  59.7772078
 106.7492664   4.2631292  58.4655623 108.5777682 101.8332969  30.8818583
 108.3114737 101.5681515  30.0015025 109.1322822 102.6011143  30.7432894
   0.5784286 107.1011411  17.5179057   1.1877025 106.4720164  17.1316103
   0.6497491 106.9553767  18.4612517   6.7005903  35.4581975   1.5590243
   6.0742933  34.9347448   1.0590415   7.4117643  35.6337880   0.9428744
 105.4418481  14.6098613  35.6189494 104.5061934  14.4322824  35.7150988
 105.8605421  13.7567138  35.7332663 103.2963962 100.2678452  10.0780158
 103.8526696 101.0055409   9.8278288 103.9113873  99.5736848  10.3149943
  97.4232119 104.6469794   8.1147723  97.2105426 103.7147914   8.0697016
  98.1068009 104.7688208   7.4559168  88.8779897 105.2158128   0.9770445
  89.7848433 105.2348243   1.2828021  88.8344211 104.4502888   0.4040579
  11.6297746  32.3764801  40.9640789  11.2665296  32.7492452  40.1607513
  11.8667638  31.4800692  40.7263470  78.6744231 109.7945462  24.0179972
  77.8100890 110.1694117  23.8487772  79.0839976 109.7376500  23.1547217
  55.3457355 107.6322651  82.0601845  55.4147768 107.8482723  81.1302376
  54.6540880 106.9718838  82.1019840 111.0597199 109.0179406  33.9780192
 110.3386277 109.6473418  33.9886240 111.3561648 109.0086470  33.0679373
  37.3524094  76.4636421  92.2178745  37.0640063  75.6076050  91.9012356
  38.2703972  76.5202713  91.9526958 115.2622956  77.3784385  15.2144389
 115.5465049  78.2385217  14.9050669 115.5010003  76.7787467  14.5076041
 115.2304709  18.6405849   3.1195216 115.0259340  18.0113744   2.4277930
 115.6065357  19.3901061   2.6579718  93.3921993  37.5901460  11.8558554
  93.6418128  36.7067766  12.1271185  92.8570855  37.9201268  12.5776534
 114.8119772  10.9900522  22.3336463 115.0287855  11.9217157  22.2985320
 114.6605456  10.8142089  23.2622866  31.0329659   8.5474538  24.5237307
  31.3065703   7.6727151  24.7997813  31.7945034   8.9032125  24.0657763
  75.2819818  95.4032956  26.3660578  75.7108206  94.5554910  26.2496428
  75.3994268  95.8483611  25.5268054  77.5573842   6.4946508  42.0000319
  76.9564650   5.8519220  42.3768954  78.3908108   6.0295152  41.9273524
  47.7312976 108.7259732  25.6005148  47.0557654 108.0700551  25.7727198
  47.5301814 109.0523635  24.7234396  42.6549959  94.0192699  86.8123627
  42.4414778  94.6176529  86.0964108  42.6488590  94.5703411  87.5949955
  85.2249211 109.8998748  25.7972483  85.7414454 110.3499709  25.1287798
  84.3870276 109.7192679  25.3711657  65.8477777  93.0534993  35.7293276
  65.0683588  92.5484739  35.4976229  65.8555430  93.7809048  35.1071982
   5.2145559   2.0697116  46.0273032   5.5570585   1.1810350  46.1230998
   5.0817186   2.3732948  46.9253211  31.7447543  94.7996807  62.4929333
  32.4477172  95.2762604  62.9344606  30.9501481  95.2850151  62.7149343
  53.7561512  53.9136648  94.8929691  54.1533661  53.2628250  95.4716396
  53.9575577  53.6037779  94.0100002   9.7801335  26.0436296  28.5639147
   9.3719513  26.8411302  28.2268576   9.8746283  26.2015294  29.5032553
  32.6948340  13.9242744  19.1063551  33.4560616  14.2322301  18.6144976
  33.0372269  13.7252902  19.9777941  48.7698507  79.7332239  80.0683880
  49.4200373  80.4103756  80.2553272  49.0722799  78.9688778  80.5588436
  71.5922254 109.0991078  53.4222655  71.0107035 108.4793053  53.8626151
  71.4666885 108.9241610  52.4896006 110.7356060   5.0673103  24.6400885
 111.3650787   4.9675559  25.3542571 110.2709234   5.8794069  24.8420767
  31.0317595  22.9112624  30.3064208  31.5982849  22.3488521  29.7782378
  30.4893858  22.3020887  30.8073859  17.6954825  42.5797605  10.6465773
  18.1412918  43.3667707  10.9597926  17.3295910  42.1814107  11.4363150
  73.3407802 103.9735852  16.8848853  72.8759855 104.3800984  17.6162867
  72.6492733 103.5922013  16.3439612  85.2447671  86.0347067  30.4340796
  85.6727666  85.9433733  29.5827822  85.1932353  85.1411329  30.7733492
  38.0301046  37.2377968  85.2468491  38.1712174  36.4904237  85.8280087
  37.4544883  37.8207850  85.7418442  23.1514437   2.3566531   9.0010981
  23.0724604   2.2083139   9.9434332  22.3232872   2.7676009   8.7530856
  56.2433392 104.8365842   1.2055735  56.6819292 104.5197020   0.4159884
  56.0833770 105.7647048   1.0345988 114.2435301   8.3102369   1.2331824
 114.1883481   9.0994167   0.6943087 115.1808393   8.1250572   1.2914519
  97.6332683  77.7421461  20.7848506  97.6992816  78.4424053  20.1356177
  98.4748858  77.7579151  21.2405543  22.3854429   6.6292667  23.1489043
  23.3354647   6.6878270  23.0476241  22.2108967   5.6919050  23.2332663
 111.5473926   8.6156129   1.6078906 112.3325789   8.0999755   1.4239649
 111.5040768   9.2496061   0.8920626  11.8425310  61.0234737  85.4524994
  12.0308578  60.4401731  86.1877060  10.9246278  61.2682009  85.5699539
  86.6999299   4.4737386   3.4850173  86.2118900   3.8700961   4.0450816
  86.0585559   4.7750520   2.8415255  27.4977333   2.9485463  15.0629859
  26.9503386   3.1584310  14.3063216  27.2170097   3.5643720  15.7398753
  18.1617338  11.4513206  23.9318995  19.1172678  11.4536523  23.8755087
  17.9503233  10.6330728  24.3813567   0.6406982  15.8158635  21.9928126
   0.2389509  16.4771652  22.5562815   1.4730293  15.6115960  22.4191050
   3.6159737   8.4044980  14.7894053   4.4349558   8.1602191  15.2204756
   3.5568316   7.8162622  14.0366034  37.7063400   7.4429321  14.3162016
  37.8927595   8.3520841  14.0818457  38.0573017   7.3470258  15.2015643
  86.1800879  91.7972003  24.1951327  85.5113095  91.8507825  23.5124259
  86.6506165  90.9853063  24.0062956  99.7394789   9.6384477  18.2622103
  99.3338478   9.8363542  19.1063265  99.1907084   8.9488982  17.8885703
  18.4272701   6.4399242  23.9747958  18.4793837   5.5123996  24.2054610
  18.8157398   6.4917421  23.1014971  46.8609148  78.1842004  32.1528391
  46.3040835  77.5072990  31.7681555  46.9788051  78.8246117  31.4512591
  62.8904057  65.1324749  84.0272331  62.6884985  66.0622740  84.1318130
  63.2196426  65.0581455  83.1315136  64.7122520  85.3010832  30.3449111
  64.3416852  85.0196801  29.5084147  64.7370166  84.5049964  30.8758215
  21.7596388  85.8854580  84.6746826  21.1079907  85.5564308  84.0555382
  22.5762439  85.9039974  84.1756344  26.5759928   4.9265193  17.1589331
  26.1389620   5.7470512  17.3868804  26.9943077   4.6439885  17.9722075
  85.2721185 106.5250645  39.5050101  84.8669976 107.2341262  39.0056662
  84.5398683 105.9653865  39.7634844 109.6568602  90.9804545   8.8032488
 109.1926640  90.3108345   9.3056063 110.0672263  90.4992877   8.0847029
  72.6482910 109.9736319   0.6001143  72.2926325 109.2141972   1.0616259
  72.7946991 110.6242429   1.2867789  44.4025118  10.5090045  34.9785380
  43.5551340  10.7149267  34.5838503  44.8427279   9.9613427  34.3285326
  51.4075607 109.7286521  13.1307082  51.4514548 110.5458127  13.6272578
  52.0825046 109.8204814  12.4582152   9.7217143  51.1307383  90.5165672
   9.8116422  51.5263557  91.3835335  10.2855706  50.3578138  90.5463409
  94.1409272  99.1184245  11.9051413  93.8767070 100.0161181  12.1065382
  93.8141841  98.6016379  12.6416258  19.2585737  40.2570962  19.8742728
  18.3515579  39.9586820  19.8071818  19.4404490  40.2612924  20.8140234
  59.9983972 100.8432828   4.3785719  60.4908317 101.5171634   3.9099364
  60.4609722 100.0285779   4.1823344 103.6236155  20.9967469  36.7998938
 103.9411915  21.1095523  35.9039835 104.3748415  21.2186670  37.3500304
  85.7673568 108.2959472  22.7642016  84.9435872 108.6198245  22.3998694
  86.4414328 108.8305198  22.3445658 100.5776489  14.3888139   8.2931666
  99.8609388  13.8923311   7.8981165 101.3550723  13.8527107   8.1368308
  56.0876942  33.2705355  84.5914459  55.8686590  32.4638724  84.1250324
  56.6650248  32.9878902  85.3006935  23.3823044   4.0927886  32.7143054
  23.0736620   4.8941707  32.2915034  22.5831301   3.6092376  32.9234175
  82.8696555  59.0229972   9.2398600  82.9607076  59.6898015   8.5591940
  81.9381684  58.8026447   9.2362074  13.3226425  44.6812009  15.8179430
  12.5163347  44.4131231  15.3772215  13.9861328  44.6750211  15.1280360
  34.6924710  94.7405624  82.6020908  34.8266220  95.6267929  82.2661877
  35.5184031  94.2900276  82.4257851   6.2342484   3.3264636   0.8408312
   5.9719927   3.1489372   1.7441229   5.4118282   3.4971999   0.3818087
  39.9040222  53.4367561  89.8602772  40.8487940  53.5271883  89.7359562
  39.7951078  53.3401155  90.8063412  11.0957849  53.5517788  87.6728058
  11.4191616  52.7666998  88.1147480  11.8609226  53.9022541  87.2167778
  77.7054447 106.2796412   4.1668849  77.3003334 107.1187650   3.9478259
  78.6447567 106.4633523   4.1800837   7.3159439  14.2022895  27.3606925
   7.3695643  14.3113279  26.4112334   7.3870213  13.2576083  27.4976782
  32.4899197  47.8741264  80.8335114  32.8231072  47.0278454  80.5351353
  32.1479011  48.2894897  80.0418472  98.2139367 106.9894229  15.0357298
  97.6443023 106.5578471  15.6725173  98.9097423 107.3811303  15.5636076
  24.1259384  82.2510719  79.9208736  24.6062160  82.8211117  79.3203545
  23.8349700  81.5199280  79.3759060   6.2925942   1.8276262  21.0327391
   7.2289545   2.0258807  21.0452513   5.9227068   2.4572467  20.4138808
  71.1401290 104.7759496  53.6302428  71.7709893 104.1622220  53.2539706
  70.5807132 104.2335950  54.1862444 100.8501685  26.0270452  44.7732977
 101.4636004  25.6652021  44.1337637 100.3582895  26.6879892  44.2860274
 102.7080667   8.3193349  55.6057887 102.6111162   9.2490291  55.8119444
 103.6377013   8.2146024  55.4032092  77.9553241  96.6102944  36.1257128
  78.1698316  95.6797896  36.0595850  77.0197314  96.6550170  35.9284834
  79.9180573 108.7951480  27.5308852  80.2150601 108.0339013  27.0323710
  79.8764533 109.5019303  26.8867163  11.1721880   5.6959390  10.9419970
  10.3494627   5.2313566  11.0953574  11.3422424   5.5797052  10.0072245
  86.9154847  32.4459504   1.9860415  87.6791013  31.9649553   2.3050456
  87.2131276  33.3535337   1.9233374  12.5542004  42.7132463  34.7420649
  12.6963217  42.4472379  35.6505160  13.2973559  42.3436879  34.2652277
  26.5029556  30.9202241  45.4791121  27.1314509  31.5580034  45.1407675
  26.7363865  30.1000547  45.0442938 108.4726203   2.1325826  25.6448988
 108.1685984   2.7609634  24.9899630 108.3712113   2.5891351  26.4800696
  94.7565478  99.9637137  29.4971041  93.9519185 100.4255067  29.7327857
  94.7249288  99.8993073  28.5425906   3.6371449  80.8906937  89.5728302
   3.1724307  80.7885170  90.4033947   2.9648533  81.1808586  88.9563370
  83.9165527  -0.0569154   9.9405818  83.8761777  -0.5345345  10.7691245
  83.4744794   0.7727765  10.1206164  45.9656715  19.2787921  78.3032751
  46.2407398  18.4001887  78.0413055  46.1348820  19.3119717  79.2448139
  71.5380877  66.8769322  12.1399741  70.7878059  67.3981951  12.4256281
  71.1851758  65.9954248  12.0190386 109.0578902  37.1800374   2.4734835
 108.8423908  37.9122972   1.8959097 109.9692619  37.3322725   2.7233843
  57.5555211  89.7828613  14.0349822  57.1137160  88.9338337  14.0211730
  57.2073525  90.2214371  14.8113017  18.6853439  23.7210798  23.9923148
  17.7542431  23.9390992  23.9504962  18.9262802  23.8737487  24.9060301
   8.0571282  42.5158119  87.8927708   8.1831372  42.9286909  87.0384407
   7.9569554  41.5843821  87.6962090  98.0551374  21.5572404   9.3362860
  98.4696019  21.4269065  10.1892046  97.4281490  20.8377742   9.2622237
   3.9107973  21.9052982  40.2914576   4.5921213  21.2404584  40.1913886
   3.9625342  22.4239873  39.4886355  43.5218508  33.5972261   6.8108038
  42.8996355  33.7932634   7.5112681  43.3693487  34.2795896   6.1570792
  27.1932864  78.5353994  67.5901747  26.5943193  79.1839027  67.9601908
  27.2465444  78.7609625  66.6614580   8.3501142  59.4767952  84.1877270
   9.1363978  59.6727085  83.6782074   7.6605684  59.3699265  83.5324860
  16.3808942  49.4431639  69.1845036  15.6463826  48.8921404  68.9141464
  15.9756792  50.2679729  69.4523144  84.5175934  71.3773680  93.2808304
  83.8121414  70.7654190  93.4908199  85.0940037  71.3495779  94.0445042
  49.4159395  24.8420190  40.5625014  49.0882475  25.4407834  39.8914389
  50.3306372  24.6920108  40.3236346 110.3267396  44.4294690  23.0088763
 109.3803227  44.3123006  23.0913214 110.7017529  43.6664151  23.4485774
  55.6834555  49.9364090  87.6161766  54.7897577  49.6158838  87.4945164
  55.8325338  49.8778152  88.5598850  78.6869782  95.2462636   6.3158469
  77.7622146  95.3076182   6.0765128  78.9042372  96.1139212   6.6567187
  66.7369765  95.4565869  24.4388251  66.5982384  95.1595984  23.5395007
  67.3757094  96.1652623  24.3611769 116.0589230   4.1526889  20.7784800
 116.3089693   3.5122299  21.4444499 116.8792665   4.5860528  20.5429797
 106.2877333  19.3573617   2.9892210 106.8593490  18.7360286   3.4402613
 105.4241550  19.2125367   3.3758597   3.1895620  21.0391282  14.6107916
   3.3752710  21.9765662  14.6651511   2.8423769  20.9145641  13.7275080
  63.3004612 109.4040023  15.1764254  62.5915450 109.1246615  15.7557730
  62.9078096 110.0827943  14.6275191  31.4126885 100.3004943  33.8130049
  30.9635329 101.0557090  34.1926722  31.0833085 100.2521954  32.9155592
  41.5732670  87.4188042  80.5129719  40.6769037  87.5599003  80.2082443
  41.8656254  86.6375065  80.0435829  20.8947832   9.6527767  20.8889250
  21.8312294   9.4701433  20.8118205  20.8040220  10.0839996  21.7386488
  92.4900961   8.4890508  20.7821517  91.7585230   8.7411165  20.2186827
  92.7429188   7.6195668  20.4718070 107.7390325  28.2688283  34.0587096
 107.4200642  29.1692209  33.9972071 108.6925972  28.3521604  34.0609698
  32.9202540  31.5669965  14.0059428  33.0466063  31.6919565  13.0653910
  32.3941118  32.3186063  14.2788748  94.4257498   1.6900682  12.2612338
  93.8453186   2.2147464  12.8126387  95.1797903   1.5005159  12.8195624
  44.9490976  47.9553223  95.5882072  45.6766367  47.7941227  94.9874306
  44.3269444  48.4732580  95.0774288  13.6667609  74.3649578  88.8142395
  12.8617954  73.9352846  89.1034508  13.4079218  75.2713156  88.6476517
   6.7922676  60.5575180  82.0500660   7.6591676  60.6711435  81.6604424
   6.2712848  61.2744522  81.6883945 100.1650155   7.6456928   9.6412138
 100.5608976   7.3288965   8.8293318 100.4963911   8.5386085   9.7367625
  39.3903017  49.4851923  75.9336758  39.0627098  48.8288403  76.5485907
  39.4599199  50.2862597  76.4529800 100.2805937   4.3139076  26.4802985
  99.5837343   4.9678611  26.4258818  99.9524200   3.5714196  25.9731059
  59.5461363  98.3633719  11.6190295  58.7963051  98.0658446  11.1037974
  59.1718501  98.9686261  12.2591929  41.1420059  98.9023590  93.7903023
  40.7078791  99.6616268  94.1792488  40.5143738  98.1874084  93.8959789
   9.5946438  32.8104734  31.9251208   9.5562918  33.5987520  31.3834719
  10.5270512  32.6872968  32.1031050 102.8298200  44.7346830  10.9272913
 102.0452512  44.6291684  11.4653830 103.5392106  44.8535203  11.5588526
  16.3105930  84.4010220  32.5611453  16.7743839  85.2122579  32.7685694
  16.4771903  83.8311873  33.3119921  73.3465308 109.2116748  35.5306963
  73.3660549 109.1795264  34.5742373  74.2670864 109.1749106  35.7904200
 108.4770596   9.3161153  32.5587325 107.9258526   9.6617412  33.2608370
 109.2673934   9.8553705  32.5872187  34.2123771  44.9474764  90.6134510
  34.6193147  44.0854645  90.7004356  33.3363986  44.8372173  90.9832287
  47.8002179  61.2627075   7.6321940  47.3760039  61.7565910   8.3338694
  48.2551605  61.9261978   7.1135001  54.2319185  15.8508300  25.1916174
  54.6295149  15.7608985  24.3255572  54.6613295  15.1804733  25.7230811
  46.1365324 107.0995818  23.2743029  46.5396965 107.2336684  22.4165682
  45.6665546 107.9151307  23.4481768  22.2170145   2.2491502  19.0285449
  22.8809960   1.6120099  18.7650733  21.9724686   2.6904916  18.2151274
  58.8389856 103.1465112   9.2180686  58.4751696 103.5734807   9.9936823
  58.2025653 102.4660645   8.9985423   4.4752849  91.3172541  36.0317854
   5.0650657  91.2843214  35.2785925   4.9835933  90.9415828  36.7506175
  24.5950413  83.1136036  87.4076462  24.4393730  83.4194851  86.5140915
  24.3721604  82.1830082  87.3844910  88.4880704 104.3322955   3.6041693
  89.0100926 104.5568953   2.8339247  89.1187257 103.9604340   4.2207961
  12.4031138  68.9646482  91.8203068  13.2641113  69.0976667  91.4237976
  12.5229573  68.2191801  92.4086475  27.0202620  21.1797761  40.0224738
  26.1767704  21.5793943  40.2347426  27.0562632  20.3930663  40.5665545
 116.8428576   8.6620759  16.6108183 117.0373047   8.4695052  15.6935744
 116.2395633   9.4044542  16.5770106  18.1539423  58.2493638  35.1261000
  18.1072743  58.1157350  34.1794161  17.3435194  57.8666639  35.4622416
  56.6533899  87.5961590  78.5226440  57.5164318  87.9718304  78.3486891
  56.6450119  86.7763710  78.0285740 106.4440954  33.3934831   1.0063414
 106.8982852  32.6285695   0.6529860 105.5429137  33.3008813   0.6972556
  16.0835154  24.7727727  65.4420237  15.5008013  24.1186809  65.8278231
  16.5521938  24.3000459  64.7541956 106.7249787  35.4217481  13.5749201
 106.5163529  36.3502454  13.6778693 107.0519865  35.3477144  12.6783614
  37.4401736  82.3732662  77.1733379  36.8020606  82.7384663  76.5604162
  36.9671369  81.6727257  77.6224613 104.6079505  13.2044553  22.6933913
 104.6453727  13.9853429  22.1410803 104.3455685  12.5023603  22.0980315
  43.9010304  89.7395311  61.4424853  43.6548627  90.1022898  62.2933917
  44.5482844  90.3548466  61.0979800  10.5811656  98.2708607   4.5080809
   9.6584857  98.0515586   4.6377234  10.7935584  97.9130326   3.6460547
 114.2858666 106.6941033  40.9420256 113.4352702 107.0002185  40.6273608
 114.0784949 106.1495696  41.7014365  13.9074404  20.6038141  11.8657641
  14.5376045  20.9889554  11.2568335  13.7883122  19.7073793  11.5519957
  39.9941325 104.8877239  94.9643230  40.0471830 105.8410358  94.8964405
  40.5954456 104.6643543  95.6747913  43.6052656  53.9563227  93.0957317
  43.5030174  53.9708090  94.0473366  43.8844824  53.0622625  92.8984261
 114.5328868  22.8216028  10.0873904 113.7861264  23.4159231  10.0141482
 114.2390335  22.0145511   9.6648364  75.0964874 108.6954604  46.4630942
  74.2712802 108.2662545  46.6890292  74.8461288 109.5905934  46.2344317
  20.8686948  49.5854616  66.5097046  20.1211071  49.1254950  66.1279058
  20.8790112  50.4342747  66.0673809 109.1628802   1.8106841  20.3243021
 109.6835244   2.4340152  19.8177294 109.7998631   1.1734533  20.6474452
   4.3430865  86.4640938  24.6845488   3.6023772  85.8925067  24.8867278
   3.9418090  87.2939215  24.4264941  15.3266365  49.8757886  11.4043478
  15.9030993  50.4660177  10.9190135  15.9030611  49.4413232  12.0330004
  23.6691999  70.1491356  81.3855267  24.1704178  70.8901882  81.0451603
  23.4423900  70.4039431  82.2798729  37.1241982  26.7592763  21.4709906
  36.6600878  25.9295987  21.5826277  37.7532274  26.5893792  20.7697730
  68.2192058 100.2959309  23.4275584  68.9203519 100.4988919  24.0467791
  68.5879487 100.5083714  22.5701670  23.8484318  20.8860492   4.9233775
  24.4950325  20.2953433   4.5371108  23.8854248  21.6715431   4.3776087
  57.8135252  45.3995657  92.4447346  58.6849117  45.6969166  92.1830082
  57.9787636  44.7142458  93.0922413   7.4320061  26.5427636   9.8217158
   6.6093714  26.9390916  10.1088004   7.7197773  26.0196447  10.5698924
  54.4028170  29.7802018  49.3605761  54.6986563  30.5736398  48.9142947
  55.1807291  29.4568204  49.8150210  10.6239063   1.8077039  50.7784037
  10.2826292   2.3703718  51.4735083  10.8926851   2.4149274  50.0890116
  21.9851613  59.2006874  67.0901489  22.5922155  59.4331694  67.7927637
  21.1928701  58.9128351  67.5436306  91.7759341 100.2747689   2.6669173
  91.4005774 101.0399686   2.2312502  91.3603896  99.5269166   2.2376494
  85.0138456  46.2574815  36.9178442  85.2342862  47.1887922  36.9009356
  85.7617480  45.8420800  37.3471694  45.2347136  53.9797401  86.4107609
  44.5892239  53.9029837  87.1133900  46.0065460  54.3551254  86.8345356
  58.1778431  52.7422142  80.7429314  57.6561737  53.3659220  81.2479877
  57.5313950  52.1876097  80.3061867  58.7952232  21.7029905  87.7869606
  59.6122360  21.3222170  87.4648857  58.9426899  22.6482344  87.7553463
  60.2288675  64.8686218  88.7184334  59.5569420  65.1310301  88.0892372
  60.9449005  64.5338869  88.1785488  54.9600983  80.0841141  83.1064892
  54.3827868  80.2808475  82.3687649  55.8222198  79.9600649  82.7095222
 108.7445963  14.6335458  16.1854796 108.7370479  15.5812835  16.3195185
 109.3693865  14.3051719  16.8320422  56.4125949  83.8232456  49.6845870
  56.9544953  83.1233750  50.0489478  55.7335228  83.9680444  50.3434710
   1.4058048  12.3215865  29.3612246   0.4911310  12.5700759  29.4948534
   1.6845638  11.9703006  30.2068667 116.1260498  20.3803157   7.4219946
 115.3071058  20.4486751   7.9128031 116.4894021  21.2657308   7.4378542
  33.2073576  34.7961568   5.7877211  33.9533264  34.2732667   5.4938654
  33.0154593  34.4672918   6.6659312  53.1431198  53.7720060  87.9001999
  52.7061844  54.4096231  88.4647942  53.0259037  52.9347134  88.3490086
  90.3024787  72.5127695  26.2070803  89.3912143  72.5897966  25.9244399
  90.7349557  73.2804476  25.8330969 116.5888703  17.2758245  26.4320139
 116.5352142  16.3254880  26.5330748 116.7590320  17.6014518  27.3158984
  21.4051516  21.0326480   6.2776999  21.6117413  20.7354068   7.1638159
  22.1951086  20.8434533   5.7713465  24.3651986  43.8487577  77.0429134
  23.6641836  44.4277000  77.3423100  25.0779319  43.9940023  77.6651287
  81.2886495  96.6190444  18.5745482  80.4448670  96.9644128  18.2830290
  81.5344495  97.1779786  19.3117194   9.1860754  18.0082750  26.0817580
   9.9046118  17.5553750  25.6403689   9.2575915  17.7362537  26.9967036
  99.0372479   8.8006067   7.1686987  98.6698735   7.9676914   6.8728690
  99.7405041   8.9866399   6.5465598  48.6956739  81.6931534  84.1349506
  49.1880751  82.4024487  84.5480824  47.9465437  82.1275330  83.7270927
  55.7510942  96.6586886  25.8772425  56.0370952  97.0594273  26.6981272
  56.5486139  96.2846480  25.5026965  41.3173151  77.0216799  84.9221134
  42.0670843  77.1439648  84.3397617  41.0651350  77.9090548  85.1774502
  78.9257544 106.2017690  38.3288626  79.2180556 105.4430686  37.8237299
  78.1018824 106.4611827  37.9163413  58.8079173 101.2190209  21.3237433
  58.5859007 100.3247939  21.5831522  58.9574224 101.6780625  22.1502738
  96.1529255   5.5848169   8.6529784  95.2178014   5.7722091   8.7345843
  96.5583575   6.0722827   9.3700842  29.8115849  48.1006622  95.2019310
  30.1631069  47.9329062  96.0762978  30.0941682  47.3484373  94.6817970
 105.0806964  16.0068940  15.0583987 105.2002895  15.3362846  15.7308726
 104.4296110  15.6356191  14.4630198  85.9402913  81.6541348   2.7368502
  85.4676742  82.1990643   3.3660750  85.2712649  81.3748799   2.1118311
  62.9740238  44.5746279  84.3106174  63.8777018  44.6536541  84.6161556
  62.9516363  45.0774479  83.4964275 102.4043179  54.6998167  78.4844828
 102.9874706  54.6738100  79.2430878 102.8521729  54.1762066  77.8200388
 101.7789567  12.4951505  13.9513640 101.2711203  13.1629609  14.4121890
 102.6717699  12.6050138  14.2785410  35.0263292  39.7683572  12.1789889
  35.4092915  40.2855443  11.4704089  34.9368126  40.3858709  12.9048686
 116.0431969  86.7811108  81.0943031 116.1452420  86.5025902  80.1842308
 116.6498464  86.2259007  81.5841579  81.5341568  94.7160053  84.6456909
  81.8178654  95.3406715  83.9782047  81.0844994  94.0283966  84.1545486
  34.2217285  43.5116433   6.5164427  34.2372973  44.4295263   6.2453608
  33.8761408  43.5312890   7.4088625  21.8115599  39.1121911   2.1685652
  22.1080143  38.2030153   2.1268324  22.3632939  39.5732641   1.5367178
  66.6260529  71.8305349  93.7691975  67.0314217  72.6322937  93.4389114
  66.9677782  71.7381668  94.6585369 107.0923579  12.6536559   3.8380198
 107.6309312  13.2963990   3.3764414 107.6765812  12.2820663   4.4989542
  75.9707935   1.3618087  16.4965682  75.7208747   1.2040424  15.5861430
  75.5247793   2.1760225  16.7297320   9.0213377  36.9671201   0.7344870
   9.4339354  36.3421582   1.3306574   9.7369749  37.5362062   0.4512267
  26.7672951  30.4066610  21.3159709  26.6373713  30.1784848  20.3954844
  25.9729082  30.8820104  21.5593199 113.4691084  29.8239373  22.2398619
 113.2799542  30.7622194  22.2484450 113.5760343  29.5927095  23.1625418
   3.2625640 103.3283006   6.7034010   3.9302695 102.7358924   6.3577799
   2.4841655 102.7801190   6.8025450  85.7145280 106.0087596  10.5620818
  85.1816815 106.3542901  11.2782626  85.3587932 106.4245234   9.7767024
  25.6498558  11.9523477  14.1351466  26.2516434  12.4162721  13.5530238
  25.3012640  12.6328849  14.7109751 102.5683373 106.0211144  12.4407916
 102.4063176 105.8175383  13.3619551 102.8983706 106.9195901  12.4485259
  21.1199696  19.9067449  24.8159842  21.0567410  19.7473430  23.8742690
  21.2591917  19.0396880  25.1968531  40.8390410  33.4823274   1.6249995
  41.4359648  32.8317308   1.9946532  39.9949581  33.0334138   1.5777354
  63.0233002  49.1098213  84.4884968  62.7866507  48.2647038  84.8706055
  63.9800262  49.1002512  84.4598675  54.3245888  99.8411369  80.8733749
  53.5380697 100.0816441  80.3837109  54.3983698  98.8938141  80.7577705
  45.5383444  91.3692284  92.6233101  45.2647734  90.5055523  92.9322624
  44.9095488  91.5878105  91.9355106  78.4361553  74.2282057  87.1122265
  77.7613068  73.5817909  86.9049644  77.9984808  75.0731182  87.0083046
  30.1946718  13.4897851  10.0898413  30.2941973  12.8727292  10.8147959
  29.4219095  14.0060281  10.3190856 106.3901729 102.7986060  16.5434508
 106.7624062 102.8992520  17.4195532 106.9387120 102.1351491  16.1249308
  49.6847136  26.8446588  21.1092429  49.1750796  26.4603471  21.8225531
  50.2655584  27.4714422  21.5405230 112.6632417  17.8402280  32.3626093
 113.4592808  17.7928542  32.8920512 112.2245944  18.6371755  32.6604228
  43.9508343  94.4285870  80.2954006  44.1665268  93.7687302  79.6363831
  43.1176090  94.7969818  80.0017071  13.8474304  22.9229259  19.8225741
  14.3069584  22.2355985  19.3402438  13.5245354  22.4871349  20.6112723
  25.1184637  30.3898000  13.4115462  24.4095833  30.0614404  12.8584628
  24.6778376  30.7214593  14.1939024  23.5778076  29.0529393  18.1243567
  24.5228035  28.9263677  18.0395464  23.4874279  29.7655248  18.7570433
  28.2720883  51.9613027  20.8109335  27.8956968  52.8197145  20.6167845
  29.0114672  51.8821096  20.2082114  42.8490049  51.5573739  21.7932848
  43.3664496  50.7555818  21.8681483  42.0319445  51.3587140  22.2506384
  96.1907780  30.5476236   3.0206351  95.4559350  30.6050062   2.4099497
  96.7537666  31.2859678   2.7879958  89.1562861 109.8615895  12.6341967
  88.4600800 109.4041072  12.1627764  89.4105739 109.2571746  13.3315138
  39.9098492  95.2282047  93.4459400  40.1580954  95.2365971  94.3703556
  38.9647031  95.0769424  93.4531212   7.8047735  20.2142000  43.4797053
   8.5283835  20.7939481  43.2419734   7.2939808  20.7165813  44.1144804
  73.9463386  30.9954118  61.0920958  73.9370019  30.2130842  60.5406241
  74.0330193  31.7222261  60.4752879   2.5948364  40.6728410  46.2272505
   3.2698424  40.7401323  45.5519156   1.7728789  40.6184434  45.7397418
  91.8798352  20.8698940  10.4033713  91.2299764  21.5396165  10.6164126
  92.1074248  20.4799270  11.2473921 115.5563557  37.2381067   9.7052817
 115.5154837  36.2819433   9.6875338 114.7053659  37.5204801   9.3701510
 104.0927947  41.8212270  43.5261969 103.6475075  41.8246888  44.3735079
 103.9159882  40.9520864  43.1662421  21.4598496  40.6421708  10.8083300
  21.7099888  41.5521669  10.9682326  20.8780462  40.4223012  11.5359263
   5.8880789  58.7518167  14.5214228   6.6316778  58.5026693  13.9726023
   5.6936104  59.6536588  14.2662577 111.6762483  29.4931173  16.3036780
 112.5254858  29.1199159  16.0675578 111.1383951  29.3792772  15.5201010
  41.1953746 108.9874373  16.2288146  40.6142815 108.4071885  16.7206244
  41.6148496 108.4167252  15.5849509  50.7256413  49.7431231  79.6853161
  50.3695345  48.9611340  79.2635107  49.9592304  50.1946020  80.0388813
  12.1981508  48.3034181  19.2639975  11.4736588  48.0282735  19.8258166
  11.9513256  48.0015802  18.3898119  22.0752842  22.8548145  24.4924216
  21.6380627  22.0056199  24.4296507  22.4298412  23.0069827  23.6164240
   8.2951767  17.8214454  45.1616244   7.5534708  18.3434438  44.8556475
   8.4295065  17.1697664  44.4735102  30.7065518  11.4458942  17.0718245
  30.2827675  11.3085079  17.9190402  31.4075167  10.7945680  17.0462374
  43.0570602  63.5472488  86.7892551  43.7767696  63.7737942  87.3782539
  43.4861803  63.3072329  85.9679890  38.1372196  15.9425639  41.6164546
  38.7592442  16.0838556  40.9027628  38.2979519  15.0424289  41.8995623
   6.2291605   3.9479207  26.2199549   6.9595654   3.7572908  25.6313948
   6.5226872   4.7035217  26.7290167  94.1988159  53.3828019  11.9923834
  94.2462063  53.3722352  11.0364203  93.3308232  53.7372445  12.1852545
  21.0686953   3.2231616  48.7833075  21.3053066   2.8223943  49.6197562
  21.2025816   2.5285053  48.1385188  40.0259972  84.7311783  88.3584881
  40.2444458  84.4225979  87.4791241  40.5289936  84.1642189  88.9431095
  21.0002215  14.5490121  14.9952464  20.9843094  14.3188524  15.9242301
  20.4241402  15.3104162  14.9272398  20.1549275   6.9556426  21.7705206
  20.2487976   7.6260232  21.0937552  20.9206373   7.0738792  22.3326067
   0.6885416  21.6003656  15.8706240   0.3844840  20.9432363  16.4967017
   1.5811045  21.3303994  15.6545596  20.7413323   8.3464002   6.6160445
  20.8659441   8.3847141   7.5643210  19.9005873   8.7791204   6.4672713
  19.3356640  42.6176118  32.1536593  18.9038212  41.9754075  31.5903430
  18.8057024  43.4096479  32.0639567  84.8393935 108.7466107  30.5146651
  85.5204505 109.2797766  30.1046328  84.4668073 108.2384215  29.7941355
 106.3753498   8.6845254  12.0333247 106.4442718   7.8851795  11.5112738
 106.8525827   8.4862756  12.8390364 112.5481975  25.9900331  36.5238909
 113.1661284  26.2438916  35.8383612 113.0777037  25.5029344  37.1552329
  91.9820899  97.6656543  17.8954272  92.6728743  97.7371560  18.5541682
  92.2619552  98.2496224  17.1905283 100.4283202  33.1813192  34.8962073
 101.0665095  33.0205774  35.5912642  99.8458135  33.8502931  35.2559237
  48.9139605  91.4449024  81.0316467  48.9213800  90.4895306  80.9729862
  47.9863834  91.6741562  81.0888863  47.3545439  29.5207929  36.9342093
  47.0211489  30.2391862  36.3966422  48.1430609  29.2264509  36.4783053
 113.9706982  25.5446576  22.9054598 113.2571018  26.1644792  22.7543501
 113.8887918  24.9074792  22.1958594  20.0306923  53.4580278   0.7865290
  19.9664719  53.7096166  -0.1347871  19.4797833  54.0912580   1.2466864
  66.3585074  13.4162235  15.6920104  66.5969164  13.0193519  14.8542265
  65.9095080  14.2272901  15.4536776  28.2739813   7.0757722   3.0340342
  29.1468126   7.3256969   3.3372359  27.8448755   6.7155074   3.8101153
  79.9877453  60.7429218  82.9518223  80.6429386  60.4913712  82.3009205
  80.4289818  61.3950109  83.4961796  92.0571679  96.7728911  24.9144797
  91.9594830  95.8433829  25.1211409  91.4901608  97.2189914  25.5435519
  36.6372228  59.6961546  95.3879166  37.1643972  60.2782679  94.8406887
  35.7755232  59.6909094  94.9711704  85.9373778 100.2953730   5.3592639
  85.1859635 100.0559722   4.8167853  86.5189141  99.5366011   5.3112273
  24.6275503   9.5038747  23.2275252  24.6990950  10.4399061  23.4144930
  24.1700775   9.4616412  22.3877863  56.9129086  51.4452839  95.0322056
  56.2374210  51.6466808  95.6798077  56.8014765  52.1121025  94.3545818
  81.3356018  55.6852102  81.2567043  80.7962036  56.1766958  80.6372452
  81.4918900  54.8455572  80.8245182  43.1933689  60.3680134  84.6976280
  42.6505613  61.1429262  84.8428726  42.6584625  59.8017359  84.1413593
  50.8548689  43.6091566  88.9160633  50.3930807  42.8051138  88.6783600
  51.7818880  43.3888817  88.8247204  20.6997378  35.8722638   7.2032599
  19.9105389  35.3338765   7.2626738  20.6093676  36.3388585   6.3723902
  66.2195492  48.8954401  71.7464972  66.6175365  48.1732845  72.2326422
  65.2799845  48.8001919  71.9026089  57.5375540  16.7464971  24.3856005
  56.6914160  16.4237451  24.0755801  58.1346781  16.0083675  24.2637972
  37.2107155  18.3488702  36.9106249  36.7502720  18.5656165  36.0999159
  36.5923245  17.8058576  37.3994593  31.1924154  26.3684034   3.8961272
  30.7879383  27.2022771   4.1354804  32.1171028  26.5791654   3.7666373
  87.6064182  48.7098550  10.2729659  86.8906176  48.8525247   9.6536879
  87.7677852  47.7669572  10.2394347  21.4540887  45.9879112  73.6746931
  21.9870877  46.7629242  73.4972095  22.0801926  45.2639532  73.6853790
  58.1738853  87.7643108  83.4054565  58.3629417  87.1040726  84.0722275
  58.0833292  87.2656059  82.5934696   1.8383438  36.1637639  10.8004527
   1.1538870  35.9000253  11.4154295   1.7556317  35.5486059  10.0717787
  25.2581865   9.5557069  59.2265944  24.5152218  10.0924825  58.9507155
  24.9546225   8.6540937  59.1208796  13.6741192  24.0613364   8.1789450
  12.9373009  24.0224265   8.7887148  13.3248026  24.5110654   7.4095587
 104.6518696  16.0385799  11.0486941 103.9193309  15.5643844  10.6552939
 104.2969144  16.3946437  11.8632273  41.5836906  66.6204357  91.7602921
  41.7350197  65.6909704  91.9318485  42.4544239  66.9760609  91.5825748
  14.2378378  48.8472033  92.6346111  14.3400753  47.9819012  93.0308914
  14.6638930  48.7714767  91.7808151 116.9612569 109.3390904  35.2823882
 116.2230891 109.9294625  35.1313834 116.6727752 108.4988843  34.9259333
 110.6282389  10.9170055   9.1234164 109.7731388  10.4870939   9.1089015
 110.5299557  11.6656303   8.5350852  31.9531424  10.5826902  32.0083861
  31.4996893  10.5711650  32.8512911  31.3477404  10.1520728  31.4048247
  61.6554308  87.0111370  94.9199677  61.2222099  86.1780453  94.7342014
  60.9576321  87.5746632  95.2542591  77.6071882  95.7115746  93.2783508
  76.8619442  95.4385471  92.7432823  78.1871414  94.9501228  93.2875919
  53.3086950  12.4383354  22.3614363  53.7710364  12.7818727  23.1259303
  52.6248247  11.8773174  22.7272372   1.1455042  36.3475656  60.5135588
   1.9274218  35.8581781  60.2579264   0.5876119  36.3308477  59.7359232
  92.9684752 109.4040070  21.4981894  93.9078635 109.5496617  21.3860754
  92.9109687 108.6101161  22.0298438  37.9824574  59.8257303  47.2859435
  37.2624905  59.3986081  47.7501063  37.7702982  60.7584523  47.3212294
 112.7097953  39.1267537  22.6424937 113.2527626  38.8340329  23.3744387
 112.0148361  38.4712552  22.5826506  39.9473286  56.3736773  70.5158424
  40.1164770  55.4328108  70.5646658  39.8021650  56.6383839  71.4241886
   6.3767225   3.2409190  10.9537940   6.1690075   2.8807735  11.8159823
   5.6219036   3.0132913  10.4109530 113.3231461  56.5062570   9.7232298
 113.4210122  55.8852624  10.4450469 112.4113858  56.7928838   9.7758250
  40.1042986  75.7096004  79.8653221  40.9796238  75.4874325  79.5480251
  40.2482128  76.0444880  80.7504082 104.9577016  95.4248963  22.0241408
 104.6777123  95.0952278  22.8780417 104.4410104  94.9241052  21.3928942
  35.0277979   9.8089790  12.7399401  35.0319655  10.1319312  11.8388800
  35.6077988  10.4069518  13.2113795  13.9060433  17.4378013  40.5600218
  13.3813603  18.2011413  40.8013777  14.2057259  17.0793008  41.3954215
  80.2151841 101.7923699  14.5144419  79.3609399 102.0186768  14.8822550
  80.6224698 101.2366973  15.1789622  91.4827079 107.6818810  36.5593867
  91.2324685 107.1582661  37.3206000  90.7882947 108.3358584  36.4797835
   2.1058161  41.2489461  27.5766997   1.5392096  41.4158963  26.8234972
   2.8945572  41.7622041  27.4015002  48.5600567  96.5025139  82.3527622
  49.1031027  96.8172836  81.6300869  47.9829550  97.2383976  82.5568676
  23.6066801  28.9208268  28.0169539  22.8481848  29.4257116  27.7236704
  23.2504255  28.0606508  28.2392363  45.5584414  18.6438703  24.5386462
  45.1876242  18.0962323  23.8466696  45.1477797  18.3250427  25.3423457
  67.0273304  74.8497534  89.5675755  67.7515316  75.1896811  90.0931454
  66.9502974  73.9326525  89.8306847  51.1574268  52.2584248  86.5714836
  51.5473986  52.9892397  87.0511246  50.2699995  52.5528193  86.3664627
  92.2025889 104.2451201  32.5750975  91.9034785 104.2327176  33.4842829
  92.6867360 103.4259663  32.4710421  16.6418249  19.5283460  31.2879996
  16.0007841  19.0590047  31.8218665  17.1204550  20.0734519  31.9125132
   5.1499540  25.1518297  31.8855910   5.8000834  24.6608304  31.3831191
   4.6071322  24.4791745  32.2968153  82.7491260   8.0936193   4.3067126
  81.9380340   7.6002931   4.1842608  83.3587015   7.4615573   4.6876959
  15.7064659  40.8879232  18.1560378  16.3216049  41.5331506  17.8074507
  14.9030287  41.3837575  18.3137087  49.9960423 101.9148445  89.6731091
  50.0655890 101.0565186  89.2551708  49.8310661 102.5204659  88.9504528
 105.9892404  13.5445976  25.1130728 105.2512515  13.4033059  24.5200781
 106.1689413  14.4828224  25.0525050 110.0560010  35.7992696  36.0834078
 110.4375160  35.0585222  36.5545516 110.0718177  36.5185022  36.7148165
   4.2171318  43.3382844  10.7497935   3.9800722  42.4728917  10.4164080
   4.9000246  43.6457776  10.1536994  95.5066228  17.9683399  13.9449458
  95.1602698  17.8018903  14.8216300  95.0071740  17.3835038  13.3750777
  47.3163986  83.8727570  70.5285311  46.8727398  83.5604954  71.3171291
  47.8899670  83.1498528  70.2742434   7.8258497  17.0346450  31.3628344
   8.2770044  17.1479606  32.1994071   8.0890972  16.1639642  31.0647540
  58.1278038  76.8323421  88.1498051  58.0658054  77.7774858  88.0116272
  57.2316504  76.5147734  88.0388927  33.1543905   8.2989644   9.5271544
  33.9454014   8.8344383   9.4655184  32.4685604   8.8386916   9.1340022
 102.2535003  23.5341882   2.0910697 102.7461732  24.3516254   2.0182185
 101.3829697  23.8044404   2.3832564  41.8400175  47.7146673  22.4255995
  40.9540636  47.9914521  22.1916918  41.7214567  46.8640088  22.8481726
  87.1961803  24.6340274  15.5565505  87.9543782  24.7207164  14.9787478
  87.1817071  25.4499959  16.0567622  11.6570599  42.4236059  25.1829485
  12.5717718  42.4903440  24.9089293  11.5428288  43.1361245  25.8118300
  36.6275930  38.4662676  92.6116753  36.5564108  37.8399134  93.3319759
  36.5956879  39.3237472  93.0358696  31.2532265  17.4022388  12.4270777
  30.8896954  18.1459474  11.9464736  31.9588024  17.0773982  11.8677191
  46.6690619  15.6253242  39.4983820  46.0452540  14.8993778  39.4883971
  47.1954424  15.4780101  40.2841620 111.1118955  98.2176028  15.3951411
 111.3907784  98.9636288  14.8641924 111.8035001  98.1172763  16.0492377
  39.2963059  14.6167754  12.7586607  39.5804531  15.2059936  12.0598654
  39.2508919  13.7559890  12.3424677 109.3060124  37.0041036  14.7149424
 109.7586978  37.2086000  13.8967185 108.6448968  37.6909494  14.8010306
  13.7940598  64.1624689  70.8660221  13.8977444  63.6631775  71.6760731
  14.4379592  63.7840509  70.2673388 113.9105380  49.9918794   6.8771319
 114.6813667  50.1447152   7.4236636 113.4836805  49.2316865   7.2722678
 111.2161130 105.6715022  26.1126475 110.3823918 105.5607568  25.6556277
 111.5168733 106.5427886  25.8545069  26.8489630  29.5774602  11.1907248
  26.3794310  29.5096254  12.0220904  27.2150261  30.4618882  11.1938624
  32.6773674  27.2171735   0.4127364  33.0527908  26.3866567   0.1202826
  31.8172724  26.9818830   0.7607417   1.7089207  14.5176458   2.1930842
   1.2618096  14.2210912   2.9857878   1.4968760  15.4491138   2.1327357
  52.2999382 104.3433285  89.1053677  51.9765949 103.4551239  88.9544582
  52.2317886 104.7712612  88.2518768  13.4760451  58.5932112  63.4485722
  12.5817084  58.7877941  63.7288046  13.4156024  58.5074139  62.4971390
  27.1325953  19.8098516  33.5542635  26.4593107  19.1465329  33.4028582
  26.8549378  20.2544927  34.3551592 107.0887530  36.3675260  28.8164191
 107.5992954  37.1174478  29.1216998 107.4531281  35.6204843  29.2911677
  62.5896549 105.5143356  74.6001959  62.6628590 105.3918934  73.6536837
  63.4937716 105.6081009  74.9002075  22.8046496   9.9323558  46.8797640
  22.3077232  10.1789569  47.6598219  22.1673853   9.4884538  46.3202338
 104.0849579  29.9309968  22.8218321 104.6466911  30.7020520  22.9003577
 104.6893132  29.1896295  22.8586344  30.9913094  40.5786084  15.2955012
  31.2701304  40.4717111  16.2049346  31.6454155  41.1624955  14.9115138
  27.9885418  49.3524503   5.0111537  28.8265593  49.0351533   4.6745829
  27.6492102  49.9162053   4.3159823   7.8584749  56.0569619  36.2837176
   8.4823973  55.6921624  35.6561236   8.3112747  56.0111474  37.1258025
  14.0282757   4.1867399  43.5815482  14.3209679   3.5008334  44.1816287
  14.7274429   4.8400687  43.6052470  95.2879828 107.4043332   5.6646113
  95.6032580 108.2998906   5.7863001  95.8401650 107.0485507   4.9683718
  64.2508173  64.0754032  86.0851574  64.3506527  64.4527864  86.9591427
  63.6669731  64.6807814  85.6281281   6.6985667  97.0635091   6.1126475
   7.3819984  97.0185672   6.7813162   7.1504558  96.8584166   5.2941374
 105.6372345  14.8966598  17.7048831 106.1526764  15.6870603  17.8655676
 106.2563026  14.1774272  17.8301386  98.7913931  19.1840553   6.4514594
  99.2552483  19.9993705   6.6420607  99.3466318  18.4996461   6.8249945
   4.0639717  23.8556623   4.3335967   3.6766464  24.4593477   4.9674563
   3.9383490  22.9891586   4.7204070  52.1238995  86.5441608  84.4754887
  51.6226292  86.2939548  83.6993790  51.7588806  87.3904800  84.7338009
   3.7974484  23.9872312  12.6409773   3.8900644  23.6928605  13.5470633
   3.4491903  24.8759746  12.7122836 101.4357871  93.3912192  30.4632334
 102.2302264  92.8824268  30.6251673 101.7336863  94.3006669  30.4434447
  11.5747006  49.6527623  12.8241877  11.2108643  48.7923669  13.0329375
  12.1298391  49.8664235  13.5741190  25.1247151  22.4427032   7.0706419
  25.8407528  21.8255805   7.2212176  24.6397574  22.0716523   6.3335089
  80.5439091  40.4836512  95.3403759  79.9182415  39.7609138  95.3896427
  80.2660370  40.9893560  94.5766449 114.9447430  10.2323961  15.5505709
 115.1748050  10.7579231  14.7843318 114.2112768   9.6912097  15.2583842
  18.5094387  49.3136167   5.1483492  17.6148874  49.2955636   4.8082308
  18.9735348  48.6508035   4.6369605  19.8654235  99.8593102   0.7281069
  19.8771632 100.6506215   0.1896624  20.6098045  99.3454514   0.4149394
  53.6538870  26.2871217  15.6347804  53.2931120  26.4107942  16.5127139
  53.0393393  25.6923532  15.2048831  48.9923842  28.7301397   9.6819357
  48.9121229  29.1551256   8.8280158  48.9812262  27.7934217   9.4852690
   8.9836723  27.0736837   5.7144503   8.1717236  27.4945211   5.9970526
   9.4044144  26.7945813   6.5276579  53.7667257  44.1509103  14.5654444
  54.0424616  44.1676473  13.6489729  53.6024458  45.0684881  14.7829299
  99.3605012  97.8201638  16.0866026  98.8522691  98.6279355  16.1603217
 100.2213496  98.1058799  15.7807688   9.9058563  22.8502130  13.1235270
   9.3311531  23.5582637  12.8326468  10.0948889  23.0559587  14.0390448
  14.1866381  16.7536115   3.0449538  13.9059431  17.6410388   2.8215460
  14.0811665  16.2575387   2.2331481 107.8095925  17.1426725   4.7286944
 107.0955050  16.9762277   5.3440051 107.8506053  16.3525342   4.1899638
   0.6266482   9.4326162  42.2627787   0.6012756  10.0840377  42.9636626
  -0.0494306   8.7982034  42.5008444  17.7157623  27.9454374  12.4585967
  18.0544216  27.0513105  12.4130492  17.8715212  28.2147359  13.3638243
 104.0029681  51.8933152   3.1141619 104.5229256  52.3310136   3.7881712
 103.3033693  51.4548444   3.5984473  58.1296015  93.3937836  82.6911640
  58.7833405  93.0323505  83.2896805  58.3110476  92.9684448  81.8530750
  28.2833273   3.7806129  19.8286681  28.6441548   4.6406364  19.6132807
  28.8552076   3.1607293  19.3759779   0.5223376  27.4041700  43.9317469
  -0.1084059  28.1062745  44.0912871   1.0355408  27.3554086  44.7382693
  45.8536894  45.1163816  16.7813353  45.1462538  44.7142076  17.2853522
  45.5536539  46.0107278  16.6189723  32.5571997  24.5398473  16.2236838
  33.0160648  23.9337301  16.8053202  31.7858441  24.0540170  15.9317736
  11.6754181  48.2979726  10.3674654  11.8632061  48.7282705  11.2016253
  11.2247641  47.4894189  10.6111578  26.7283709  34.3812036  37.5383048
  27.3606522  34.7188710  38.1726794  25.8922465  34.7611856  37.8080134
   8.9071018  24.6078347  15.4052214   9.8603899  24.5219325  15.3952364
   8.7458117  25.5163907  15.1507716  19.7187597   2.3937606   2.0159297
  19.8988945   3.2059049   1.5424304  20.4862291   2.2663783   2.5736002
   1.2208445  38.6109971  42.2295908   1.1417086  39.4483804  41.7726855
   0.3851730  38.1718778  42.0713000  41.8171961   6.7245864  12.4991087
  41.0470755   6.2352275  12.2098498  42.2894365   6.1147975  13.0660109
  64.3221569  83.7145138  88.9777946  65.2472925  83.8533306  88.7751102
  64.2495394  82.7726841  89.1324234  30.4961807  27.3434495   8.3078722
  30.5548699  28.0167341   7.6300387  31.4012177  27.2053384   8.5872797
  59.2084582  39.8312997   6.4165167  59.6627314  39.0661573   6.0637812
  59.7275717  40.5774450   6.1164908  38.1462891  52.3062848  13.8950209
  38.6722738  51.5699720  13.5828928  37.4582941  51.9020604  14.4236998
   6.7499954  51.0508966  19.6471934   7.6566107  50.7439088  19.6404700
   6.5969021  51.3650750  18.7560801  29.7335608  37.3777532   8.1968932
  28.9153750  37.6177835   8.6318545  29.8284371  36.4403199   8.3655982
  20.9934092  64.4689941  72.6102829  21.4394808  65.2421474  72.9559517
  20.1386285  64.7927141  72.3260498  35.6926322  85.8201027  44.6175385
  36.0648847  85.9311390  43.7427092  35.9535003  86.6101265  45.0908709
  21.4085753  13.4657811   7.7434115  21.6113264  14.0326356   8.4875826
  20.4678995  13.5778140   7.6062827  27.3978264  33.7249707  27.6977782
  27.1592219  32.9708051  28.2367949  26.9038946  33.6054849  26.8866114
  46.7604589  73.3475018  83.8755035  46.0308599  72.7285242  83.9035702
  46.3605547  74.1975784  84.0590191  14.7211535  28.0502652  39.6713118
  15.1338513  27.3135137  40.1219992  15.4346974  28.6710691  39.5240550
  46.8572123  30.6548166   5.7484297  46.6917212  31.2451886   6.4834837
  46.8294317  29.7790098   6.1336951  26.0608036   5.7601833   9.0571169
  25.8242209   5.7018232   9.9827818  25.3725893   6.2994718   8.6675505
   7.3762954   1.5008296  74.1086960   7.4845851   0.9750880  73.3161688
   6.8515552   2.2508372  73.8287449  14.7140200  31.0602617  33.1755595
  15.2194006  31.7506933  32.7464633  14.1114838  30.7493352  32.4999098
  41.2581522  23.2489728   5.3277068  41.7455179  23.0662154   6.1310153
  40.3959257  22.8610801   5.4771666  35.4209072  43.8215589  29.7980361
  34.5250828  44.1475915  29.7118048  35.9428866  44.6019315  29.9845557
  81.4200878  61.9862270  84.9360943  81.3451385  62.3613071  85.8135509
  81.9249916  62.6320267  84.4418907   2.7791521 101.8680477  72.1147394
   2.8459105 102.6190758  71.5250540   2.9640085 102.2275925  72.9823732
  91.3530445 107.3149681  84.1660023  92.2542095 107.4507713  84.4587135
  90.9874153 108.1970596  84.0991783  75.7924938  70.5940962  81.2911034
  76.6501808  70.5678940  80.8669281  75.3419018  69.8135471  80.9687042
 112.9574597   5.3545999   8.8945822 112.7547920   5.6478166   8.0062251
 113.8609875   5.6355619   9.0392546  42.5871420  99.2946434  91.4860153
  42.1005249  99.1289520  92.2934723  42.3663568 100.1967049  91.2541294
  22.5944168  67.9815530  13.2042365  23.5209448  68.2215452  13.1909327
  22.4198467  67.6513719  12.3229079  35.2056963  48.2547330  25.3965716
  34.7550709  47.8326177  26.1279921  35.9386379  48.7180089  25.8020453
  30.6254578  74.6026182  86.4579201  31.2491512  75.2789211  86.7222309
  29.7743082  74.9389696  86.7383671  12.1048243  34.2381906  18.3478121
  11.4792521  34.1701650  19.0691046  11.8374712  35.0247144  17.8722815
  30.1263888  46.5767907  13.0014948  30.1179344  45.7295656  13.4468894
  30.9606678  46.9720506  13.2544474  78.3778524  71.3938618  94.8588085
  78.0010843  71.5228844  95.7292271  79.3048477  71.2202358  95.0224113
  80.7003802   7.8491820  88.4497070  80.8412284   7.1690024  87.7911091
  81.1824483   7.5424708  89.2176723  49.2929346  42.5647878  13.9941744
  49.5666868  41.6548681  14.1096739  49.4233019  42.7376127  13.0617766
  48.5470469  22.7756738  11.1308531  49.1573126  22.7047824  10.3968386
  47.7017004  22.9621076  10.7223658  11.1188949   5.1377905  93.0707169
  11.9864524   4.7337378  93.0883694  10.5260623   4.4222582  92.8409481
  54.6209032  42.2705220  28.4341197  53.9324457  42.2358465  27.7699904
  55.4359705  42.1910524  27.9385523  36.5912802  15.2003097   2.9650454
  36.7918379  14.3485736   3.3530573  35.8571942  15.0280093   2.3754172
   3.1487829  35.5124616  41.9237570   3.5765345  34.9119233  42.5341753
   2.8678448  36.2477445  42.4684195  69.6802711  79.9053431  93.6838245
  70.2311325  79.1599989  93.9230824  68.9691591  79.8930073  94.3244553
  51.5373881  24.5552825  30.2865462  51.4998228  23.9888524  29.5158438
  50.6368048  24.8566293  30.4064326  26.7045593  66.5610266  84.2876148
  27.0910335  66.7296839  85.1469326  26.0812569  65.8508539  84.4405365
 102.6909799   9.1969527  76.7243624 102.0056552   9.5812357  76.1776590
 102.3342961   8.3514060  76.9964886  64.1039562  98.5507679  83.5588741
  63.8076544  97.7922440  84.0619564  64.1482401  98.2367229  82.6557446
  27.9463179  61.2690496  14.6726660  28.0962307  61.6921472  13.8272433
  27.1030409  61.6135072  14.9667124  35.7993579  66.4866543  91.5079117
  35.7446456  65.8919525  90.7598686  36.7273974  66.7138338  91.5659046
  23.0533433  26.6366243  75.3628731  23.8346982  26.1347389  75.1308680
  22.8013659  27.0764780  74.5509195  40.9834273  62.2542142   7.1066241
  40.3162176  61.6411542   7.4152236  41.7501719  61.7074346   6.9352393
  50.5291176  80.2082062  95.1855755  50.1976442  80.9300709  95.7196712
  49.8483706  79.5375156  95.2403164  36.3741190  52.6251649   9.9073939
  35.5708964  53.0537652  10.2029662  37.0005638  53.3404302   9.7969393
  21.4177925  75.4736470  14.0807013  21.3429958  76.3639306  13.7371497
  21.9893105  75.5586290  14.8438315  25.3961498  29.5795583   8.2960085
  26.0150749  29.9193429   7.6497035  25.9135229  29.4832944   9.0955691
  49.8935015  13.7832069  10.7449202  49.2239077  13.1223630  10.5683856
  50.3165037  13.9276313   9.8984866 100.7933521  65.0322056  90.1626587
 100.7016087  65.9333897  89.8533344 101.7140961  64.8193312  90.0105572
  65.3184938  83.5605907  94.2365170  64.6073246  83.2468700  93.6779022
  64.9032831  84.1978931  94.8176098   9.5726092  26.9497251  13.0786089
   8.9271862  26.3723420  12.6708083   9.3855698  27.8142499  12.7127699
  54.6716833 104.3556499  90.7874012  53.9969444 104.2020416  90.1260567
  54.8364639 103.4922886  91.1664677   8.2285387  34.5737600  40.1291518
   7.6779539  33.8654947  40.4629855   8.9489157  34.1276025  39.6839194
   1.7500145  39.6672773   0.6026034   1.4069731  38.8796758   1.0247950
   2.6984865  39.6061277   0.7161574 104.8320115   7.1219301  31.7980151
 105.6139672   7.2178029  31.2543444 104.8595417   7.8723335  32.3916201
  25.4562027  56.3803148  28.2337718  24.9800331  55.8782529  28.8951544
  25.6260330  55.7516717  27.5322012 113.2198799  39.1924047  26.7872195
 113.6878932  38.7119626  26.1043124 112.2943652  39.0476846  26.5904669
  44.7828722  86.5550995  85.1718712  44.7854519  87.0273304  86.0044765
  45.2054405  87.1535301  84.5557976 110.8296031 103.8901053   7.0608572
 109.9901027 104.2350398   6.7567400 110.6956071 102.9436646   7.1111254
  57.9593611  95.8792496  83.6451340  58.7721777  96.3755131  83.5487270
  58.1112194  95.0728226  83.1523514   8.2334788  40.7725095  51.5956835
   7.4780304  41.3278531  51.7883544   8.0892832  40.4752015  50.6973319
  55.7768423  19.3609428  21.2868361  55.4220278  20.0311469  20.7027392
  55.4777796  18.5329770  20.9109740 115.8922088  15.7725381   3.8916926
 116.3697088  15.0710296   4.3345408 116.5447557  16.1873435   3.3274703
 115.5046714   1.7171811  39.4878153 115.4913056   2.3120736  40.2375845
 116.3658607   1.3012313  39.5274214  38.5610373  26.1520147  19.3206648
  37.6920349  25.9395170  18.9802126  39.1586954  25.9313630  18.6062769
  50.8586294  39.4462442  18.2413821  50.0077803  39.2052316  17.8750376
  50.6702597  39.6815442  19.1498904  65.7024653  35.8236932  15.2634291
  64.8790819  35.9127664  15.7433562  65.6052096  36.4068651  14.5106463
  58.0911207  98.8681602  82.3791695  57.6280928  98.2396603  81.8252468
  57.3962688  99.3805885  82.7924728  91.5234661 109.9590588  79.1456366
  90.6334209 109.6080399  79.1746521  91.6281700 110.2724266  78.2472658
  83.0998421  93.6259747  77.1062946  83.0692768  92.7131557  76.8198395
  82.1855927  93.8555336  77.2726774  35.7798082  24.4610833  24.1471533
  36.1881525  24.0392160  23.3911757  34.8411686  24.3224572  24.0207724
  42.4512482 110.0290108  90.6537437  43.1406307 110.3635025  91.2274170
  42.8822231 109.9059200  89.8079681  57.8034830  97.2999191  90.0544643
  58.1912613  97.4818993  90.9104633  58.0717993  96.4028263  89.8557949
  58.5680563  38.2308721   8.3689742  58.9014418  38.9774751   7.8713088
  59.2352945  37.5532674   8.2600646  29.0336449  40.9896993  13.0924754
  29.7230370  40.7733011  13.7202792  28.7740404  40.1462983  12.7216486
  77.0301771  76.6799068  86.8767357  76.9192123  77.5535536  86.5016937
  76.7810726  76.7802572  87.7954960  21.1114723   5.9446954   3.6284117
  21.6190369   5.3122901   4.1370062  21.7397864   6.6310834   3.4040789
  87.0759470  51.4261293  28.4914736  86.2403662  51.2064695  28.9035182
  87.4511797  52.1017885  29.0561919  37.9642749  99.4408417  58.7117386
  38.1919980  99.0070057  59.5340300  38.3193016 100.3252602  58.8012218
  55.5001146  13.5761308   3.1866889  55.3268129  13.3335065   2.2771124
  55.4209501  14.5299672   3.1994013  31.6068060  20.3018951   6.8021540
  32.5514586  20.3154754   6.9560198  31.5154440  20.4462051   5.8603148
  53.2036352  95.3009605  91.8273163  53.4759283  95.5206394  90.9363461
  53.2290745  96.1341381  92.2978497  -0.0326841  31.9616365  30.2585749
   0.5675156  32.1664285  29.5415930  -0.0206130  32.7428388  30.8115725
  53.1846888  29.4174718  37.6854853  54.0633852  29.3920945  38.0642752
  53.3057577  29.8221635  36.8265299  83.1730288  84.8379265  18.5767321
  83.1742162  84.0959512  17.9719977  84.0926522  84.9535070  18.8158373
  67.0101595  78.5387325  93.2238388  67.5931215  77.9147005  92.7914333
  66.1970091  78.4950924  92.7207375   6.4976103  11.8871831  39.1052393
   7.3992760  11.5901565  38.9827399   6.1291678  11.9048499  38.2219748
  32.8224356  10.3588819  14.1469054  33.2113154  10.5648994  14.9969439
  33.5709936  10.2614354  13.5583548  67.0384359 106.7507362  81.6736412
  66.8344164 106.4771557  80.7793427  66.3020515 107.3069191  81.9278526
  66.2477875  84.5673561  83.3826256  65.7412100  84.8330784  82.6151562
  66.1339998  85.2855396  84.0051174   0.0226934  62.8138971  19.1025500
   0.6776006  62.1954870  19.4264273  -0.1291435  63.4085321  19.8371176
  15.6427652  33.0622911  36.2877326  15.8764488  32.8405237  35.3863768
  14.7956545  32.6388120  36.4266638  36.0550387  54.9586343  12.4099783
  35.7129175  55.1302289  11.5326361  37.0052559  54.9372243  12.2965674
  44.0608931  95.4396439  71.4153814  44.6063185  95.0159931  72.0781469
  43.2587671  94.9176788  71.3959312  35.0297434  41.6592073  14.0595488
  34.2477591  41.7681646  14.6007113  35.4852659  42.4985074  14.1251425
  54.7060442  46.4814711  79.9283218  54.1208124  46.9439983  80.5281639
  54.5788288  46.9175386  79.0857697  55.6929953  85.7062959   5.1118712
  55.7235891  84.7504472   5.0711874  55.5592806  85.9023904   6.0391764
 110.0267566  78.8974427  29.1718821 110.1673615  78.0568647  29.6076445
 109.4982183  78.6832475  28.4031157  69.0352869  87.7710438  93.5463333
  68.9832830  88.3607006  92.7941132  68.3353949  87.1345425  93.4005451
  62.8922844  79.1231441  83.2740307  62.5859451  79.1171408  82.3672009
  63.4204245  78.3288193  83.3536911  35.9525091  40.9248590  -0.2106901
  35.9777720  41.1922216   0.7080607  36.7448218  40.4010820  -0.3295846
   3.5419590  11.8451881  15.0053076   4.4970162  11.8175124  15.0630240
   3.2423861  11.2857675  15.7219176  14.2168964  97.6455937  54.7219042
  13.7828887  97.3157416  55.5087142  15.0462592  97.1688758  54.6881537
  67.8554392 110.0026798  95.4094219  67.0009661 109.6967697  95.7136154
  68.0720425 109.4218445  94.6800804  71.7210913  90.7859993  82.1790028
  71.5271091  90.6890774  83.1113148  71.7618132  91.7321682  82.0399380
  37.3087246  23.9645290  38.1652216  37.9151899  24.2689943  37.4901442
  37.8677637  23.5380649  38.8147025  56.9259739  80.3663158  91.1445236
  57.1399069  79.5091724  91.5129948  57.5388241  80.4740715  90.4171753
  68.0618174  21.7112541   5.7688860  68.0316336  22.6127338   5.4484896
  67.4108965  21.2478256   5.2418475  21.2891848  24.0992450  18.1678156
  20.7643683  23.3715486  17.8342585  22.0868380  23.6869811  18.4995131
  65.2115154  81.6172028  78.1299114  65.8653164  81.8915176  77.4868488
  64.6173763  82.3643112  78.2010603  46.7820055  81.5522432   1.7369608
  45.9560854  81.0788011   1.6372542  47.4570543  80.8908891   1.5848403
  81.2986726  20.8978880  47.7848959  81.6030806  21.1691702  48.6509085
  82.1011180  20.7481707  47.2850037  42.8360827  28.0466508  22.9836134
  43.3532984  27.8888463  23.7734370  43.2401068  27.4903631  22.3176341
  22.5582106  12.9013204   0.6632857  21.9329626  13.2087278   1.3196425
  23.3792526  12.7981948   1.1444239  84.3164444  82.5858498  89.4517517
  84.3992805  82.2825336  88.5476685  85.2013397  82.8577614  89.6951866
  28.6340792  39.0352201  25.5352549  28.0557425  38.2922220  25.7076506
  28.7804062  39.0104627  24.5896296  50.0713045   9.3933105  17.9933695
  49.9618513   8.4594106  18.1725077  49.9921019   9.8124456  18.8502745
  40.4653914  10.6597089  29.8336939  40.9207899  11.3487148  30.3175406
  40.7425577  10.7814645  28.9256243  28.5776693  83.4177827  24.5320372
  28.8517887  84.0055417  25.2360491  28.9510948  82.5690412  24.7695689
  48.0699045  47.5184869   9.5672755  47.4308474  47.2461175   8.9087538
  48.6387808  46.7567395   9.6784262  95.0876588   8.3130396  92.0105839
  94.9379319   8.0038107  92.9040051  95.7795304   8.9688529  92.0969200
  41.8307860  25.7334279  20.4482893  42.7565653  25.9174871  20.6073432
  41.6598112  24.9271821  20.9350733  21.2465239  32.1902514  89.2193413
  20.6041503  32.8711605  89.0194607  20.7765698  31.5756273  89.7829056
 112.8721558 107.0593949  87.6403332 113.4838592 107.7949457  87.6084614
 113.0736338 106.5462529  86.8578148  88.1953496  63.9492218  28.8457636
  88.9912480  63.7034981  28.3741717  87.5216454  63.3637385  28.4999709
 100.6826555 108.6848908  59.7471285 100.5181395 109.5646310  59.4076824
 101.0204660 108.8285563  60.6311369   0.7396273   2.2392809  92.6772881
   0.7802236   1.5642709  91.9998360   1.6325624   2.5801039  92.7296162
 101.9399511 104.5994990  92.9225540 101.7488920 105.3988968  92.4319458
 101.1823737 104.4835966  93.4960270  66.2027997  91.6647754  20.3708415
  66.6364807  90.9564863  20.8467440  66.8845624  92.0246945  19.8034911
  66.3795513  75.6784116  11.6130595  65.5286664  75.2832018  11.4232306
  66.9410032  75.3966056  10.8908515  44.0751123  23.9337540  88.6967087
  43.9964056  24.1705585  87.7726078  44.9277925  24.2793798  88.9607430
  38.6067295  25.3679991  80.9804726  38.1068683  24.5554662  81.0589600
  38.8882017  25.3886485  80.0658226  52.6696199  81.6284667  32.5734858
  51.7806691  81.9350754  32.3946337  53.0184394  82.2593771  33.2031779
  85.8505970  92.7513467  74.3564510  85.4680681  92.0611285  73.8146925
  86.1076283  92.3069417  75.1643324  48.7123203  20.4900074  74.0385866
  48.1565952  19.7108126  74.0227079  49.2492771  20.3852725  74.8240423
   8.4443355   4.0882805  64.9940872   7.7151811   3.6186549  64.5890999
   8.4052831   3.8404846  65.9178352  76.8957108  62.4936561   2.7416186
  76.0141939  62.3707919   2.3893885  77.4744743  62.1333276   2.0697360
  40.5222020  81.4465676  52.5059752  40.2658098  80.8635150  51.7914538
  40.2821188  80.9708701  53.3011584  71.4717382  53.5610545   7.9586463
  71.4186496  53.7400353   7.0198302  70.7336420  52.9771434   8.1332640
  15.7252800  38.7152410  91.6180325  15.6390643  37.8007340  91.3488102
  15.4240656  38.7268806  92.5265217  70.4149074  87.8829919   0.3550581
  71.0693282  87.4056707   0.8650832  69.7702354  88.1703268   1.0016398
  89.9687600   0.3281068   2.4362711  90.5761040   0.8812522   1.9449572
  90.3222168   0.3155946   3.3257346  11.1309558 102.2862898  78.2578182
  11.5548354 102.8675156  78.8892746  11.7291814 102.2671132  77.5108337
  26.5436411  37.0369554  79.5259476  26.0693049  36.2851000  79.1710520
  27.4220324  36.7023563  79.7067833  24.4177032  11.2963772  66.5055656
  23.5787654  11.6758049  66.2439394  24.2586446  10.9443402  67.3813534
  23.9774036  30.0648713  86.0094643  24.1367745  30.5515003  85.2007484
  24.8505688  29.8962426  86.3635540  78.4748382  61.7301749   0.6518034
  78.8976759  60.8746455   0.7260184  78.9465612  62.1699308  -0.0555368
  29.2695737   9.7471088  93.7646961  30.0551128   9.9235028  93.2469654
  29.4796157   8.9526236  94.2555141  33.6203885  13.8094425  79.5367050
  32.9216933  13.5448396  78.9383364  33.3223295  13.5159457  80.3976631
  17.1130771  78.5095845  43.5001902  17.6801437  77.8514276  43.9020590
  16.8820805  79.0978490  44.2190985  40.3436995  67.2177792  83.7229156
  39.6549869  67.0441055  84.3645859  40.7301044  68.0469227  84.0047836
  86.3413209  76.5778337  13.6914877  86.7630166  77.3756944  14.0105872
  85.4332322  76.8345605  13.5311751  20.9489155  26.8206716  87.2582817
  21.0077715  27.7697968  87.1490669  20.2187896  26.5598106  86.6969395
  73.8345498  61.3622884  21.6689543  74.4990796  61.8000100  22.2009615
  73.1931895  61.0415755  22.3030142  35.0382137  15.0433099  88.0039978
  35.1611900  15.8480263  88.5075283  35.0519085  14.3460619  88.6596584
  50.0183457  95.9145747   5.9225420  50.5325240  96.6986190   6.1152319
  50.2615243  95.6829844   5.0261836  37.1064496   2.9994294  82.6852798
  37.0804429   3.5162640  81.8800259  36.5333891   2.2531472  82.5095081
  57.3720199  72.1802960   3.2834582  57.5141388  71.3671540   3.7680487
  58.2522553  72.4835835   3.0611186  65.8394283  64.5359783   3.9769511
  66.6176337  64.3778710   3.4425025  65.1621431  64.7820882   3.3469061
   7.7486289 106.6185723   9.5705943   7.8298629 106.6629134  10.5233149
   7.3098720 105.7838879   9.4062190  65.2208394 101.6084920   9.8109393
  64.2805475 101.7832766   9.8500876  65.3854841 101.3879023   8.8941721
  80.3115339 107.8566331  84.5306969  79.9538907 108.6662029  84.8952770
  81.1080205 107.6972561  85.0370979  45.8376694  17.3099804  69.5688295
  46.4914179  17.4254560  68.8792562  46.3487196  17.2521639  70.3761196
  65.9046602  23.3020949  91.7349815  66.4527798  23.3134747  92.5196266
  66.4786768  23.6181450  91.0372353  56.6987628  76.8430959  23.2479529
  57.2729439  76.9634519  22.4916033  57.2534317  77.0383964  24.0032248
  67.4669981  15.6739187  12.6627593  67.8719366  15.0223159  12.0903353
  67.0392299  16.2859964  12.0639281  13.8161690   4.8258161  11.5893893
  14.2019159   5.5372285  12.1005873  12.8773863   5.0126695  11.5892748
 111.2968415  95.7733594  26.0842566 110.5160731  95.5086623  25.5978732
 111.9934815  95.7904540  25.4280333  51.8484992  96.5529404  17.8397326
  51.6140860  95.8834039  17.1970801  52.7606744  96.3643704  18.0602126
  26.0288954  13.4948325  66.2622881  25.5466318  12.6714778  66.1865187
  25.5644894  13.9827108  66.9423866  49.8062563  34.0302873  79.4869900
  49.1941166  34.6976066  79.1768217  49.7157764  33.3124471  78.8602924
  41.6182518   1.9009796  89.8092747  42.3854733   1.6660741  90.3312206
  40.9064007   1.9663906  90.4458427  55.4027796  57.2772408  87.2862530
  56.0841465  57.9478598  87.2389221  55.5959415  56.7959070  88.0907631
  25.8407140  12.9702497  84.1883564  24.9866629  13.3791411  84.0482330
  26.3928938  13.6772907  84.5221519  49.7617704  66.9347451   3.0995707
  49.5604915  67.7503072   2.6406817  50.6101602  66.6650842   2.7477889
 111.4363205 106.0397481  69.7800398 112.2856056 106.4152815  70.0122452
 111.5026175 105.8591204  68.8423729  58.1123799 107.9209529  30.2547030
  57.9530782 108.7386523  29.7832922  59.0354365 107.9643260  30.5043368
  79.1260880  64.4239430  10.8980231  79.7583836  64.2392258  10.2035384
  78.6290425  65.1757727  10.5756430  59.5017547  55.5799932  21.0392718
  59.1990560  55.9609571  20.2149729  58.8649899  55.8778846  21.6889052
  32.3772299  53.2967709  16.4734034  32.7239031  52.8195180  17.2272448
  31.4502579  53.4233609  16.6757063  36.8451571  31.4247131  91.7013264
  36.1872172  31.0964131  92.3141670  36.8804765  32.3663473  91.8695927
  89.7244233 101.7460023  26.9488482  89.2101926 102.1092711  27.6698451
  89.2821378 100.9262191  26.7284731  79.8153848  98.7494956  21.1519007
  80.0971621  99.4537125  20.5680232  78.8645739  98.7169228  21.0464053
  56.0134441  50.6567575  15.0762419  55.6265372  50.3881471  14.2429404
  55.7134944  49.9982940  15.7028918 108.7808150  81.8197237  20.9303526
 108.4162873  81.8287240  20.0453238 109.4848889  82.4677382  20.9059863
 105.4164427  22.1663523  88.1814003 105.4270559  21.5366077  88.9021969
 104.9816185  21.7034101  87.4652767  19.9207854  39.8179007  87.1331024
  20.2359915  40.6999016  87.3304558  20.6774950  39.2527270  87.2886753
  74.9910865   7.9955196   1.9367461  74.9799389   7.2906923   2.5843005
  74.9567488   7.5457048   1.0925154  54.5647383  25.6313968  93.4432411
  55.1259041  26.3419890  93.1327820  55.1734209  24.9320149  93.6811543
  84.2063474 107.7060195  74.6270609  84.2816293 108.3519023  75.3294849
  84.0447127 108.2260256  73.8398504  53.6960840  16.9139242  82.8295898
  52.9854107  17.0707059  83.4513569  54.4076443  16.5603185  83.3633327
  90.8983916  71.6639601   8.5428004  90.0184649  71.2874590   8.5571913
  91.4481753  71.0041319   8.9654021  20.8566952  24.7364068  73.5693693
  20.3186274  24.6842837  72.7794361  21.0801411  25.6639862  73.6461878
   7.4555045  14.5310211  60.0456715   7.6530838  13.6004233  60.1514101
   6.7143118  14.6865284  60.6310654  91.1985892  42.8938423   8.2151179
  91.8665236  43.1078754   7.5637488  90.4596442  43.4613918   7.9958395
  45.0825954  89.0983020   6.8494372  45.8876479  89.5916377   6.6921381
  45.1722592  88.3144508   6.3074355  28.0956554  37.6861644  84.0157318
  28.2073307  37.8922486  84.9437809  28.9252830  37.9413366  83.6122036
  67.6649064 107.5326644  34.6231226  68.0509776 108.4055243  34.5503478
  67.9699058 107.0700274  33.8426260  60.1537794  72.8577398   1.5214400
  59.7628349  72.7048300   0.6611971  61.0131544  73.2336126   1.3305811
  32.1433926  26.8694019  94.0685654  32.2167087  26.0873747  93.5214901
  31.3071752  27.2608185  93.8160515  85.8840674  84.9795352  19.5026927
  85.9334058  84.4273458  20.2830081  86.7066831  84.8162328  19.0413146
  55.4006290  16.0642755  75.5343103  55.3314877  15.1237440  75.6981754
  55.0262833  16.1834753  74.6614504  67.4876565  60.6704937  37.2602610
  67.8412813  61.5214191  37.5193171  67.4083060  60.7239900  36.3078551
  27.3787975  12.0611989  55.4471540  27.7228475  11.4550292  54.7910881
  26.7683077  11.5345371  55.9630585  13.9438617  36.3895082  93.7482452
  14.3349493  37.2521901  93.8863182  13.2278585  36.3469005  94.3820858
  68.1288332  97.8852330  18.1584792  67.9511017  97.1393691  18.7314848
  68.7734002  97.5572835  17.5314192  28.3312410  74.6582149   8.5924296
  28.5233170  75.3168379   9.2599253  29.1842777  74.2831825   8.3735423
  63.1588000  48.3359884  26.4522032  62.8290361  47.4602364  26.2508444
  62.6059097  48.9242230  25.9378867  25.9706306  38.5928631  91.6492558
  26.1524558  39.1947532  92.3709965  25.8707476  37.7385354  92.0692348
 109.3566882  36.7302132  92.3747635 108.5276246  37.1086407  92.6674747
 109.9621218  36.8909526  93.0985355  35.2950716  77.0199013  83.6445999
  35.7505035  77.3997927  84.3959332  34.4431257  76.7537832  83.9904404
  22.7883601  39.1661835  85.3618622  22.8157806  40.1218700  85.3155804
  22.8766441  38.8797331  84.4528008  34.2045021  20.4488993  70.4883718
  34.8840070  20.0002956  69.9851227  33.4111094  20.3482103  69.9624205
  52.6464647  64.4163702   8.5101847  52.1464616  64.1010617   9.2630534
  52.9233402  65.2982531   8.7588934  67.9266757  75.1783381  22.5719981
  67.2562260  74.5667194  22.8763823  68.2430118  74.7984837  21.7523245
  58.3926916  26.4841413  86.1966610  57.8726196  26.4840317  85.3930664
  59.2985725  26.5549707  85.8956623  10.8909637  87.2997986  73.2467365
  11.7175132  87.0434557  73.6558104  10.2517634  87.2690736  73.9585733
 107.0366544  36.9009934   4.1383032 107.7469748  36.9996391   3.5043101
 107.4354524  36.4371680   4.8745493  44.4183469  53.0705936  24.1909174
  43.8510284  52.7450673  23.4920554  44.8889172  52.2956501  24.4979338
  49.7500277  13.0738640  82.6103783  50.0744343  13.3968771  81.7697525
  49.1084242  12.4027431  82.3776245  77.3286003  85.3949366  20.9489398
  77.6585502  85.3346573  20.0524287  77.3703092  86.3282619  21.1572604
  64.2978543  82.6624428   6.0867362  64.7820181  82.2602282   6.8078761
  64.3668622  83.6035381   6.2473921  81.0189361  71.8579720  18.1338267
  80.7368392  71.8194161  19.0476946  80.3032559  71.4517771  17.6449065
 109.4938409 109.4901709  81.9474125 108.6513149 109.0539914  81.8204117
 109.3764054 110.0113636  82.7416420  43.5494220  71.2024782  29.8108344
  43.5370618  70.3775368  29.3255000  43.8551435  71.8496977  29.1753249
  54.4428682  10.0313854  88.3761406  54.5995426  10.9037542  88.0146790
  54.9390888  10.0185847  89.1945839 102.6230657  20.4158305   7.3658614
 102.6140416  19.6670532   7.9620986 101.7303264  20.7595157   7.3994498
  71.3964242  85.5840789   4.3992667  71.9161266  84.7802506   4.3990855
  70.7902402  85.4775344   3.6661772  19.9945545  37.5355029  71.3220549
  20.0689459  37.9986668  70.4876804  19.0873384  37.2312570  71.3470507
  67.7127189  51.9891189   1.1414103  67.9493350  52.3732255   0.2971892
  66.9714755  52.5137792   1.4439349  63.9279288  92.6284085  16.6281085
  63.2442254  92.0569979  16.9777827  63.5270399  93.0411969  15.8631758
  10.1366496  48.4884310  74.3459988   9.3943506  48.9337921  73.9374876
   9.8611301  48.3448982  75.2513790  63.2242078  64.8559634   2.7041869
  62.5459832  65.3400884   3.1752162  62.8302902  64.6569691   1.8547968
  62.1117640  78.8233852  91.9417381  61.4819717  79.2738104  91.3789654
  61.5768909  78.4227800  92.6270485  13.7181544  40.1970434  56.2092113
  13.6489213  39.2425728  56.1885071  14.5936668  40.3661871  56.5572071
  76.6829056  97.3693763   7.4485354  76.6894335  98.2809649   7.7404265
  77.1150416  96.8887244   8.1545596  60.3522819  56.7785299  18.7417845
  60.0727743  57.5390139  19.2514567  60.7398123  56.1870959  19.3869643
  35.0508571  61.9919157  85.7145500  35.7474017  62.4973011  85.2954483
  34.8536539  61.2929726  85.0909996  92.6562202  13.6435746   2.2183852
  92.4088371  14.0158033   1.3719325  93.5958851  13.8118839   2.2886233
  54.1393632  81.9286238   0.8113818  54.9591047  81.8972288   1.3046031
  54.1296357  82.8013264   0.4182772  50.5899877  92.6294099  14.0042643
  50.5117256  92.5659023  13.0523924  50.2738375  91.7856894  14.3273978
  78.6119455  86.5467606   6.4527468  77.8277177  86.5017281   5.9057669
  78.3818716  86.0566436   7.2421031  67.9268283  68.7399791   4.0256457
  68.5851354  68.0948590   4.2838816  68.4285659  69.5346568   3.8440470
  86.7467517  99.8174058  14.5545916  86.7995233  98.8846074  14.3464236
  86.8738908 100.2578936  13.7143378  70.5424356   8.4549421  61.2329912
  70.3279305   9.2533839  60.7505894  71.0557175   8.7581635  61.9818783
   2.4111694  81.1044502  64.0007496   2.0609185  81.9345188  63.6774111
   3.3590981  81.1879730  63.8973665 105.9412021  84.2171059   8.6285738
 105.6846017  85.0964223   8.9064078 106.8932408  84.2031561   8.7268309
  80.5729741 109.3028365  15.9177451  79.6239442 109.1780387  15.9190135
  80.8474463 109.0616618  16.8024592  76.3110894  83.0220424   3.1617884
  76.3902396  82.1272050   3.4922938  76.1767572  82.9184209   2.2197394
 103.7076366   0.3164386   3.3280234 103.9053071   0.8648061   4.0872626
 104.3807447   0.5438327   2.6865725  81.5548629  79.6704231  26.1525874
  82.4946231  79.5231043  26.2592368  81.4798755  80.6034814  25.9525542
  59.6233148  61.4921133   1.0501532  58.7311202  61.1786245   0.9020190
  60.1744861  60.8923559   0.5474238  81.3620442  88.7547289   0.1491980
  80.7982224  89.4031225   0.5710082  80.9582681  87.9128633   0.3600554
 107.3267978  40.4305887  69.5448542 107.4104022  39.6435523  69.0065050
 107.8268212  40.2332592  70.3368568  63.8456392  19.6448231  89.4472218
  64.1630459  20.4429221  89.0247059  64.1071844  19.7384822  90.3632164
  93.3203525  81.2210308  36.4529662  93.3412427  80.9008466  37.3547797
  92.6141137  80.7249723  36.0389761  51.0223484  76.6597843  90.1241684
  50.9759951  76.7848396  89.1763020  51.7897367  77.1637630  90.3950024
  72.5784701  76.2285839  13.3071093  71.7455524  75.8258138  13.5525851
  73.2297319  75.7793794  13.8459162 116.4998424  49.9680185  15.0297980
 116.8649376  50.2222490  14.1822676 115.5663479  49.8413419  14.8601775
  13.6348308 103.5697327  26.7501025  14.5578159 103.3358441  26.6519217
  13.1806148 103.0285703  26.1043028  32.2101855  22.6580143  94.4837189
  32.9381394  23.1248355  94.0733528  32.4900079  21.7427349  94.4975758
 110.0363463  39.6555923  19.2132144 110.0158519  39.7749458  20.1627211
 109.7008294  40.4799317  18.8608984  74.2838568  45.6488149  -0.1593156
  73.8872379  46.5165059  -0.0816007  74.6732134  45.4856311   0.6997542
  90.9593648  99.0264045  36.4508585  91.8529099  99.0771018  36.7903285
  90.4357881  99.5234118  37.0794062  96.6435594  86.3149343  19.5334296
  97.5834197  86.3415776  19.3540434  96.2683696  85.8617149  18.7784152
  99.5669812  91.3442908  15.4077105  98.6163777  91.2888943  15.3101592
  99.7034615  92.0715128  16.0149626 105.9693641  86.8216978   9.4309096
 105.3369826  87.2889410   8.8850073 105.5864448  86.8375598  10.3080420
  66.0901517  97.0106087   9.5427565  66.0080689  97.8236161  10.0412707
  67.0336288  96.8606959   9.4827036  15.9759200  19.8712599  81.2943649
  16.3587415  20.0237799  82.1583176  15.9552252  18.9183342  81.2063980
  71.6093749  93.3099018  14.8032240  70.8307022  93.5757266  15.2923350
  72.2071880  92.9718028  15.4699568  70.9464687  59.2720415   1.4894061
  70.1430863  58.7984581   1.2737040  70.8966202  59.4098626   2.4353175
  79.6587867  90.0039087  10.1764063  78.7494153  89.8331509  10.4215960
  79.6341819  90.8579860   9.7449259  89.3481082  99.9221717  15.0234179
  89.3100423  99.3164836  15.7636408  88.4580916  99.9261199  14.6711688
  67.8087157 105.7174216   3.2015948  68.4825415 105.6241666   2.5281767
  67.0253486 105.9852038   2.7211241  57.8034830   3.4136367  92.8972244
  57.3801517   4.0641895  93.4574032  58.4740591   3.9056075  92.4233818
  56.2254763  90.8055019  77.7082634  56.1426115  90.9089851  78.6562395
  57.1693850  90.7752514  77.5522327  14.5100767  21.3795423  24.2086653
  15.1864035  21.2687730  24.8769049  13.8881333  21.9948339  24.5970397
  36.2661099  54.2949152  94.9665451  36.5624094  55.2013683  94.8841953
  35.3118372  54.3492556  94.9151039  34.3960285  23.5531735  93.3341599
  35.0420475  24.2593050  93.3177280  34.8301101  22.8211761  92.8959942
  89.1368741  39.0641461  17.7073626  89.9427813  39.4015561  18.0983786
  89.4133443  38.2868610  17.2219519  72.8208274  78.2988129   3.6468081
  72.4004907  77.6865922   3.0428748  72.3172015  78.2198678   4.4569640
  58.8682795  28.3322573  77.2713900  59.0246725  29.1969848  76.8918896
  59.6651697  27.8383279  77.0784330  11.1393595  39.2859268  91.2316799
  10.6895006  39.7975326  90.5592823  11.9768894  39.0499997  90.8327866
  78.1333083  71.2474464   3.7466578  77.9710025  70.4863392   3.1893401
  77.4675626  71.1888562   4.4319205  14.4068778  65.6730436  34.1275935
  14.7216380  66.1117504  34.9179606  13.5509647  66.0672687  33.9595751
  79.1336793  77.7783142   1.8687014  78.9433545  78.3127795   1.0977606
  78.8471502  76.8977462   1.6263537  26.3581681  33.2970858  71.8562365
  26.3607764  32.9347730  72.7422142  27.1523714  33.8296223  71.8129110
  44.9913931  69.3249880  26.1401991  45.6814879  69.2100857  26.7935042
  45.4313260  69.1901646  25.3008513  88.2955283  66.6509579   5.6769614
  88.4128732  66.7509304   4.7322516  87.4734181  66.1689339   5.7665114
  98.0545747 107.0692517  75.6638670  97.4462330 106.5232020  76.1618423
  98.9148962 106.6855573  75.8337402  53.9826870  59.9232101  88.8447952
  53.0505228  59.8633766  89.0538979  54.0054703  60.1573467  87.9169559
  61.7593765  18.0418229  79.0377188  62.3318624  18.1173575  78.2743120
  62.1385288  18.6401105  79.6815586  14.1536713  41.3707447  48.5792637
  13.4832323  41.5635443  47.9238462  14.8545384  41.9964409  48.3961821
  90.5785340  95.2105771   5.7821898  90.3093356  94.2930494   5.8258776
  90.5880994  95.5010615   6.6941981  18.2434916  24.5476007  84.7407150
  18.9809823  24.9505734  84.2825127  18.6491871  24.0058041  85.4175472
  19.6194774 110.2446270  84.0759754  20.4133206 109.8238699  83.7458229
  19.8423368 110.5097785  84.9683094  10.2320433  23.8902235  85.9344578
   9.4729543  23.9086580  85.3516388  10.9864140  23.9286089  85.3465080
   0.4023367  22.7861309  74.9383068   0.6577252  23.4632993  74.3118477
   0.9604736  22.9418969  75.7001829  76.8902224 100.4159890  13.3753447
  77.3099154 100.8928023  14.0914015  75.9712809 100.3529797  13.6357455
  70.6717682  54.7475576  78.9571762  70.0792933  55.2257395  78.3770514
  70.6320000  53.8428020  78.6472225  19.4730520  42.5063944  92.6562881
  19.3860209  41.7098284  92.1327019  20.2243280  42.9618645  92.2763443
  47.0972013   9.7799200  92.4908352  47.2042990   9.2775816  93.2985592
  47.0463037   9.1174817  91.8017578  65.9905833  73.0162488  13.9790015
  65.9555739  72.1744190  13.5247664  65.7984179  73.6629604  13.2999854
  40.0155973  52.4058914  92.7806187  40.8782959  52.8072596  92.6762676
  40.0189066  52.0595551  93.6729527  43.6685991  24.9242973  77.6697302
  43.0477476  25.3175902  77.0564604  43.7127876  25.5451131  78.3969641
  43.3744753  91.3525353   0.4278330  43.6275503  92.2615014   0.2667002
  43.6169559  90.8905469  -0.3746648  97.4197310 104.4172774  11.5785841
  98.1110591 105.0483809  11.3785605  97.8876895 103.6182986  11.8212275
  52.4849230  80.0274454  28.2852988  53.2372779  79.8242651  27.7295069
  52.5953490  79.4658838  29.0525584  69.8714322  95.0051747  24.5206503
  69.0498060  95.0818692  24.0356020  69.9252409  94.0788399  24.7556929
  42.6943254  43.6376333  92.3408890  42.8870964  43.3895111  91.4367294
  41.7836046  43.3740616  92.4726105  85.0778073  77.4753938   5.2240138
  84.6522206  76.6475712   5.4472117  84.9136228  77.5841938   4.2872958
  67.1170157  90.3696810  11.7544035  67.7767462  90.8952413  11.3018851
  66.6872281  90.9847127  12.3487525  58.5677147  11.2770903  94.2869282
  58.3923626  12.1346402  94.6743488  58.3551359  11.3850808  93.3599091
  76.3484049  12.5927830  87.6261997  77.0177794  12.9570460  87.0469856
  76.4373064  11.6447377  87.5285339  57.7617711  98.7691937  21.6654448
  56.9531769  98.7666045  22.1776919  57.4918670  98.4903823  20.7904295
   2.1281398  96.2792741  34.8531489   1.8745435  95.6391202  35.5180792
   3.0416072  96.4835225  35.0533919  64.5174021  93.9705430  20.1260237
  64.4062179  93.1724129  19.6094374  64.7369188  94.6439515  19.4821600
  18.8453937  63.8620281  81.4682102  19.1978097  63.3293438  80.7552719
  18.2072628  64.4364977  81.0451126  51.4052200  25.0324368  81.4471436
  51.5877104  24.4471884  82.1822643  52.2442675  25.1169515  80.9942722
  18.4790742  30.8078957  87.6897049  18.6327481  31.1939359  86.8273926
  17.9219460  31.4425015  88.1403828  76.5947956  68.6119042  30.6946997
  76.0186643  68.0745278  31.2383227  77.1497077  69.0769850  31.3207964
  80.9035939 106.9980155   4.3806986  81.8390483 106.8357430   4.2589716
  80.7548779 107.8543578   3.9797072  53.6161143 102.7628432  13.7478594
  52.6607806 102.7784262  13.8055281  53.9041525 102.4879466  14.6183161
  18.4439815  96.4485751  18.3970217  17.9611934  97.0083724  19.0051131
  19.2560828  96.9254409  18.2257704  90.1417446   6.9561433  10.2229266
  90.9954536   7.3688554  10.0922255  90.0744653   6.8399619  11.1706690
  51.8518305  12.2431564  89.6384430  52.7710533  12.1494293  89.3884754
  51.8088627  11.8938351  90.5285835 101.8394202  85.7723628  10.7629733
 101.8336362  86.7295228  10.7695822 102.4424428  85.5316315  11.4662795
   9.8981268   1.6177320   2.9401164   9.4534809   2.1599435   2.2885565
  10.8243353   1.6713809   2.7045397  51.6096395  83.7999140  21.1099104
  50.7666403  83.3477650  21.0760550  52.2116238  83.1565939  21.4840559
  69.7409100  45.3314547  30.0527148  70.1240367  44.4588719  30.1424174
  69.6844095  45.6615637  30.9494166  89.0357036  88.2779752   5.7648997
  89.6955794  88.1697236   5.0799994  88.2072324  88.3472405   5.2904753
  89.4116038 103.0181371  19.1665701  89.5878953 102.0865784  19.2983202
  90.2774447 103.4141312  19.0678553 106.4520329  93.0846225  10.0642352
 106.0459870  92.2680531   9.7734122 107.2181434  93.1856166   9.4993357
  38.8860468  98.8032876  31.8415312  39.4731487  99.5563136  31.7744975
  39.4024399  98.1365310  32.2943072  25.4386449  12.7210128  76.6458702
  24.5529222  12.3747373  76.5371418  25.9981894  11.9447219  76.6685820
  10.9503269  35.9758162  81.3814735  11.3534045  36.2975359  80.5750942
  10.0233006  35.8787608  81.1636829  53.0941772  42.7032042  92.8640652
  52.8105974  41.7913103  92.7987480  52.3261213  43.2120562  92.6044655
  64.0868235  35.0814605  82.8259182  63.6217213  34.7607780  82.0532131
  64.1415596  34.3213582  83.4051228  61.7441195 101.2297831  52.0243124
  62.5106830 101.0356484  51.4849333  61.5236992 102.1362315  51.8098406
  34.2378933   2.0780277  15.5074934  33.4086687   2.1824455  15.9740881
  34.9019797   2.3739385  16.1301188  68.0560684   1.6270278  79.2146730
  67.4029303   1.4906242  79.9009943  67.7399063   1.1064029  78.4762812
  80.8536405  84.4719635  23.9450221  79.9899596  84.0685426  23.8582186
  80.7944602  85.2774797  23.4313349  68.9356321  97.5937901  27.3385672
  69.6598476  97.4395428  26.7319731  68.2132715  97.8822957  26.7807154
  46.0515864  11.4148235  21.2792353  46.0576708  10.5083703  20.9717612
  46.0657675  11.9393873  20.4787020  84.2135435  55.7108831  76.7533588
  84.7467285  55.1942396  77.3575354  83.9785820  55.0977039  76.0569143
 109.5639295  67.2709130   1.1320261 109.7482842  67.3071240   2.0706133
 109.7770804  68.1475137   0.8120780 111.4688319  60.3473358  50.3673033
 110.8108348  60.8418374  50.8559184 112.2125930  60.2815775  50.9662394
  40.4651880  53.7601995  70.6873751  41.2612438  53.2783318  70.9117270
  39.8596120  53.5690022  71.4035845  87.2650498  82.3570500  25.0860171
  87.9270381  83.0228935  24.8998694  86.9987697  82.0365558  24.2242770
  44.8546076  27.8749275  93.2310772  45.1573706  28.2412863  92.4002075
  43.9072561  28.0115843  93.2220554  19.0193903  65.0638247  75.6153345
  19.1986752  66.0017109  75.6821060  18.6846530  64.8218918  76.4788437
  35.9014559  38.4833503  86.6586208  35.3491330  37.8498268  86.2005615
  35.5176306  39.3339396  86.4455223  59.2898130  22.2412562  83.1128407
  59.1664314  21.6434741  83.8501740  59.8517370  22.9348969  83.4582996
  47.9230923 101.5380250  14.5273070  47.2554523 102.1486293  14.8397975
  48.5534102 102.0891581  14.0634303  36.6690063  47.0629597  86.3068485
  36.4713311  46.5218735  85.5423927  36.1481357  46.6798162  87.0126343
  11.0301793  53.8912630  79.1050053  11.9196963  54.1130590  78.8296890
  11.0845780  53.8226271  80.0581932  62.3171562  74.6080659  19.0242724
  62.6688451  74.3894683  18.1612734  62.0005268  75.5067812  18.9332442
  82.6425427  73.4361480   2.3497824  81.7127770  73.5521041   2.5455336
  83.0214805  73.1156812   3.1682829  47.7460861  58.2784176  85.3150082
  47.7434492  57.4206400  84.8902225  46.8632889  58.3710051  85.6732273
  59.3422312  93.2852493   7.0546393  60.1863331  93.7231718   6.9453291
  58.7002558  93.9950596   7.0382552  69.6343440 106.3768683  21.4765887
  68.8735289 106.4911233  20.9070830  69.5861548 105.4639779  21.7603926
  87.8299254 108.0534182   4.6689085  88.5607976 108.1465588   4.0578608
  88.2072848 108.2524024   5.5257849  51.4969110  62.8604984  92.6034641
  50.8993959  62.4022198  93.1943893  52.2633696  62.2898054  92.5479126
  72.5596804  96.8235932  13.2363753  73.0148453  96.2804328  13.8798289
  72.1844477  97.5391875  13.7495570  27.6274061  31.6663861  87.1712208
  28.3746362  31.7416024  87.7647018  26.8676376  31.8738604  87.7152252
  80.0302142  86.9884263  19.3438773  79.2875785  86.4765774  19.0233664
  80.4626483  87.3054348  18.5509543  80.7558030  76.3001262   6.9203715
  81.0754746  75.5880199   6.3663439  79.8278111  76.1045800   7.0500712
  65.4122871  68.7749027   1.9929652  66.2926358  68.6264609   2.3381857
  64.8423308  68.7236665   2.7602629  61.8036455  97.0988618  14.8949675
  61.2011999  96.7082415  14.2619566  62.6033205  97.2626124  14.3950228
  12.0094425   7.1363115  51.5253787  11.9097883   7.5384521  52.3882632
  11.4144070   7.6298618  50.9609560  62.7491516  73.6866580   0.7445483
  62.9248089  73.2341097  -0.0804182  63.5550136  73.5834275   1.2506728
  48.3890581  32.6615119  92.5540543  48.4426022  33.1947207  91.7609215
  47.6125240  32.1170163  92.4246311  95.6357736 104.7984563  31.3815455
  95.4498261 104.4595681  30.5058722  95.5564135 104.0362845  31.9551615
  70.9571594  82.0221268  36.2907080  71.5323013  81.8196760  37.0285754
  70.0847572  82.0901738  36.6786723  56.5923220  71.1670028  21.4452986
  56.3630289  70.8822690  22.3299365  57.0260185  72.0111166  21.5702490
 111.7374068  24.9728703  69.8969316 110.8422565  25.3078699  69.9490070
 111.9867947  25.0972486  68.9811945  71.5808863  78.9218102  26.5541415
  71.8071836  77.9973183  26.6558032  70.8249015  79.0478025  27.1275954
  33.9481926  58.1338406  83.9995956  34.3297720  57.8544331  84.8318005
  34.5678234  58.7775040  83.6561012  93.9265937  59.7616450  19.7502951
  93.0274505  60.0898905  19.7445063  94.4573564  60.5213188  19.9899153
  61.3649940  41.1359596  92.3598099  61.6137218  42.0177794  92.6368713
  60.9178925  40.7633209  93.1197262  11.2013721  45.2291727  69.0253639
  11.6172278  44.3820381  69.1855526  11.1136055  45.6210232  69.8942614
  13.9912350   4.2436313  39.9178652  13.8135368   3.5139512  39.3243842
  14.6013052   3.8850164  40.5624156  22.5380111  10.5660319  85.2349472
  21.5954065  10.6516254  85.0921059  22.6155686  10.2348173  86.1296654
  97.0036906  62.0515112  17.5939230  97.2809714  61.3603876  18.1953387
  97.8088159  62.3223112  17.1527056 103.2452792 106.6663562  19.8971705
 104.0600509 107.1687280  19.8961215 103.5218972 105.7610617  19.7552256
  34.3516350  49.9350595  88.1852818  34.0948963  49.2665863  87.5500965
  35.2951479  49.8141766  88.2920647 110.1260537  92.0635687  22.2673468
 109.2939013  92.5363622  22.2824244 110.3330535  91.9135867  23.1897883
  37.0303059  28.2193184  91.8304348  36.3141251  27.6135397  91.6397762
  37.2184682  28.6394525  90.9912014  30.4714186   3.9994430   4.8532061
  30.8219845   3.4097814   5.5207686  30.6806214   3.5722493   4.0225653
  92.6993197 110.1601754  66.5082316  92.0903272 110.6632624  67.0488505
  93.0208177 109.4701157  67.0884852  47.8115273   9.0027273  53.5063171
  47.8293705   8.2840544  52.8743172  47.4536085   8.6118817  54.3034124
  24.9000168  69.0317965  84.1318130  24.3998122  68.2377768  83.9432430
  25.7790589  68.8450432  83.8022137  88.8132590  74.5172976  39.4996409
  88.3263463  75.3409420  39.4720606  88.3662862  73.9535747  38.8682417
  84.3461818  96.9779788  10.4902224  83.7051219  96.9425975   9.7802882
  85.0087804  97.5971852  10.1839880  89.8598600   1.6899728  24.7406058
  89.6039343   2.0719003  23.9010481  90.4205573   0.9504079  24.5063262
  46.4141417  15.7720053  86.7787457  46.6898537  16.3463080  86.0643291
  47.1015453  15.1079500  86.8311214  80.0446910  91.5638886  35.8250479
  79.7575110  91.3480101  36.7122607  79.6818274  92.4343167  35.6609778
  38.3749557  25.7819533  90.8707523  38.2979488  26.7343235  90.9281349
  37.9771185  25.5597830  90.0289631  54.8118544  12.0027471  95.0038052
  54.9197292  12.5025892  94.1946411  54.5988560  11.1165667  94.7113228
  64.7119874  57.2590774  10.4069952  65.2969808  56.6100760  10.0160841
  63.8894099  57.1595535   9.9277358  62.7464294  35.7116413  90.0805664
  62.8677893  35.9137177  91.0082912  62.4685049  34.7957468  90.0693035
  58.8544178  62.4745941  95.2946186  59.5881939  62.8785467  95.7578945
  59.0753794  62.5683784  94.3680000  42.4982834  66.3458681  50.7019854
  42.1912050  67.0506048  51.2723207  42.7763605  66.7899895  49.9009466
  97.0858848   3.6353492  15.9277491  97.5001288   2.8129672  16.1891322
  97.0311654   3.5832786  14.9735407  15.9319669 107.1713843  79.4666338
  16.7429143 106.6630237  79.4795990  15.2393323 106.5203243  79.5789194
  45.2666378  51.8700027  92.1470451  46.0502911  51.7741632  91.6058064
  45.5271006  51.5385914  93.0064392  67.0564556  57.6123619  76.8850040
  66.1618328  57.6709414  77.2203445  67.0141745  58.0158854  76.0180473
  37.2662909  25.7425260  27.3846869  37.2925932  24.9207162  26.8946127
  38.0416233  26.2211751  27.0914511  96.0934609  69.2593036  16.7345671
  96.8547553  69.5472155  17.2383170  96.4612645  68.9130901  15.9214930
   3.4209026  56.2707575  31.5846495   3.7447036  57.1481462  31.7885451
   2.9830135  56.3675772  30.7390074  75.3493470  72.4650656  29.4998126
  76.2169284  72.8381251  29.6559004  74.9432200  72.4326120  30.3659777
  40.4501724  30.4886889  87.1719837  40.5194092  31.2030363  86.5386200
  39.8323607  29.8751211  86.7743969  11.8140186  79.4166122   4.4353632
  11.0148586  79.0037308   4.1080908  12.5226176  78.8717924   4.0928988
  58.8627607  46.0478978  15.8012347  58.1766838  45.5405007  16.2349085
  58.3983582  46.7782746  15.3924326  98.8892526  93.5147105  18.4383158
  98.8374204  94.3175064  18.9570288  98.9057177  93.8169370  17.5302367
  65.4068798  78.9313494  21.3651614  65.2822679  79.2172824  22.2701220
  66.3431639  78.7432538  21.3001780  92.7093285  77.7749954   0.1433711
  91.8537873  77.4368034  -0.1210256  92.5161427  78.6129723   0.5637316
  89.8363179  91.8342291  22.5560431  88.9883536  92.0951615  22.1967368
  90.0955600  92.5671135  23.1145243  26.3548660  33.5626817  80.5153179
  27.1590543  34.0747046  80.6010151  25.9994388  33.8157582  79.6633482
  74.1863889  95.6275569  14.9932246  73.6827296  95.3964291  15.7737021
  74.7859162  94.8918615  14.8685030  91.3361472  89.7055517  12.7763419
  91.0575408  90.3709040  12.1471171  91.9010085  90.1767360  13.3888297
  68.0520195 107.9769955   4.8922114  67.8371662 107.2574912   4.2985873
  67.2303862 108.1675874   5.3447871  65.8731604  53.6275578  87.3308277
  66.4630699  54.3541384  87.1300411  66.3030624  53.1610727  88.0476284
  70.1563448  68.2413684  35.6692652  70.0092739  67.3723481  35.2958922
  69.5327896  68.8066159  35.2133040  50.9556913  38.3729005  83.9749908
  50.1582098  38.0700755  83.5407639  51.6676617  38.0239820  83.4387207
  66.0310698 104.2993927  87.9969883  65.8123970 105.1716995  88.3248425
  65.8995867 103.7211895  88.7484074  33.9806491 102.5103526  72.5124741
  34.2410928 102.5131493  73.4335566  34.7084504 102.0849513  72.0590687
  84.6730507   4.5979785   1.6008334  84.5445049   3.7693595   1.1392073
  85.1410431   5.1507234   0.9749751  19.7963268  12.2298621   2.3881773
  20.4409535  11.5455817   2.5683074  18.9892227  11.7533969   2.1937613
  69.0363884  28.1556726  84.0108395  69.0635490  28.0174994  84.9576283
  69.1359186  29.1016579  83.9038944  60.8211946  37.6331139  92.5251389
  60.1927662  37.5983572  93.2463169  60.5102825  36.9740009  91.9045448
  66.4727420  88.3105145  35.8607535  66.8602914  89.1657029  36.0470061
  66.9044298  87.7136718  36.4720206  66.7371941  26.9221759  89.9341488
  66.8703270  26.4321637  90.7455635  67.3475218  26.5260172  89.3122196
  71.4250201  80.5311046   1.4792876  71.3545054  80.4872952   0.5256991
  70.7939285  79.8848806   1.7960696  52.4297220  61.8280594  17.0728640
  53.1950134  62.3961447  17.1614127  52.3287040  61.7077456  16.1286501
  84.0719861  82.2707616  16.7552619  84.5168275  82.7909408  16.0861067
  84.3391246  81.3694773  16.5748267 101.9624871  93.2188855   3.6937384
 101.0675067  93.0634938   3.9955477 101.9571656  94.1248380   3.3847765
  29.5223022  54.3910503  88.2534218  29.4780135  53.6341190  87.6691818
  30.3068209  54.8632717  87.9745483  62.4208969  92.4101244  36.3471560
  61.5841764  92.6867424  36.7208056  62.6297015  93.0851589  35.7014327
   3.6147433  97.4705493  73.8936043   4.1534501  96.7204212  74.1452599
   4.0281087  98.2179939  74.3256760  56.8437004  54.7573090  81.9944096
  56.1822891  54.3243122  82.5341129  56.6891241  55.6921339  82.1301842
  66.4030409  69.1620541  94.2091465  67.2557068  68.9811993  94.6047211
  66.4909029  70.0418425  93.8424301  30.8866000  87.4403000  83.0143642
  31.6934609  87.0290470  82.7043819  30.5520725  86.8395233  83.6802387
  98.9015168  93.8193188   2.5040202  98.0937642  93.5815869   2.0487742
  98.7155694  94.6749483   2.8907446  59.2081070  73.0944300  93.9842606
  59.6997118  72.4979162  94.5488167  59.3679142  72.7712536  93.0975437
  62.8180736  89.8869119  13.2150034  61.9314259  89.7126137  13.5307650
  62.7177900  90.0000320  12.2698168  72.0282978 103.7491523   7.1512465
  72.6625580 103.6498700   6.4412455  71.2342233 104.0656291   6.7205195
   0.4309804   8.5880660  19.2640261   0.2016146   8.4384965  18.3468298
  -0.4104202   8.7034034  19.7055869   8.5594446   2.6489448  16.6463809
   7.7068646   2.2200298  16.5730624   9.1832525   1.9283437  16.7348628
   4.7635491   6.8450259  17.4093108   3.8303263   6.8717527  17.1981005
   5.0647766   6.0072135  17.0578055 108.8623607   8.5144281  16.2569956
 108.5580814   9.1158914  16.9366126 108.0656779   8.2499980  15.7969908
 107.5229949  79.2722617  14.4036917 107.0267934  79.4628917  15.1997332
 108.0823106  80.0392423  14.2806677  24.4395096   9.4746732   2.0536284
  25.2159340   9.8881482   2.4310355  24.4555838   8.5799312   2.3933367
  34.7053647  32.1057606  86.6182613  33.9677334  31.6794014  86.1819649
  34.5898676  31.8951464  87.5448322  50.2254946   0.9258079   4.5342021
  51.0489638   1.3632392   4.7505049  49.6910746   1.6084146   4.1284041
  11.8540729 100.0154839  53.0954413  12.2385085  99.6825085  52.2845416
  12.5900520 100.4058848  53.5667758  71.7892981  38.0624843  88.9066696
  72.5488710  37.7160120  88.4384441  71.0589886  37.9438329  88.2993793
   0.6584484  25.2701139  16.9662718   0.2285225  24.7457456  16.2906699
   0.3215677  24.9206209  17.7912573  24.5475221  22.4122477  61.9567585
  25.3385997  22.6313329  61.4643860  24.8631454  21.9014025  62.7021790
  44.3784792   7.0944452  48.1795935  45.0088198   7.4950456  47.5809054
  44.8693449   6.3954210  48.6116175   0.4036004  13.6591291  -0.2282091
  -0.5194538  13.8439178  -0.0548501   0.8734567  14.1033458   0.4775767
   3.8767559   3.1856679  30.6371169   3.5472757   4.0279531  30.3237013
   3.5024960   2.5428914  30.0346236  55.5079269  15.3533566  83.9824390
  55.7539654  14.4600177  83.7423420  56.2531424  15.6796706  84.4868183
   6.4449865  13.5539674  34.9082617   6.6415198  14.1034126  35.6670241
   6.0777123  14.1585588  34.2634253   7.3038257  88.8468562  14.6962027
   7.7756751  88.0433093  14.4773249   6.9326175  89.1407953  13.8643126
  30.1585258  88.7009297  12.2958807  30.4175819  89.2310677  11.5421729
  29.2295039  88.8963400  12.4181895  12.9238236  26.1263371  78.6848640
  12.0505154  26.4157534  78.4206629  12.7675700  25.3397536  79.2074585
  92.5568456 102.8648673  10.2112441  92.6085776 103.3377133  11.0418944
  93.3347243 103.1436358   9.7281031  51.9527960  69.4746971  83.0241966
  51.4238834  70.2078247  83.3388519  52.3857975  69.8111153  82.2396183
 106.3662923  12.5224494  47.6062159 107.2231973  12.8838348  47.8328185
 106.0880483  13.0270671  46.8419032  64.9348879  81.2285995  89.6616364
  65.5429935  81.3737583  90.3864574  65.4110622  80.6556988  89.0605736
  91.2066144  88.2668958   8.2963995  90.3666562  88.1218253   8.7319045
  90.9806270  88.7241660   7.4864249  23.4501314  24.8269367  61.7119217
  23.9029241  25.1614761  60.9377766  23.6514115  23.8911867  61.7214203
  67.3892397 103.9264594   5.3529505  67.8975481 104.1084491   6.1433558
  67.5954956 104.6516953   4.7632746  30.1107502  79.6306133  70.9226513
  30.7365179  79.9132109  71.5895700  30.2126718  78.6795521  70.8862543
  70.6473446  63.3158159  85.7202816  69.7779655  63.5581493  85.4013920
  70.8012295  62.4437237  85.3569603  19.5615132  31.5192651   1.8457560
  19.2040856  30.6571721   1.6329531  19.6498520  31.5133046   2.7988486
  79.1270703  94.6794282  22.8491263  79.8503894  94.1537081  23.1906847
  78.8045663  95.1650439  23.6083369 114.8342198  75.6401597  34.3860774
 114.3985909  76.4375649  34.0850691 115.6338853  75.5917702  33.8622145
  63.6010933  45.9687853  93.8504887  64.4211721  46.0689354  93.3670902
  62.9355049  45.8550978  93.1720352  59.7796148  98.4146605  23.3146815
  59.1754502  98.4925376  22.5763373  59.5018119  97.6190291  23.7685828
   7.0588715   4.7566127  30.8204894   7.3184569   3.8768482  30.5468707
   6.1166556   4.7905874  30.6552367  75.5434388  94.0580188   9.7312979
  75.1012868  93.2712160  10.0501685  76.4106745  94.0257154  10.1351504
  42.9165554  71.9018698  76.4839315  42.4341869  71.7467833  77.2960234
  42.2382975  71.9722652  75.8121872   3.5085756   1.3537025  17.9814200
   2.6306708   0.9879875  18.0898909   3.3610327   2.2836017  17.8089194
 106.8366259  83.7189351  25.7350783 107.3622340  83.2083069  25.1192622
 106.2133330  83.0893169  26.0974555  36.1537933  55.3813171  74.1136789
  35.9988141  55.6898069  75.0064564  35.6525660  55.9821177  73.5622787
  28.5801680  19.4212770   5.3332381  28.8355047  19.2458581   6.2389235
  27.8674204  18.8057756   5.1618342   3.1262267  77.2916113  19.9227290
   3.2004131  78.2273255  20.1102690   4.0068019  77.0308696  19.6528677
  98.8886756  69.1957162  21.6726641  98.8384074  69.7138201  22.4759535
  99.8225421  69.0183316  21.5601019  95.6109405   3.5222291  21.4596800
  96.3907862   2.9711198  21.5256743  95.4068530   3.7578153  22.3647074
  60.0667757  97.9541646   4.3173842  59.7565812  97.2549926   3.7419085
  61.0136360  97.8223716   4.3655161  47.9777605   8.8088130   0.8912138
  48.4345896   8.4841346   0.1152472  47.5353415   9.6037435   0.5935912
  14.7170527  25.5704259  20.0147967  15.3077776  25.8139085  19.3020587
  14.5390541  24.6409177  19.8714022  86.6083926  53.5273366  31.1864237
  86.0527438  54.2971209  31.0642771  86.3293570  53.1612779  32.0256953
  36.8478346  68.0159283  83.6615086  37.3470068  67.8277731  84.4562721
  35.9915853  68.3029842  83.9787960  87.4840182  74.0965627   1.2867598
  86.9087857  74.3877409   0.5792670  87.4881572  73.1420933   1.2146143
  28.1465507  49.2000341  85.4508400  27.4370933  48.6498594  85.7828140
  28.9395285  48.6859369  85.6028938  95.7115716  87.1939240   0.2581458
  95.2125234  87.0724641   1.0658698  95.3937835  86.5051041  -0.3256174
  82.7049655  87.3181759   3.5306220  83.4374303  87.9243670   3.4199194
  83.0884189  86.4517747   3.3944468  42.0094442  32.9856348  91.9271660
  41.7265940  32.0751309  91.8422699  41.9187021  33.1786084  92.8603077
  82.3998946 104.6351109   8.5451560  81.7073172 104.3725787   7.9388194
  83.1885785 104.6768008   8.0043559  62.8354788  56.8485165  95.4290485
  63.7817764  56.9441795  95.5367470  62.5146866  57.7441549  95.3234100
  11.4295352 102.3898993  10.2880053  12.3845351 102.4518119  10.3074030
  11.1297668 103.2980214  10.3290705  51.7217350  55.1391697  84.0760612
  52.4138498  55.7480526  84.3338680  52.1254015  54.2740917  84.1462135
  85.8772576   4.5171975  25.8581500  86.1689347   5.3528070  26.2227206
  85.7184804   4.7021102  24.9324946  84.1994256  87.8838979  11.6908888
  84.6318692  88.6866198  11.3995795  83.2720822  88.0300723  11.5040736
  51.5059060  87.2589145  14.7166495  50.7885760  87.3808513  15.3385882
  52.2987980  87.3380791  15.2470164  66.7086649  45.7331228  81.8136406
  67.3089647  46.4585447  81.6414833  67.2383833  45.0908184  82.2859383
  37.7824283  61.5353251  32.6810837  38.5082912  61.1265993  32.2096014
  37.1344161  61.7273235  32.0032573  78.0092615  93.0423580  -0.0287672
  77.0761007  92.8322635  -0.0648160  78.0931181  93.6326037   0.7201056
   3.5441173 106.1366235   9.5988707   3.2353461 106.9887982   9.2911391
   3.6716331 106.2537490  10.5402808  86.9173688  96.3858376   7.7931742
  87.6043910  96.7688666   7.2477202  86.3672465  97.1285497   8.0421309
  47.4502438 101.9353972  10.8455805  46.8096149 101.3365422  10.4619174
  46.9487286 102.4491368  11.4786582  83.4481907  33.9757133  95.4918003
  84.0190887  33.2405424  95.2685642  83.9476681  34.7521687  95.2390862
 101.7383975  88.1544886   8.6951212 102.4839562  87.8434144   8.1816916
 101.8761796  89.0987883   8.7696032  79.4845551  83.1870948   2.4948363
  79.9955815  83.5102735   3.2368903  78.6145562  83.5661588   2.6199393
  60.9496260  28.2012606  84.9320316  61.4666367  27.9558182  84.1647625
  61.5137815  27.9944515  85.6771374 107.6786775  87.5496827   5.9912161
 108.4239596  87.2378789   5.4778342 107.8475827  87.2296248   6.8773703
 110.9316433  23.6351537  12.9430251 110.2222360  23.0029582  12.8276782
 111.4117539  23.3193874  13.7085394  59.4777203  53.1893730  84.9734116
  58.8128233  53.1246138  85.6589413  59.8620272  52.3138332  84.9290180
  85.9634113  58.2812214  78.2040262  86.0913277  58.7058163  77.3557425
  85.6617832  57.3990345  77.9872417  18.2355625   1.4303445  17.5504641
  18.5311348   2.2642040  17.9159121  18.6804850   1.3681173  16.7052416
 108.7299794 106.8675242   9.2711119 109.5749778 106.8366395   8.8224940
 108.7235373 106.0860453   9.8238139  11.9582248  34.4625306  92.3882866
  12.3246741  34.0093398  93.1476021  11.0403323  34.6090961  92.6168060
  77.4278927  80.4831219  91.0037613  77.3081017  81.3898468  91.2861252
  76.6382504  80.2824116  90.5013466  10.3103412  74.3347071  19.4367270
  10.1710571  74.4647764  20.3747611  11.1559928  73.8899158  19.3795638
  22.5579453  81.9776630  70.7029486  23.1028509  82.7644920  70.6886911
  21.7357945  82.2628784  71.1016369  81.1924237  77.0412432   3.5986094
  80.4193658  77.0951305   3.0367331  81.6941136  77.8298221   3.3920149
  84.8587293 104.8944722  17.7466540  85.7380361 104.8722897  17.3690848
  84.3844623 104.1995297  17.2901968  39.9769163  40.9728575  88.6045361
  40.5282450  40.3433990  89.0693474  40.2221870  40.8726835  87.6847267
  68.2880306  40.3717661  92.3491573  67.4445391  40.0635719  92.0178413
  68.9110804  40.1565933  91.6550827  41.9065475  47.9964256  85.8435345
  42.7314949  47.5815725  85.5913639  42.1697378  48.8025951  86.2874413
  42.1641445  75.4096556  75.7669163  42.4603176  75.6626987  74.8925686
  41.6737127  74.5993757  75.6284904 106.2554610   0.8240413   2.3460822
 106.7938531   0.0765180   2.0861296 106.6196573   1.1006212   3.1869750
  49.3163252  43.2339764  92.4327374  48.6831665  43.0362988  91.7426109
  48.8299417  43.7725639  93.0568981   2.2596709  65.2864122  74.6846533
   2.5217500  64.3683004  74.6166992   2.5393736  65.6772327  73.8568497
 103.9380586   7.1970748  13.9367632 103.8210619   7.6077651  13.0800967
 103.0491746   6.9955062  14.2291407   2.5322307  70.5273746   7.4435477
   3.1450904  71.1418770   7.0397810   2.6677383  70.6375240   8.3846812
  47.0289087  26.8367338  94.6722317  47.3374462  25.9372020  94.5632553
  46.2182474  26.8750310  94.1646862  83.4194487 104.5624171  33.9452223
  83.6623353 105.1318370  34.6752886  82.6466102 104.9787341  33.5636000
  20.7451756  16.2800311  20.8132319  20.5374939  16.2281179  21.7461829
  21.6661913  16.0251807  20.7583384  53.4194487  88.1300412  27.2734122
  54.1723031  88.6780463  27.0517497  52.7219635  88.7527619  27.4782710
  99.3545121  86.9792472  18.4240965  99.7587842  87.5443731  17.7657370
  99.6130866  87.3641358  19.2614893  13.5745794   6.4743041   0.4347662
  12.6615698   6.2021350   0.3422503  13.7327940   6.4650106   1.3787608
 103.2747954 104.8875390  24.1940836 102.8239030 104.3210564  23.5679678
 103.2789964 104.3870698  25.0100188  38.0625176  44.9342966  94.6499443
  38.9938641  44.8392820  94.4504452  38.0054927  45.7526636  95.1431465
  32.1765596 104.5225154  11.7299513  32.0619279 105.2819024  12.3012881
  32.7611697 104.8300515  11.0372214  45.1137352  58.5502052  85.7395458
  44.4546556  59.2103481  85.5249405  44.6648216  57.7140903  85.6145763
  29.7326136  90.6893444  79.3040800  30.0834298  91.4535141  79.7614717
  30.0499582  89.9410534  79.8096275 111.4085215  93.6083589  13.3538680
 110.8599252  93.2288204  14.0403227 112.1515149  93.0091248  13.2823519
 114.4984234   4.4986438  18.3299021 113.6603177   4.1055536  18.5734038
 115.1003874   4.2278098  19.0230994 101.2991274   9.0201425   5.5037550
 101.6265953   9.1897249   4.6204428 101.9507921   9.4177532   6.0812239
  42.5215912  68.2171631  46.9003487  43.2639503  67.6517677  47.1135521
  42.7388000  69.0589190  47.3009682  72.3227781 105.0009404   0.4019217
  73.1877345 104.6582280   0.1769118  72.1956414 105.7397662  -0.1932283
  36.3431866  17.2211360   8.9579253  35.4455359  17.2318696   8.6257605
  36.8778641  17.4930286   8.2119898  36.6655898  51.2792158  76.0608673
  35.7635546  51.5808964  76.1683702  36.6030717  50.5537415  75.4395723
  71.3867378  39.8453164  91.0604477  70.6782770  39.2776608  91.3638973
  71.6025257  39.5138979  90.1887608   9.4532997  14.9251842   6.1330561
   9.0464909  15.7916164   6.1388449   9.2370684  14.5533418   6.9881682
 106.9108647  98.4896289  10.0417952 106.0020369  98.2303868  10.1936392
 107.3265475  97.7060233   9.6820693  50.5468184 109.4198523   8.8357214
  50.1099450 109.2135821   8.0093913  49.9970871 110.0937520   9.2355876
  48.5040457   7.0921182  17.4535899  49.2428858   6.8298244  16.9044547
  48.1198675   6.2665033  17.7485423  74.8356152  56.7668438  65.1442242
  75.7144547  56.7915154  65.5227280  74.2750216  56.4667511  65.8597088
  69.1947144  98.9841328  36.0721354  70.0736898  98.7916146  35.7456927
  69.1835398  98.6217795  36.9580321 114.8287808  46.9853687  92.0685196
 115.7456743  46.7262697  92.1601963 114.4293212  46.2776613  91.5627384
 116.8599659  58.1014633  82.3333073 115.9939180  58.4281778  82.5771332
 117.3930845  58.8897657  82.2303581  11.3944895  31.7275380  11.1482863
  11.5323050  32.2742891  11.9217925  12.2751696  31.4647626  10.8807234
  39.3737078  14.4995892  91.5689182  38.9687872  13.6362243  91.4860153
  39.1976023  14.7609389  92.4727535  38.2628637 102.0165072  19.2014460
  37.4666716 101.4895068  19.1337351  38.4192606 102.3297177  18.3105616
  95.3447914  14.2454576   1.7818026  95.7485545  13.9321994   0.9724383
  96.0548210  14.2341518   2.4236445  60.2968168  85.8676815  90.8981514
  60.1613283  85.6263733  91.8144703  61.2481356  85.8977509  90.7965374
 104.5936078 104.0888558  20.2900080 104.8735494 104.7707234  20.9006838
 105.3775329 103.5583840  20.1475386  35.4682779  21.0491991  88.4078598
  34.8963857  21.7906690  88.2093811  34.9208570  20.2781010  88.2596397
  31.0446245   8.1284236  11.2337355  31.8499357   7.9910611  10.7348971
  30.6078703   7.2767448  11.2227587  33.4243042   6.4825820  17.8826575
  32.8228361   6.7727565  17.1968989  34.2903597   6.5311002  17.4778990
  70.0516844  77.3686314  78.6900568  69.1182184  77.4836540  78.8679504
  70.2994490  76.5974283  79.2000484  36.2378246  14.6721839   6.1591486
  35.9304602  14.6361875   7.0649485  37.1525318  14.3939590   6.2053828
  56.0731459 108.3783913  89.0716934  56.0140419 109.2159748  89.5312595
  56.1608458 107.7283573  89.7688293  43.3121061  38.2621741  84.4215679
  43.6331177  37.7851987  85.1868629  42.3795795  38.3920336  84.5940876
  77.6979917 110.1468430  15.9685664  76.7905921 109.8423539  15.9805636
  77.8138775 110.5200110  15.0947527  91.1581439 107.6075421   3.9292578
  91.1304826 107.5268708   4.8826460  91.9352931 108.1389151   3.7562899
  75.8385611  22.2497511  72.5228405  76.2298822  21.4191651  72.2522402
  75.6671858  22.7122879  71.7025232  12.3652393  27.8891992   6.2138896
  11.9559891  28.5058831   6.8208842  12.3707945  28.3479928   5.3738265
  50.1676559  49.6186066  90.7283211  50.6580114  48.8524342  91.0262489
  50.0183821  50.1312304  91.5227795  27.9329188   9.3202543   6.3384490
  27.7866871   9.8598289   7.1154360  28.0081637   8.4281253   6.6770892
  47.6716232  55.9275723  83.6142540  47.0335150  55.2318907  83.7726021
  48.2815123  55.5530357  82.9786587  46.8562126   6.8272907  94.6742344
  46.6846609   6.1791348  95.3573799  47.5758553   6.4540756  94.1652584
  94.2245501  88.2649527  45.6279616  94.7973079  87.5529371  45.9129481
  93.8306683  88.5935579  46.4361147  95.1954144  74.3269537  26.6170172
  96.1209124  74.0967081  26.5352969  95.1946467  75.1406656  27.1211009
 103.2465947  35.5238961   8.9866309 102.8882492  36.2912416   8.5405402
 104.1307342  35.7867383   9.2424540  80.7527637  76.4481974  84.9111652
  80.8019829  76.7828226  84.0157127  80.2633095  77.1169281  85.3901863
  82.0782280  64.3271208  87.3465919  82.2633839  65.1323557  86.8633270
  81.1256218  64.3173218  87.4396896  15.7262833  23.0219268   2.4710040
  16.6492159  22.7705716   2.5062613  15.5812914  23.2737064   1.5589671
 115.3439963  48.8955068  29.5094351 114.9598468  49.7422265  29.2819838
 115.5174649  48.4769487  28.6662535  56.0983610  73.1489992  91.7829037
  55.6332827  73.9856195  91.7812824  57.0044470  73.3782625  91.5763187
  64.2427349  71.6656065  91.9395447  65.0368071  71.4708519  92.4372959
  64.5136738  72.3310471  91.3070869 111.9405830  12.6819848  23.4088473
 112.8901232  12.5637531  23.3838706 111.7824161  13.4628772  22.8783564
  38.2904799  24.1279840   3.2919364  39.1424734  23.8273286   2.9758029
  38.4989864  24.8095178   3.9308981   4.1854794  17.3782491  21.1301093
   3.5416109  17.8922605  21.6174082   4.8505861  18.0144929  20.8673243
  96.9261044  78.1527768  29.4213442  96.1561030  77.7684532  29.0022616
  97.6356954  78.0108414  28.7947897  55.7580168   9.7373676  27.1905760
  55.9652407   9.3213891  26.3537650  56.6109354   9.9329185  27.5785498
  34.5983291  68.9958048  84.9940586  34.4144940  69.8236561  84.5500946
  33.7411261  68.6843395  85.2846146  74.9309683  47.2542524  89.4523621
  74.1180182  47.5267172  89.0267944  74.8539495  47.5823450  90.3482723
  26.1027050  68.8650799  77.8697443  25.3447199  68.2829428  77.9226732
  25.7430172  69.7000027  77.5701475  66.1286825  67.9973446  15.8610205
  65.7688755  68.8705455  16.0168700  66.4083857  68.0134104  14.9457411
   1.0321391  94.4196473  17.3647265   1.8118919  94.4994126  16.8153147
   1.3105310  93.8700734  18.0973296  51.3953161  64.5268583  78.9007998
  50.5452681  64.1937876  79.1884041  51.9898510  64.3206501  79.6220732
  25.2944548  44.0661382  24.0981249  25.1208574  44.7102021  23.4116320
  26.0153992  43.5384034  23.7546496  76.9874805  89.4982301  10.7087187
  76.6372079  89.9708186  11.4638381  76.2328261  89.3731914  10.1333098
  60.4177856  25.9022641  80.2580261  60.0717306  26.7035937  80.6508923
  61.0896301  26.2056518  79.6474409  44.5734692   6.2682492  80.0941753
  44.2896223   7.1433467  79.8298502  43.9921570   5.6742764  79.6193027
  20.1427531  36.9571996  82.7875614  19.8130631  37.3047757  83.6162472
  21.0727215  36.7970872  82.9480457  97.2235269  74.8806797  13.2255702
  96.4530581  74.4392489  13.5829978  97.8720683  74.1843150  13.1221060
 114.2355621   6.3539552  21.3214449 113.4045542   5.8887958  21.2251048
 114.8840034   5.6617212  21.4501719  52.9930037  73.2989798   0.6451182
  53.5665399  74.0356837   0.4340415  53.1201166  73.1576155   1.5832476
  67.6817591  12.9685449  21.3228373  67.6294310  13.4591388  22.1430926
  68.5959036  13.0522441  21.0515933  92.6950759  94.1540705  14.7919707
  92.1700972  93.3685146  14.9453692  92.0544499  94.8630677  14.7357802
  54.6845102  73.2817030  87.6188087  54.3696451  72.4240208  87.9042339
  53.9097595  73.8430834  87.6478291  48.6440134  48.1085634  78.5732317
  48.5688543  48.3831644  77.6593542  48.4565735  47.1700287  78.5575008
  91.2088269  74.4675694   2.9114203  92.0052880  74.5774649   2.3919920
  90.7060594  75.2661072   2.7508215  36.3103289 108.5557566   5.9328799
  35.7868877 108.4692584   5.1361613  36.4267588 109.4995986   6.0416655
 106.9407386  96.4669524  25.8933882 106.9589776  97.4212180  25.9660105
 107.4317283  96.1593352  26.6553168  44.6195936  52.9905844  88.9784050
  45.3431988  53.4385586  89.4165230  43.8758039  53.1009626  89.5707035
  97.7611232   8.8483428  47.8415732  97.5253332   9.4879436  48.5135417
  97.6488090   9.3172359  47.0146803  36.0630448  25.4575586  18.3924441
  35.4932291  25.3818082  19.1578249  36.0271008  24.5941924  17.9806952
  82.3453426  56.4140558  63.0170393  82.4669743  56.1365986  63.9250326
  82.2902203  57.3685360  63.0635929  76.6169518  85.7735573   4.6365218
  76.3690084  86.3947473   3.9517836  76.3959950  84.9159442   4.2733340
  42.5922585  56.5382051  87.6843739  42.8142881  57.4430180  87.9040337
  42.2231293  56.5894508  86.8027020 105.6318158  81.7901336  27.4052481
 105.9157771  81.0004650  27.8657107 105.2057713  82.3200904  28.0789427
  50.5111361  35.7193041  92.3187637  50.7957506  35.5470443  91.4212418
  49.7071171  36.2294960  92.2213173  92.0498341  92.8360568   9.4554667
  91.4406127  92.5463806  10.1345591  92.6554984  92.1026192   9.3483595
 101.8990815   8.8743972   0.4616122 102.7159560   8.9841222  -0.0251146
 101.2396729   9.3144178  -0.0748487  41.2757254  35.0372672  81.8365479
  41.9600105  35.2596259  82.4678516  40.4875135  35.4584742  82.1793938
  51.5199417  94.5020972   8.9243655  51.3527233  93.9458953   8.1635050
  50.7068187  94.4693337   9.4283442  28.1013615  31.7377900   5.0594573
  27.3836357  31.8969392   4.4464545  28.6866171  32.4861383   4.9425082
 102.9822290  17.2882699  12.7929453 102.7362740  18.2132053  12.7777152
 102.1487582  16.8194675  12.8351645  20.4345536  55.4588509  94.7697353
  20.4882979  56.2193346  94.1909409  19.9787223  54.7953892  94.2517853
  11.0974533   1.5945482  20.3838496  11.0392935   2.1632909  19.6161322
  11.8273098   1.0059785  20.1911597 101.5494031  53.7635013   8.5229926
 102.3348493  54.1785827   8.1666045 100.9235591  54.4808884   8.6225085
  82.6084328  55.0076151  94.4982433  82.2916698  54.1335297  94.7259808
  83.4633446  55.0710344  94.9240780  75.3887695 105.1104937   8.8023142
  76.3436717 105.0462876   8.8187174  75.2042765 105.7652961   8.1289439
  88.2096976  94.0094887  13.8998847  89.1017836  93.7306796  14.1064600
  87.8990430  94.4313584  14.7009711 101.9554055  12.3375320  11.3108210
 102.2213805  13.2554244  11.3652567 101.3882172  12.2070455  12.0707564
  22.1117670   0.9038829  26.8242602  23.0078871   0.9832811  27.1512084
  21.8434460   1.8040180  26.6398863   2.6595051   8.0722617  27.1847872
   2.3064072   7.7351045  26.3614516   2.0952589   7.6949930  27.8597121
  39.1562557  52.3619652  82.7507401  39.0924311  52.7722883  83.6131763
  38.6507297  51.5532446  82.8322697  37.1103120  34.5994997  95.1533890
  37.2200656  35.0611925  95.9846592  37.6716852  33.8281798  95.2318668
  54.5062256  62.4669170  73.8673162  55.0672388  61.8644571  73.3789158
  54.6343184  63.3135605  73.4395027  49.1039705  53.3134985  91.3372803
  48.5696793  52.5269508  91.2272263  48.5596943  54.0225935  90.9949684
   5.8376915  11.3806485  49.7876315   4.9627907  11.0289335  49.6230940
   6.1697514  11.6122531  48.9202647  44.4593287  47.1042442  85.7330799
  44.3003225  46.3325310  85.1895714  45.3887844  47.2968149  85.6095600
   8.1050665   1.3308000   0.0313143   7.8926069   0.5931806   0.6031661
   7.3671944   1.9321727   0.1319747  13.5919220   6.3274717  23.1676917
  13.1729920   5.5274677  22.8503088  13.6447174   6.8922710  22.3966841
  86.0326404  52.0727683  13.1613783  86.6806334  52.0202504  12.4588160
  86.3489551  52.7774009  13.7267737  18.4137046  81.3314819  94.0165329
  18.1104290  80.8122730  94.7612953  18.5369051  80.6932163  93.3139133
  97.5307513   6.8611955   6.1906199  96.7826748   7.4191999   5.9779124
  97.2457314   6.3593196   6.9542460 109.1954649  34.9425554  24.3400721
 108.7685860  34.5464658  25.0997500 110.1092732  34.6657037  24.4074206
 113.6251319  31.5414285   4.4676737 113.4815467  31.1017179   5.3056864
 113.5660065  32.4743699   4.6734862  20.1370651   8.1044721  41.3006167
  19.5864851   8.8220214  40.9872298  19.7578747   7.3204994  40.9033350
  40.3190660  54.9573040  81.4806843  39.6771622  55.3344584  80.8790684
  39.8447871  54.2569017  81.9287205   5.1328719  94.5064293   0.2670626
   4.3893588  95.0621877   0.0334982   4.9649204  93.6793862  -0.1846261
  21.6320402   0.2490281   0.9195284  22.4582274   0.6233548   0.6137137
  21.1238844   1.0028648   1.2190871  44.1361284  88.3440781  81.2000561
  43.4040117  87.9288578  80.7441711  43.9584017  89.2823029  81.1338139
  81.4877129  36.1447358  92.0517445  80.9610653  35.3629494  92.2181320
  80.8969784  36.7368674  91.5862846  24.7486652  98.2824717  20.5817561
  25.4071582  98.7785779  21.0680727  23.9122165  98.6470376  20.8710055
  11.9541485  21.5245771  21.7017130  12.2354347  22.3709964  22.0491080
  11.1126406  21.3589191  22.1267466  24.0248425  25.2588414  50.1126723
  23.6287529  25.2659082  50.9840445  23.7380869  24.4315242  49.7259383
  58.3494282  63.0805349  83.1275940  58.9249849  62.3612976  82.8674793
  58.9438534  63.7596035  83.4465981  36.2643790  49.7864342  71.0749102
  35.8763242  49.1082287  70.5220270  36.1898088  49.4417143  71.9647646
  26.1291265  66.9596243  90.7193565  25.2793932  67.2737551  90.4103184
  26.3045120  67.4772882  91.5051651   8.5512764   4.6013355  38.9532523
   8.8049252   4.4172239  38.0488162   9.3586523   4.4914102  39.4555335
  73.1333685  57.1364498  85.5640888  72.4320698  57.0590544  86.2109470
  73.8184738  57.6328278  86.0118294  35.2251751   8.6858606  21.2747530
  35.7585985   8.4579133  20.5133490  34.9317200   9.5805215  21.1024241
  24.4177324  32.6521920  10.2466063  24.4969065  31.7915963   9.8350958
  23.5698588  32.6284646  10.6902079   9.6662933   7.1219157   1.3055186
  10.0955994   6.2948226   1.5242724   8.7515957   6.8841790   1.1537222
 101.3122481 106.7650138  24.0859274 101.0567683 106.8274270  25.0062899
 102.2148389 106.4471589  24.1089301  82.5913906  43.5958338  91.5948677
  81.8987179  42.9375076  91.5397549  83.3700085  43.1530905  91.2572956
  99.2240542  87.7002011   9.3245654 100.1096887  87.6088963   8.9730601
  99.0787858  88.6454378   9.3652396  55.8331377  31.5563058  17.3623423
  56.1888106  30.6707048  17.2886233  56.1613352  31.8770646  18.2023577
 112.8881920   1.1293411  18.0744509 113.3674515   1.2519454  17.2549967
 112.5532139   2.0000696  18.2885794  61.7278559  18.0496167  35.9058337
  61.6556246  18.1760453  36.8518977  62.4531920  17.4338578  35.8011679
  73.6574078  65.4515839  78.7010765  73.2321167  65.9972811  78.0395842
  74.5877218  65.4867935  78.4785748   3.2438243   0.4165495  77.4450350
   3.5591567   0.0474680  76.6200638   2.9577316   1.3012732  77.2177649
  23.9691479  10.9858941  12.2499613  24.7725517  11.0804271  12.7616553
  23.7846405  11.8684434  11.9285635  20.4522289 105.2408133  19.6581702
  20.7952464 106.0877286  19.3730216  19.5927680 105.1779233  19.2414908
  14.9043686  25.3882169   4.3168883  15.2554352  26.2758111   4.3887286
  15.2937443  25.0408601   3.5144190  81.3630265  91.3328729  25.6666331
  81.6140765  91.4318572  26.5850119  81.7219228  90.4832850  25.4104571
 115.8278764  13.4276151  22.3538832 116.1271751  14.3251371  22.2085814
 116.0470832  13.2470702  23.2679896  26.9694168  26.7098092  12.3554091
  27.2002585  27.1583604  11.5419249  27.0846874  25.7804250  12.1574835
   4.6529896  40.9530019  25.0864176   5.1233942  40.4832887  24.3977122
   4.1938145  41.6557073  24.6264128  14.1633732  20.6912088   0.9456973
  13.3253176  20.6335067   1.4045767  14.6411020  21.3816356   1.4053874
   6.8975718  20.8180141  17.3802046   7.3362190  20.8002900  18.2307963
   7.5170786  20.3994989  16.7824702  92.8576374   8.5844493  90.4198456
  92.4856377   9.3961614  90.7647610  93.5921192   8.3910739  91.0024071
 104.9740380  95.1480399  40.5947546 104.6859950  94.6535931  39.8274283
 105.3687447  95.9418784  40.2338366  35.6193382  19.1510820   1.1493258
  35.9330637  18.8113212   1.9874053  34.6709187  19.2200231   1.2587504
 111.5055621  32.0746564  22.4865107 111.0230220  31.5785455  23.1477599
 111.2160218  31.7060231  21.6519408   6.1247666   6.4692973  19.8069243
   6.2094814   7.2453880  20.3607707   5.6188805   6.7683172  19.0513472
   2.9755098  18.7324905  28.4094576   2.0619232  18.4513568  28.4600119
   3.4675581  18.0234145  28.8233809  58.0129194  52.8382254  89.7242832
  58.3405733  52.5141573  88.8853264  58.1865358  53.7792778  89.7018528
   8.5811789  17.4817657  12.3862319   8.9885170  18.3080768  12.6460795
   8.0672867  17.2176647  13.1493811 109.6062821  99.4265185  34.9021678
 109.0455598  98.6596022  34.7852950 110.2278346  99.1673432  35.5824141
  32.2721512  20.6279086  13.4105639  31.7697746  21.1609411  14.0267806
  31.6096193  20.2042007  12.8649001  99.5726413  98.8391648  43.4331183
  98.8622445  98.3153973  43.0626540  99.4799537  98.7329541  44.3798785
  46.1761713  39.4599366  95.2045822  45.3494120  39.0259790  94.9939156
  46.5984488  39.5955276  94.3563271  71.4437485  46.3740873  95.4428673
  71.0611439  47.1918678  95.1249313  70.8778811  45.6899309  95.0851536
  64.0534592  40.2526903  68.9615822  63.1963825  40.2701712  69.3874264
  64.0621424  41.0339594  68.4086132  53.5517103   8.4727859   8.4096198
  52.7763922   7.9616975   8.6417822  54.0871889   7.8730773   7.8901534
  33.2233650  15.4716205  11.1767344  33.2057507  15.3683376  10.2252917
  34.0078480  15.9931373  11.3465552  74.2622900  40.1954317  81.2187386
  75.1624107  40.3041172  80.9118080  73.9138746  41.0860443  81.2592793
   5.3187240 101.8410121   5.6797652   5.9632838 101.8398486   4.9721102
   5.0173248 100.9339295   5.7307009  52.1506274  83.0038677  37.2157053
  51.4065994  82.4490748  36.9814543  52.4606860  83.3539305  36.3805155
  20.6258757  31.3713025  10.2839236  21.3024695  31.5889882  10.9250597
  19.9771626  32.0693731  10.3738932  12.8489430  13.6609983   3.0830721
  13.5639937  14.1934966   2.7346758  12.7717192  13.9325666   3.9976935
  38.0513985  30.0998353  31.6048674  37.6405651  30.9356260  31.3837294
  38.8614876  30.0888585  31.0950999   1.1777622  10.6389617  27.2544627
   1.6452009   9.8039960  27.2308020   1.4379198  11.0356187  28.0858569
  28.4431107  33.1839132  44.5038371  28.8418610  33.4921502  43.6900763
  28.3900387  33.9645242  45.0552516  73.5971785  68.7868071  84.0791130
  72.7461910  69.0819216  83.7551403  73.7671423  67.9751778  83.6009884
  19.6389849  56.9391012  14.1877036  20.4142315  57.0006227  13.6296324
  19.5436461  56.0029172  14.3628745   2.8583968  94.3915401  32.7217249
   2.3102821  93.8109194  33.2496314   2.6181377  95.2729522  33.0074172
  18.4707195  21.9590186   2.5232367  18.5115177  21.2860107   1.8438105
  19.3597729  21.9975900   2.8758482  59.4946861  46.4511156  80.1755428
  59.3061590  47.3815680  80.2977943  60.2829504  46.2960625  80.6959534
  51.3524771  44.5846891  91.5004826  51.3938284  44.1806364  90.6337261
  50.5169439  44.2897654  91.8626022  78.1777906  71.0181713  79.8657799
  78.9715290  71.3044071  80.3177547  77.9709101  71.7359591  79.2672729
  60.3248675  15.6065940  20.9516577  60.3712160  16.0611390  20.1105456
  59.4842608  15.8746862  21.3227896  23.0912001  23.0640172  30.4128222
  22.7358610  23.2658862  29.5472483  23.8613016  22.5238704  30.2355723
  46.4919169   4.0183400  19.9909644  47.3878843   4.2477512  19.7443060
  46.0749609   3.7627410  19.1681342  75.3882170  40.3731155  90.4717159
  74.8972130  40.4978704  89.6595669  74.8778439  40.8389282  91.1341190
   3.5868723  30.5056333  22.2845988   3.8388569  31.3282155  21.8649439
   3.4560854  30.7362127  23.2043509  37.9583389  12.4060582   1.9505362
  38.8441641  12.1979903   1.6534476  37.5562317  12.8564929   1.2077956
  79.5173931  79.6530581  89.1150188  80.2874470  80.2183437  89.1759014
  78.9417124  79.9560881  89.8171616  46.0403299  39.6262670  81.3817215
  46.5306282  38.8968897  81.0024452  46.0252285  40.2893305  80.6915379
   5.6471712  -0.3537513  22.5762324   5.8205492   0.3477430  21.9484763
   5.0510437   0.0379657  23.2145266  26.2267668  30.4253721  28.1620554
  26.7192967  29.6082925  28.2396941  25.3600580  30.1547288  27.8590731
  60.6418180  79.6728373  78.6832905  59.8977566  79.8062992  79.2704773
  60.3630686  78.9668512  78.1000948  30.0264628  60.7367563  16.6721015
  29.2556269  60.6014680  17.2232203  29.6699173  60.9444570  15.8084063
  45.3502447  -0.1999808  37.9947142  44.8470575  -0.1973868  38.8089709
  46.0707647   0.4090452  38.1564765  64.7542286  78.7424564  91.5455627
  63.8201761  78.6409426  91.7285061  64.8014879  79.4884014  90.9475899
  42.4405003 102.1478653  95.0985432  42.4010849 101.4068604  95.7031822
  43.3531618 102.1742249  94.8111725  19.9680126  65.5410671  88.1507492
  20.1904130  66.4490938  87.9451847  19.5988917  65.5787468  89.0331078
  31.8759853   5.5266713  13.3771948  32.6228459   4.9626684  13.1763606
  32.0718033   6.3510370  12.9318861  99.3259811  46.0245800  84.5977688
  98.7949562  46.4156723  85.2915096  99.5854187  46.7645168  84.0487480
  12.0679820 108.7803136  50.2393393  12.6020778 108.8065396  51.0332446
  11.2599815 108.3434115  50.5085711  80.4613561  94.5334302  16.3534693
  80.8921355  93.6954723  16.1846880  81.1792630  95.1634131  16.4164214
  15.0996430  15.8388233  24.7296671  14.3387491  15.7564592  24.1547732
  15.4958565  14.9674749  24.7288756  57.7133560  59.2029428  87.2748184
  57.8736925  60.1436138  87.1995354  57.6509571  59.0452576  88.2168770
  25.0754703 108.5586654   5.7278304  24.8567069 107.9547702   5.0181250
  25.8692897 108.1925212   6.1177306  21.3585026  20.7822990   1.4813475
  22.1692450  20.4558515   1.0910086  21.6052181  21.0328149   2.3716216
  31.6343522  36.9874763  88.1259060  32.1533346  37.7343750  88.4242916
  32.2160554  36.2345409  88.2305050  45.3973562  44.8020982   0.6324248
  45.4163916  45.1942968   1.5053801  46.0526163  45.2918863   0.1354651
 111.4157093  38.7141465   2.6011233 110.8304084  39.3916272   2.2624926
 112.0116699  39.1827153   3.1855063  84.3860435  74.2943668  91.0606956
  84.8665905  74.8518133  91.6727161  83.5689449  74.7657585  90.8983135
  66.9584942  43.1311512  90.7301998  66.4996243  42.2930193  90.7868290
  67.8461695  42.9001999  90.4564667  70.9815788  80.5214024  82.8941917
  70.4468060  80.9351635  82.2166538  70.8775902  79.5822620  82.7411270
  94.8348999  65.0847626  91.2655449  95.0704861  65.9284830  90.8797073
  95.3307343  64.4424152  90.7578278 101.8240899  93.0057154  18.5104231
 101.2805528  92.2501264  18.7337737 102.6342744  92.8717004  19.0022330
  67.9850435  55.7661200  86.5067768  67.3433590  56.4682341  86.6140461
  68.8295317  56.1866665  86.6686630  75.1017952  67.8238440  76.7577171
  75.6346130  67.5064564  77.4868298  75.7297754  68.2335329  76.1627150
  10.8040316   3.3448362  14.5986037  11.5792496   3.0043840  15.0450949
  10.0829012   2.8086852  14.9283652  82.5082684  51.6587400  77.6709318
  83.2532597  52.2114897  77.4349403  82.0361614  52.1631336  78.3334446
  45.2298689  95.1108742  88.4493160  45.8287716  94.3798065  88.2973766
  44.6593666  95.1168346  87.6807308 108.3181209  96.0657559  41.2406306
 107.8265923  95.8663379  40.4438452 108.4240598  97.0169459  41.2249426
   6.9664700  52.5455236  40.4412322   6.3022930  52.2191667  39.8341136
   7.1044380  53.4556150  40.1786952 112.0067489   4.4904088  11.2662081
 111.6403210   5.3732776  11.2161974 112.3943174   4.3427228  10.4035239
  44.5067883  70.6143904  52.0613766  45.1389790  69.9261284  52.2684050
  44.5813322  71.2342167  52.7869749  30.2520640  20.5540323   1.3409476
  31.1678583  20.8324670   1.3359217  30.2300675  19.8139571   1.9476180
  39.5304949  38.6463880   3.3051161  38.9894182  39.0542459   2.6290183
  39.2207462  37.7416276   3.3463053  67.9624289  93.2528506  26.0690550
  67.1498579  93.7014638  26.3029627  67.7942866  92.8908764  25.1990370
  96.6717911  72.6272535  91.1736298  96.0604095  72.7367973  91.9019413
  96.1307240  72.7244139  90.3900242  89.3857926  87.4070488   1.3359980
  90.0538081  86.8792902   0.8984332  88.9464158  87.8743683   0.6255106
  40.0142765  86.1118793  71.1350632  40.9689045  86.0419846  71.1296034
  39.8430538  87.0536327  71.1317301  24.7430451  34.4160604  17.2237448
  25.5188639  34.0529107  16.7965846  24.6928913  33.9551782  18.0611758
  55.5119974  29.7803163   2.8953127  55.5464537  29.9566411   1.9551329
  56.4032633  29.5148515   3.1220393 114.6724665  17.3474025   5.8365778
 115.1790750  16.6914939   5.3576617 114.5987761  18.0835151   5.2291731
  57.1631861  57.6625919  89.6652031  56.8370771  56.7659903  89.7426414
  57.0305347  58.0415869  90.5341053  68.4325457  40.4684734  87.3047924
  69.0080023  40.0644493  86.6552925  68.0525684  39.7298956  87.7805519
  53.5259151  59.1198015  77.2094011  52.8226280  59.7416401  77.3963165
  54.2371798  59.6593332  76.8640995  84.8543644  48.9935780  87.4522114
  84.4074535  48.7103701  88.2498932  84.2976856  48.6773539  86.7406368
  41.1112356  62.7004910  61.5826035  40.9077835  63.5754776  61.9131088
  41.4798737  62.8528547  60.7124758 110.1146424  34.3244218  14.3970541
 111.0110176  34.0874910  14.1591410 110.0317681  35.2413892  14.1352515
  32.5500321  84.8854256  61.5360641  31.7002583  84.5135117  61.2998390
  32.5124598  84.9834061  62.4874926  33.8263559  92.4604321  84.2045498
  33.8468719  93.2621956  83.6820793  33.6299682  91.7681789  83.5733223
  57.5223464 107.2001563   3.8143210  57.3650664 106.3696919   4.2635779
  56.6609627 107.6151906   3.7696509  58.3588505  38.8057351  93.8029861
  58.2857466  39.6835208  94.1776657  58.3897448  38.9507651  92.8573418
  64.3944401  91.1447178   7.6073699  64.9209374  90.4102884   7.9230361
  64.3818635  91.7621909   8.3386664 115.0061977  28.7052488  20.2750258
 114.4638670  29.2151021  20.8768229 115.4362357  29.3609666  19.7260813
  95.0117654 100.9098779  20.1634459  94.1028184 101.1888324  20.2740244
  95.1441974 100.8952723  19.2155699  50.7603550  64.9921560  72.0358276
  51.1521959  65.6894588  72.5616217  49.8818684  64.8825693  72.3998117
 103.6469478  99.3424378  13.4890704 103.8487214  98.9143525  12.6570467
 104.4738168  99.7414361  13.7598471 109.3272656 102.0706998  16.3376383
 109.4379062 102.8465758  16.8871836 109.0702647 102.4171029  15.4831271
  52.5371695  79.9641752  77.5296021  53.3092546  79.7038412  77.0272684
  52.0804644  80.5852222  76.9621897 100.8152121 101.9242392   3.3946661
 101.7525357 102.0577250   3.5355048 100.7683581 101.2973223   2.6728491
  26.0110314   1.8283223  24.2629962  25.6852085   0.9285259  24.2420058
  25.2385218   2.3582601  24.4595294  32.7932436  61.6084050   0.6713538
  33.6757548  61.3676976   0.9532408  32.2211630  60.9810399   1.1133532
  86.7986792  94.5444237  16.1404757  86.2716884  95.2253876  16.5585665
  87.0183009  93.9415894  16.8508200 104.4482744  30.2914762   3.1809001
 104.0046561  30.5268239   2.3660140 104.8177016  29.4249582   3.0108695
  35.5976803  25.6067514   5.0217204  34.7721750  26.0836553   5.1073985
  36.0325701  25.7271432   5.8658843  56.8754275  32.1653604  26.6592364
  56.8825133  32.9811334  26.1585288  55.9957392  31.8115186  26.5281634
   2.8068507  76.8306266  35.7864050   2.5897849  77.2406731  34.9491648
   3.6236728  77.2514783  36.0545687  74.1525507  85.1106930  85.6684017
  74.7940063  85.0348473  84.9619865  74.0401173  86.0535049  85.7896233
  76.6190767  15.1863194  79.3536949  76.1134911  14.7979760  80.0677013
  76.2193918  14.8345327  78.5582495  67.3921282  17.3103761   3.5167460
  67.7322561  17.2789144   2.6225714  68.0479414  17.8080415   4.0050845
  51.9803888  16.8460225  20.7409338  51.2219984  17.0405816  20.1902728
  51.6489775  16.9107389  21.6365866  31.3886816  29.9351548   7.4821906
  31.6839106  30.2726030   8.3278899  31.9002039  30.4239702   6.8374877
  81.3672543  42.0843363  70.3917837  81.8059349  42.9261732  70.5147028
  80.4338074  42.2931099  70.4281235 104.7942352  78.1133604  79.7938633
 104.5526409  79.0395546  79.7986078 104.1917229  77.7118778  79.1677427
  51.9632513  16.7519569   0.2639250  51.9562513  16.7880296   1.2204222
  52.7662260  17.2085046   0.0128893 114.4636220 101.4492284   4.7843031
 113.9431399 101.8917332   5.4547648 115.1623458 102.0692645   4.5755534
  92.4193478  91.0737133  90.7938671  93.3150482  91.3902950  90.9110355
  92.2417736  91.1970615  89.8614120  52.5163031  87.5750160  95.2936935
  53.3573103  87.2421074  95.6069088  52.7404356  88.3607674  94.7950935
  34.6232843  36.2582660  90.0583553  34.1794610  36.3717890  90.8988094
  35.3925157  36.8250799  90.1152229  84.3802852  88.0528842  32.2590785
  84.7409076  87.5593768  31.5224509  83.9588279  88.8117109  31.8556075
  22.7736742  18.2402753  22.3709731  23.6450703  17.9617786  22.0892863
  22.5408489  17.6285600  23.0694155   3.0914748  85.3526626  18.9944033
   3.0604137  85.8971344  18.2077555   2.7711738  84.4977341  18.7067561
  96.5299100  93.8680230   0.9891467  95.7349223  94.4011508   0.9904818
  96.7860621  93.8222585   0.0679926  36.7223103   4.0865802  16.2751059
  36.8483145   3.2143115  16.6486125  36.9199879   3.9795589  15.3446726
  12.0442260  95.9611426  34.5382456  11.9014228  96.4814244  35.3288989
  12.5176299  96.5474187  33.9479975  83.1163216  94.3200302  67.1851301
  83.7168884  94.6013546  67.8753567  82.4135876  94.9697876  67.1995878
  29.7519524  28.5856962  17.4046282  30.3141195  28.7249135  16.6425089
  30.0156004  29.2660283  18.0242018  12.3965056  29.1137933  10.2241759
  12.0681126  29.9573564   9.9130778  11.7244608  28.4841394   9.9631648
  61.6447544  47.9914522  88.9979649  61.2532663  47.3225975  89.5597553
  60.9820652  48.6803675  88.9482784  38.0101132  98.8770294  85.8680439
  37.5924730  98.7610054  86.7214775  37.8714728  99.8003483  85.6570911
  29.1386587  15.6065130  11.8350081  29.9523146  16.0808420  12.0059065
  28.6419661  16.1840390  11.2553648  34.8233206  51.6344976  15.6431250
  34.0287621  52.1293020  15.8433299  34.8740847  51.6394376  14.6872859
  68.1448698  57.4963856  69.6828318  68.0665636  56.7350531  69.1079617
  67.3579884  58.0119419  69.5060396  14.1384442  36.3541650  26.2115531
  13.5367806  36.1094617  26.9146590  14.3254406  35.5315732  25.7592158
  52.8541660  71.1269188  86.6953182  52.6671743  70.4255867  86.0713005
  52.2826147  70.9429169  87.4407768  29.6814752  64.2313194  79.7087669
  30.2705693  64.3506432  78.9638090  28.8803291  64.6904135  79.4565201
  25.0297482  46.2027787  21.8374495  25.7807476  46.7889356  21.7443900
  25.1449616  45.5538320  21.1433177  48.3286078   6.8492364  10.3841357
  48.3753664   5.9394550  10.0902895  48.1946642   6.7888498  11.3299899
   2.2117961  86.8512808  22.2901206   3.1468356  86.6827856  22.1737246
   1.9722141  87.3988543  21.5424590  60.1157856  45.9678364  90.9784603
  59.4190025  46.1232376  90.3408337  60.7065344  45.3535128  90.5427456
  23.0026800   5.8156585   9.8200469  22.6356918   6.6971778   9.8869376
  23.4823877   5.8181524   8.9917330   5.6119407  92.7671300  19.0449194
   4.9257720  93.3586846  19.3538908   6.1475814  92.5962649  19.8195986
   7.6847107  11.3134622  35.6697707   8.1908257  11.3921451  36.4784102
   7.2999413  12.1806669  35.5427031  56.4103396  65.3895044  27.5796561
  56.2282164  64.5767259  27.1079974  55.5490858  65.7071637  27.8508811
 108.2582444  89.6400414  20.7647471 108.8951940  89.1626201  20.2331404
 108.3262605  90.5461369  20.4637579  55.8277464  62.1540308  91.8129253
  56.3951015  61.8155766  92.5055885  56.2986803  62.9119778  91.4665508
  91.9229507  56.6516304  81.2124443  92.7913094  56.3031101  81.4142323
  91.7770672  57.3285723  81.8732834 113.0358517  41.6042947  36.1574797
 112.5748599  40.8250951  35.8467249 113.6201585  41.8401861  35.4369406
  60.7157230 100.9368801  93.2635403  60.3708029 100.3957462  93.9737797
  60.6980562 101.8284416  93.6114407  56.8877506  90.5414677  80.8489323
  57.3770380  89.8279572  81.2584877  57.5582218  91.1729431  80.5882740
  21.9293720  25.4459810  35.2440123  22.4623854  26.0562085  34.7343592
  21.3432724  25.0457715  34.6017127  91.7534179  90.2325164  32.7685694
  91.0432118  89.7747217  33.2183032  92.4730748  90.2368604  33.3996920
   2.2826750  11.6188001   5.3411536   2.0611794  11.0564470   6.0833983
   3.1857140  11.3860082   5.1253848   4.1997988  25.8062982  23.1268649
   3.4458334  25.4845762  23.6210875   3.8785298  26.5918683  22.6842455
  57.1742344  25.9613848  88.7252998  57.5796604  26.2312698  87.9012680
  56.4248180  26.5481305  88.8269711  50.3963358  47.7295160   1.4837222
  49.9078829  46.9538259   1.2081294  51.2938292  47.4181794   1.6012053
  18.7285888  52.9848671  77.2221804  18.5311556  52.0550251  77.1097183
  19.2912376  53.2018614  76.4788294  34.0018821  89.2341709  86.7691898
  33.6334157  89.0997219  87.6423359  33.7821794  90.1404953  86.5534687
  86.3519669  87.4619675  61.2719345  86.7706203  88.0995560  60.6936312
  87.0428944  86.8305874  61.4724588  53.8719893  85.1761436  86.0761738
  53.2455158  85.5475235  85.4550171  54.7201967  85.2615929  85.6408882
  44.0917761   9.4431972   3.7797598  44.0716822   8.4885597   3.7127356
  43.1851561   9.7127532   3.6327605  84.7493649  94.8711300  71.6468906
  84.4274807  95.0510120  72.5302172  85.5521584  94.3677521  71.7823982
  19.6493895  36.3559961  28.5036997  19.1954691  36.6192102  29.3042712
  20.3606398  35.7913541  28.8062529  11.3156349  37.9289960  14.0038447
  11.2279350  38.7713479  14.4499163  11.6663916  38.1501912  13.1411318
  44.7625637  98.0123425  70.7854557  44.0569973  98.3361530  70.2254915
  44.4683218  97.1451855  71.0641718  32.9797489  10.3597211   6.0249857
  32.5911886  10.2140760   6.8875651  32.2309239  10.5010700   5.4457526
  98.1078339  96.3590050  76.2086201  98.5347271  97.0586109  75.7141161
  97.2261906  96.6901779  76.3796663  86.6299820  61.7705441  81.2662983
  87.1580601  62.5630283  81.3628960  87.2577190  61.0938454  81.0128212
  55.3412611  37.0558500   3.6181979  56.2363321  37.0835637   3.2800822
  55.4455073  37.0144605   4.5688109  74.1392040 108.0960846  90.3456402
  74.1893101 107.3840809  89.7078609  73.7687111 108.8304901  89.8561287
  11.5331108  48.1024026  16.3240866  11.4697010  49.0377473  16.5172915
  11.1153061  48.0057382  15.4683260  86.3418198 100.6967735  80.9920406
  86.8291855 101.3993931  81.4222050  86.9182014 100.4024792  80.2867699
  76.7729170  65.5145406   6.7694144  75.9730990  65.0585698   6.5074782
  77.4661333  65.0933122   6.2612299 110.7181740  75.0521564  73.5107851
 111.3623714  74.7488499  74.1505051 110.8901405  75.9897518  73.4237719
 112.8746051 107.7016459  15.8512072 113.4614152 107.7994834  15.1013331
 113.4424943 107.8048621  16.6148047  38.0540974  30.2455472   3.4117178
  38.8816197  30.5709123   3.0573420  37.9000694  30.7806539   4.1902880
  62.5043821  83.5702801  76.1531496  61.8297100  84.2196560  75.9547615
  63.0829191  84.0088749  76.7769718   5.8835823   4.5136260   6.1136298
   5.7874853   3.8232564   6.7696623   6.3155062   5.2290773   6.5803198
 115.1996339  27.8573083   5.5912547 115.4174197  27.1196508   5.0214629
 114.3339432  27.6436471   5.9393363  53.0018997  77.7930021  91.5800571
  52.9375029  78.2755947  92.4041843  53.7445450  78.1916857  91.1264420
  59.4982100  76.1545992  90.3708267  58.9209223  76.2180567  89.6099377
  60.1832771  76.8025827  90.2064037  75.7232046  85.7130527  94.8659611
  75.1710081  84.9805832  95.1394749  75.1044559  86.3926315  94.5984554
  49.1605169  32.1070718  34.5103507  48.5095293  31.9199514  33.8340239
  49.9765570  31.7463445  34.1636614  44.5078928  27.9316949   9.2076640
  44.3006308  28.5130357   8.4760146  43.7607176  28.0163526   9.7999434
  77.4932718  51.2215376  84.9668217  78.2965183  51.0658360  85.4635906
  77.3862648  52.1726894  84.9764538  96.3202733 107.3539887   3.0733351
  95.7972688 106.6351090   2.7185015  96.1528319 108.0870639   2.4810557
 107.4894142  96.8334007  79.5721149 106.8051338  96.7262363  80.2328110
 108.2994175  96.6016674  80.0264549  51.4345534  20.3708123  10.7690005
  52.1198733  21.0373067  10.7205252  51.8482477  19.6341705  11.2189345
  38.5045845  27.4347925   3.4029154  38.0704338  27.0172643   2.6590018
  38.3302576  28.3690023   3.2885031  33.9764292  14.2335271  15.3706221
  33.1158383  14.2513894  14.9519400  34.5958454  14.1807508  14.6427683
  68.5052490  93.3342075  93.6909485  68.7735653  93.4275246  94.6050167
  69.2164850  92.8413868  93.2816696  46.2132835  61.7810392  77.3690557
  45.5332565  61.2073755  77.0159149  46.4097214  62.3874140  76.6549492
  54.8920614  63.2617044  17.1449523  55.4251177  62.9768419  17.8871970
  55.3546412  62.9285573  16.3760142  87.2993869  14.3889464  89.2117882
  86.6131944  14.8939932  89.6480179  88.0735368  14.5124091  89.7610474
  48.7523062  20.0775623   6.6616683  49.0204794  19.7641038   7.5254206
  49.3786699  20.7707452   6.4533381 115.5661297 109.2554855  84.6027470
 116.0597706 109.5458889  83.8357925 115.0308895 108.5295010  84.2822838
   8.8899214   5.5909251  33.9520220   9.0517218   4.7749996  33.4784083
   8.0966360   5.9469270  33.5517840 113.9182919  23.9076365  91.5377617
 113.3954114  24.7037638  91.4428806 113.8829392  23.4936751  90.6754303
   4.9840195  26.4647722  16.1184744   4.1586716  26.7315530  16.5232710
   5.6515200  26.6841363  16.7685084  83.5467911  32.0074153  58.3211422
  84.1374874  31.2576938  58.3935165  83.2055855  31.9581723  57.4281788
  26.0988552  22.4961662  24.7283892  25.9950144  23.4218072  24.5078520
  26.7926962  22.4834060  25.3876833 105.0230712   9.3086470  78.1546593
 105.9223622   9.2940176  77.8271008 104.4960994   9.5611895  77.3965359
  13.5470230  24.7434663  13.3382182  13.6818440  25.3961419  12.6511435
  14.4299156  24.5198392  13.6327033  44.4423246  76.6501522  92.5228977
  44.8315096  77.4158239  92.9454136  44.3014765  76.0283422  93.2368660
  48.1291754  13.2452249  13.7244467  49.0391619  12.9968213  13.8871054
  47.9195673  12.8470945  12.8795866  44.5133955  18.3650207  35.7380061
  44.2001707  17.4801015  35.5508189  43.7858565  18.7844466  36.1973624
  93.6162932  38.8400220  58.1050353  93.2097799  38.2859086  58.7713198
  92.8800184  39.1949319  57.6068835  17.8841622  42.4076986   4.7897582
  17.5711043  41.9345140   5.5606799  17.1327669  42.9290818   4.5072703
  39.6662218  50.4995298  32.9151110  39.6188194  50.7954072  32.0060305
  39.0929587  49.7336816  32.9479365  29.9611647  44.8808431   3.1678538
  30.7865746  45.0635385   2.7189021  30.1997978  44.2777395   3.8718085
  94.0893907  69.9449752  18.2738547  94.0130204  70.8989535  18.2558207
  94.8029345  69.7502933  17.6662497  26.8132479  25.1869821  23.5042529
  26.1625321  25.6606912  22.9861788  27.6538880  25.4419660  23.1240611
  43.3967955  19.0209579   3.3930258  42.7559168  18.7520170   2.7348666
  42.9266150  19.6474361   3.9432005  71.4064550  90.6111336  84.9991608
  70.8304644  91.3728523  84.9339294  71.6204929  90.5517483  85.9302330
  92.8088284  85.0070190  95.6755066  92.1853542  84.8325729  94.9704742
  93.4799576  84.3320751  95.5741882 103.6708468 103.7832032   3.7616305
 103.6627931 104.7357045   3.6672549 103.1562680 103.6164008   4.5513205
  60.9299183  96.2700272  89.2063332  60.4168272  95.4624939  89.1770649
  61.2856340  96.2957191  90.0946140  44.0304072  49.4525861   2.9957633
  44.2949659  49.5914602   2.0863966  43.4050257  50.1551866   3.1732325
  34.2490990  24.8292684   2.4218993  35.1234800  24.9899530   2.7766757
  34.3111641  25.0921964   1.5036158  80.3186893  55.5780649  88.0364799
  81.1693859  55.1466560  88.1167126  80.5249023  56.5125942  88.0175209
  77.7231550  96.4457035  79.6455622  78.6596251  96.2877178  79.7651482
  77.3984814  95.6513309  79.2215490  90.4386902  83.8527679  88.5185242
  91.1859512  84.0913200  87.9699516  89.8872375  84.6351337  88.5254860
  93.7368774  65.0248718  83.5326004  93.7705231  64.6338987  82.6595306
  94.2733288  65.8144999  83.4622574  24.7916300  17.0838451   9.1175608
  25.6569988  16.7013549   8.9723925  24.2635281  16.7664384   8.3850340
  14.9204332  45.9688806   0.8727984  15.7253105  45.8308362   0.3734545
  15.1086743  45.6022023   1.7367129  99.9323940  87.5863266  89.0259838
  99.5104218  87.4930000  89.8800659 100.8444309  87.3407841  89.1813278
  15.4770339 101.3462029   1.4705901  16.0901511 101.8679248   0.9527831
  14.6965564 101.2781440   0.9206442  82.8565854   8.5615386  71.0297775
  82.6542539   9.0783442  71.8096590  82.2074622   7.8580893  71.0335541
 115.9060014  17.4178457  23.3338599 115.6921947  18.1518173  22.7578310
 115.9246123  17.7996301  24.2114214  88.7390518  73.3155489  76.2274504
  89.2698956  73.8013315  76.8586826  89.3759727  72.8364038  75.6973696
 116.6479176  11.5268744  61.1029196 117.0247191  10.9449328  61.7629194
 116.7802257  11.0665740  60.2741575  60.0801039 108.3208847  69.6910048
  59.8842049 108.6361694  68.8087082  60.0823212 107.3671532  69.6095514
  38.4061408 101.6666126  66.5997028  39.3069482 101.9591427  66.7382860
  37.8770089 102.2595024  67.1333027  26.7251331  20.2514266   7.1611743
  26.6193134  19.3293523   6.9270472  27.2948200  20.6077766   6.4794878
  91.9793129  73.8146496  88.7561417  92.1576691  72.9140377  89.0269279
  91.0301971  73.9063740  88.8397217  30.5693848  15.2230930  43.2361559
  31.4021570  15.2154063  42.7642779  30.0132067  14.6140622  42.7503733
  80.0177479  43.4044886  94.9413776  80.2940273  44.2976332  94.7359657
  80.4831409  43.1897640  95.7497883  72.5501823  78.8613558  90.0621796
  71.9309855  78.7819052  89.3365669  72.1592760  79.5168018  90.6399441
  28.2073338  22.5673150   8.3336119  28.7180836  23.3766555   8.3520560
  27.6773340  22.6366185   7.5395541  90.0443459  89.0768814  85.4746532
  89.2086220  89.0275288  85.9387207  90.1261425  89.9975491  85.2258492
   9.2232210  40.1323175  28.1205897   8.4179003  40.1385831  28.6379485
   9.0129358  40.6506585  27.3438506 100.1708031  75.0473499  91.5472412
  99.5417309  74.4791460  91.1026764  99.9642181  74.9520826  92.4770164
 101.1891574  12.3877276  68.5755825 101.3822907  13.1080187  67.9754877
 102.0152539  11.9099844  68.6500549  22.4937803  29.2749166  13.1364493
  22.1046288  28.4058809  13.2343153  22.6687987  29.3547582  12.1987776
  44.4124651 100.8466721  88.6054611  43.8916349 101.5250397  89.0353298
  45.2805233 100.9243584  89.0012741  36.9468379  62.2351694  69.6435881
  37.3261142  61.5714550  70.2196646  37.5932670  62.3446703  68.9461851
  22.8431923  16.1412572   7.1682982  21.9266827  16.2269687   7.4307684
  22.9120285  16.6589450   6.3661150  52.4778444  49.9361181  20.7425742
  52.4194319  50.8914899  20.7520823  53.3902819  49.7497415  20.9638075
  53.8555765  98.0420971  86.6476727  53.3010244  97.2620392  86.6331768
  54.5287800  97.8696442  85.9894276  38.9867956   9.7716712   3.5310416
  38.0786783   9.4772004   3.4614710  39.3027908   9.7891568   2.6276736
  25.1924688   4.9994039  35.2013068  25.9825976   5.1906776  35.7066302
  25.5076391   4.8567485  34.3088107  38.6370022  26.3133668  12.2112326
  38.5949404  27.0038270  12.8728442  38.7529976  25.5069398  12.7136759
  32.7909357  63.3208322   5.2911143  33.0951435  63.9489888   4.6360449
  32.1007616  62.8276490   4.8476462  58.6296940 103.1292629  93.2958221
  58.4519911 102.3050022  92.8427792  58.8550854 102.8680515  94.1886902
  34.4695933  61.1461782  28.4990744  34.5390446  60.2129983  28.2976012
  33.7690718  61.4628362  27.9287772  21.3408065  83.8682270  86.4337158
  21.5272522  84.6290970  85.8836842  21.5664864  83.1160069  85.8864784
  23.3220989  47.4424409   0.0288062  23.4206087  48.3687352  -0.1914640
  22.8760750  47.4437665   0.8757357  56.0202963  13.2187223  21.1944060
  55.8874209  12.2737741  21.2695937  55.7502825  13.4281587  20.3002791
 111.8812674   6.0181654  81.6774178 111.2619895   5.2991427  81.8028355
 112.4020356   5.7560767  80.9182453  30.9012587  52.0674562  28.9069609
  31.0190899  52.3873472  28.0125193  30.6378204  52.8411054  29.4052557
  78.9844227  68.6598825  86.8538094  79.8395872  68.2354116  86.7848873
  79.1364002  69.5552588  86.5514374 105.1964653  63.1227350   5.4071860
 104.6753776  63.7549829   5.9021239 105.0704205  63.3727693   4.4918589
  46.2672949  90.3257275  88.7141132  46.0828590  89.6617985  89.3785095
  46.3880777  89.8281574  87.9053688   5.0410730  15.4427099  28.1368880
   5.1354248  16.3673400  27.9079966   5.9067185  15.0668239  27.9768900
  34.8865760   1.1843050  92.6101971  35.0310767   0.6374587  91.8379879
  35.6941951   1.6901911  92.6999664  66.6991568  93.4553242  91.5842819
  67.3557520  93.5186291  90.8906651  67.2086239  93.3434391  92.3868752
  73.1745434  83.2736301  66.1158228  73.5626316  82.4758053  66.4751387
  72.3653364  83.3914280  66.6133547  54.8029978  21.1678600   4.2060141
  55.2361471  21.9947910   4.4176631  53.8866408  21.4064502   4.0659861
  40.5567867  36.5230321  12.3897604  41.0609324  35.7857751  12.7340369
  39.6452171  36.2361955  12.4444441  58.6677551  75.4880190  94.9312782
  59.3980122  75.5837440  95.5426693  58.7513208  74.5952606  94.5962620
  32.5790334  81.9493389  66.2014627  33.3456779  82.2411060  65.7081461
  32.0190167  81.5302467  65.5480337  49.3504030  28.8766050   4.6095042
  49.0861494  29.7216462   4.9732451  50.3014261  28.9404630   4.5217757
  33.2750351  56.5283059   0.2805571  32.7464659  55.7909059   0.5856566
  32.6890690  57.0217943  -0.2933355  52.4331267  19.5552015  27.8878932
  52.6090414  19.2494630  28.7777380  53.1294233  19.1659354  27.3588614
  85.6285572  42.0313501  83.4653854  86.5041351  41.7451763  83.2052231
  85.7804012  42.8095341  84.0016747  28.2784683   6.7183685   0.3408007
  28.3340389   6.8297052   1.2898783  28.9004929   6.0176610   0.1450209
  17.1383155  14.4163168  95.0064659  16.7726958  15.1411189  95.5136204
  17.9695476  14.2176856  95.4375362  36.9524128  25.2537011  33.1623129
  37.1918518  25.2918386  32.2363333  36.0698921  25.6227445  33.1968932
  89.8264599 104.2625332  85.6372833  88.9822674 104.6758270  85.4562950
  90.4429054 104.7147369  85.0613022  60.9181213  58.4076023  85.2348042
  59.9856091  58.4220839  85.0192928  61.1749077  57.4919367  85.1259708
 105.6586540  41.1392736  28.5408644 106.5640486  40.9025621  28.7420134
 105.7279861  41.9632386  28.0586771  92.6058597 102.3882876  21.8278269
  93.3652419 102.5972234  22.3718123  92.4475449 103.1849633  21.3213973
  87.7974671   9.8674906  93.9050388  87.7286071  10.6646002  93.3795738
  88.6835927   9.5463503  93.7380505  64.9305010 100.9438992  85.0519848
  65.7974768 100.7213974  85.3912163  64.6142292 100.1334095  84.6528625
  46.8931372  23.2510280  22.3568396  46.8837530  22.5025796  22.9534678
  46.6947920  22.8758764  21.4988474  18.7206156  18.5501575   3.5045104
  17.9942782  18.4910058   4.1251235  18.3058388  18.7717199   2.6707797
  93.0071259  78.8125610  92.8166389  92.4096107  79.0325737  93.5313511
  92.6290512  79.2400742  92.0481873  68.3169270  78.8203764  87.0490646
  67.7642107  79.1058207  87.7765656  68.3532429  79.5774555  86.4644718
  81.2351036  93.7169838  87.4712944  81.2783051  94.1367245  88.3304787
  81.9200325  94.1475201  86.9596958  30.0211603  19.9268865  37.6242785
  30.1626379  20.7640981  37.1823649  29.0747912  19.7900390  37.5808482
 111.9560707  22.2252845  18.6985640 112.0055950  23.1461238  18.4419875
 112.7459920  21.8308305  18.3288817   9.4537623  17.8724956  28.9223818
   8.9367468  17.9788064  29.7209029  10.2085669  18.4477090  29.0474085
   4.9386627  35.9771966   3.8677840   4.0221340  35.7731103   3.6818747
   5.3685314  35.9486818   3.0130152  22.2635777  22.4516391  10.2646212
  22.9027731  23.0003928   9.8101668  22.1759541  21.6765117   9.7098879
  31.8903572  19.0610360   9.6940379  31.4125044  19.8488712   9.4348006
  32.6798041  19.3902492  10.1237158  28.1969673  66.8535661  14.4973807
  28.6184818  67.0963716  13.6729960  28.4543593  65.9425210  14.6387534
 102.7203846  76.9509125  88.3503342 102.0611286  77.5245857  87.9597950
 103.5227585  77.1429777  87.8650188  54.3442345  99.3668938  90.1657677
  55.2407074  99.0314007  90.1693249  53.8249397  98.6585999  89.7851372
  33.0619938  33.4131574  11.0954527  32.1259291  33.2185888  11.1418681
  33.2032377  34.0737199  11.7736487   3.0939240  68.4640121  68.2973146
   2.4395985  69.0893984  68.6087179   3.8376660  68.5812712  68.8883638
  79.3779707  78.3812523  86.7838383  78.9060545  77.5901127  87.0438862
  79.4843292  78.8748837  87.5970078  54.0351677 106.8772316  74.4491291
  53.3518791 106.7581749  75.1088047  53.7502718 106.3404083  73.7096167
 111.1247051  17.0984744  22.0115237 111.5197122  17.2378873  22.8722052
 111.7739189  17.4333286  21.3929514 108.6888790  63.3383703  79.8807859
 107.7792358  63.1453466  79.6537685 108.6555481  64.2038298  80.2883434
  99.4953346  62.8620815  91.4457321  99.8104286  63.5472345  90.8562374
  98.5413933  62.9239082  91.3966084  86.0633755  67.1111727  74.8387146
  85.7235813  67.9992104  74.9489927  85.2823067  66.5655327  74.7469234
  92.1037483  82.4273014  74.4799566  92.0641899  82.1249390  73.5726309
  92.1279144  83.3818817  74.4134665  39.1874439   8.4146928  28.9300780
  39.3822176   9.2031097  29.4367175  39.6061499   8.5650968  28.0825476
  97.2608376  58.5859346  67.2826529  97.4279881  59.2057610  67.9926634
  97.3773289  59.0999413  66.4836168  71.9575977  99.8997211  87.7215672
  72.5849247 100.6151581  87.6174736  71.2071514 100.1595402  87.1872044
  80.8638287  96.3632202  73.7450933  81.5409184  97.0364952  73.8121414
  80.0437546  96.8320179  73.8997936  33.4957535  27.1540498   6.0014586
  33.1625445  26.8484926   6.8451647  33.4405405  28.1082296   6.0534911
  89.5836639  83.8116741  85.4988194  90.4412270  83.5077000  85.7961655
  89.4274044  83.3302975  84.6863651 101.3212860  42.8662919  35.1898627
 100.8645141  43.2060861  34.4203524 101.5111673  43.6419725  35.7175974
  48.1768496  38.3073568  36.8880515  48.6883623  39.1159486  36.9156699
  48.1599695  38.0661344  35.9619002 105.1123905  92.3038292  95.8199978
 104.6960831  91.8573761  95.0827122 105.9637356  92.5816822  95.4819870
  24.1145451   3.8341665  11.2758021  24.9097855   4.3515634  11.4027648
  23.5623390   4.3777179  10.7137923  38.8321097   8.4808730  24.5822482
  37.8939564   8.5783815  24.4191889  39.0998871   9.3226289  24.9509959
 103.9929903  11.7330694  51.7084174 103.8930762  10.8595657  51.3299422
 103.2949293  11.7927932  52.3606162  80.8740616  89.5717525  70.0571251
  80.9113407  89.5855808  71.0134983  81.7907715  89.5631981  69.7817945
  49.0805609  23.8814449   2.8947501  49.4738848  23.7211990   2.0369296
  48.2652838  23.3800649   2.8818564  69.0174627  79.7492170  89.8918819
  69.6786690  80.3123760  90.2942371  68.7503767  79.1547823  90.5929852
  40.0494940  27.1200990  35.3839545  39.7681410  26.2167978  35.5292754
  39.4710667  27.4429082  34.6929793   4.2507774  24.3778466   8.5638003
   3.6931212  24.7063684   7.8585867   3.6850149  23.7872791   9.0611701
  82.2051686  99.7991286  10.6431727  81.8201322  99.1510592  10.0532774
  82.9274768 100.1790248  10.1429896  81.8984890  79.0519762  82.3960495
  82.6324749  78.6878014  81.9011879  82.3021889  79.4407082  83.1720257
  54.7482474  22.9886436   0.8838706  54.3738157  23.0492305   1.7627100
  55.6745989  22.7975654   1.0308508  29.6486408  16.3883256  16.9135050
  30.1569159  16.3170003  16.1055426  29.8521788  15.5870914  17.3960261
  62.4192507  14.9496078  22.4170546  61.7717726  15.3676509  21.8493895
  62.1575529  14.0292024  22.4415926  85.5198002  67.4464893  85.9495735
  85.1547623  66.6318321  86.2949848  86.4653683  67.3534441  86.0657024
  52.5387859  90.7205105  88.3091927  52.7044439  90.1427078  87.5642490
  51.6040468  90.9193611  88.2548428  70.3041697 103.0362892  68.0666161
  69.8368740 102.2047901  68.1471443  70.9163904 103.0392075  68.8024235
  62.7643568  29.7914361  27.9833750  61.9530470  29.3139600  27.8101019
  62.7100069  30.0279283  28.9093070  84.2881489  43.1345844  81.1011410
  83.7228298  42.6959801  81.7369652  85.1467133  43.1627941  81.5233898
  27.7719195  27.4816751   9.7857527  28.5428745  27.4098825   9.2229895
  27.8202278  28.3670282  10.1463751  67.3234844  47.8924656  84.9741459
  66.7504787  47.8145456  85.7369137  67.8243876  47.0768261  84.9665451
   0.4175819  93.4494482  21.2212805   0.4801524  92.8845964  21.9915156
   0.6926263  92.8926025  20.4929213  66.2835407  88.3210278  82.2150135
  66.6326284  89.2122459  82.2047329  65.3495550  88.4316826  82.3929596
  52.3388464   7.6266479  20.2962355  51.4853842   7.4416732  20.6881766
  52.9703600   7.3961877  20.9776358  64.2787344   3.4527158  15.9575133
  63.9129812   3.1525945  15.1254134  63.6483080   4.0980720  16.2773757
  56.3232470  96.7210579  85.5908680  56.3076353  96.0707855  86.2930965
  56.8342304  96.3090229  84.8941898  42.8622896  28.8937806  29.9210696
  43.2171042  28.0055951  29.9593596  42.9789240  29.2367029  30.8070902
  34.7717363  25.8744001  35.2431635  34.7742922  25.3135824  36.0188632
  34.0962631  25.4989194  34.6783690  61.4890654  29.6242856  18.0497317
  62.0072729  30.3745984  17.7586703  60.7515890  30.0111436  18.5216574
  85.5060101  99.6889687  62.6110554  85.9172344 100.4358864  63.0460644
  85.5564404  98.9805222  63.2527733   4.3786652  15.5741596   5.4300456
   3.4923393  15.2288293   5.3232626   4.2513640  16.4978074   5.6466250
  52.5304491  39.7093915  32.2587161  52.5000460  40.4223966  31.6208033
  51.6118319  39.5025682  32.4307303  69.3179972  31.2972211   9.2311053
  68.9283926  31.2329435   8.3591513  69.4969160  30.3906774   9.4809107
  71.3256025  79.1044044  87.0401955  71.4292526  78.8135242  86.1341763
  70.4548168  78.7971163  87.2922802  47.7635367  48.8317251  14.6730666
  48.5412104  48.4533643  15.0833182  47.6656420  48.3475065  13.8532023
  89.1858482  67.4958038  94.6165943  89.3950558  66.5956688  94.8660374
  89.3877983  67.5384235  93.6819172  20.7824499  31.2188482  38.8722758
  20.6967146  30.6717443  38.0915312  20.0872976  31.8710851  38.7851958
  53.7178499  19.9605369  23.9108901  53.5624582  20.8988523  24.0188365
  53.6808569  19.8189067  22.9649500  76.2305212  79.1808558  85.6115055
  75.5676889  79.4498825  86.2475204  76.7929220  79.9490213  85.5122280
  55.7596111 102.6346493  93.9780712  55.5474138 102.3494053  93.0893421
  56.0393238 101.8360710  94.4255638 110.0086212  87.6154995  94.2042637
 109.7138691  87.1051979  93.4499836 110.1113415  88.5051060  93.8662243
  96.7989254  84.6571827  68.4938526  97.0856762  84.1164780  67.7578878
  95.8430004  84.6312141  68.4519911   0.1793063   3.1176318  78.2173729
  -0.2907454   2.3432768  77.9080725   0.9892333   2.7721251  78.5927153
  29.9846918  33.7568902   4.5091013  29.7578890  33.9571237   5.4172377
  30.7110626  33.1369638   4.5747523  75.3654242 101.3523197  52.7570295
  74.9994850 101.1709118  51.8913460  75.5550337 100.4883099  53.1227684
  23.9633877  34.2483377   3.8693957  23.9238579  35.0922441   4.3193678
  23.6981995  33.6107873   4.5322947  85.0242805  85.1115608  73.7456036
  84.3471241  85.1052570  73.0691004  85.5902195  84.3718052  73.5249043
  34.3490631  62.8481340   7.3776488  34.5250780  63.7842702   7.4719958
  33.6628277  62.7993345   6.7121176  15.3555042  44.2756604  13.7266783
  16.1555273  44.6918821  14.0475516  15.1809342  44.7057294  12.8895430
  16.1470760 109.3452893  14.3732790  15.9166969 109.5071469  13.4584193
  16.6428722 108.5267268  14.3541960   8.2980216 102.9760562  10.1164107
   8.9903796 102.8113995   9.4762854   7.4968017 102.6806651   9.6839385
  18.5186846  51.9738721  18.2084612  18.6244757  51.7247342  19.1266016
  18.9721043  52.8136110  18.1343798  72.8983641 100.7821369  90.8931351
  73.7605286 100.5916309  91.2627506  72.5812149  99.9362659  90.5766773
  42.1901877  34.6518468  13.7714438  43.1143934  34.8133897  13.5817580
  41.9876654  33.8417768  13.3034758  67.5279427 107.1863937  78.6504745
  66.7015743 107.6549721  78.5330772  68.1907558 107.8758717  78.6896658
  90.2124596  94.8773384  72.4349117  89.9776649  95.5321026  71.7773533
  90.6882000  94.2062569  71.9454670  45.1861365  57.1185064   4.9821620
  44.3732149  57.5308370   5.2743392  45.8787615  57.6661252   5.3517775
  28.9268858  30.4001283   2.1082263  28.2876379  30.2471303   2.8040652
  28.7033255  29.7599649   1.4326243  86.6679478  88.3046722  70.7762718
  86.8875599  87.9639435  71.6434002  86.2330532  87.5748730  70.3352594
  41.9773734   6.0361231  76.3850069  41.4358485   5.2555979  76.2676764
  42.6953090   5.9254492  75.7616663  74.8440821  29.7638845   7.0477156
  75.0403864  30.2779054   6.2644629  75.2921660  28.9300775   6.9055228
  31.0845978  53.3710527  13.9199023  30.4166729  52.6993608  14.0575366
  31.5850622  53.3818960  14.7357802  92.8299522 105.2300072  87.8295708
  92.4359322 106.0902786  87.9742241  93.6063480 105.4083538  87.2988701
  66.9504642 102.9144955  94.6369267  66.7514324 102.2212315  95.2662182
  66.3112450 103.6011791  94.8269272  51.2140811  12.3557414  73.9117527
  50.5733264  11.6647185  73.7439775  51.8861449  11.9342936  74.4474220
 102.4055576  72.3885489  73.8478518 101.5395927  72.5832129  74.2062473
 102.3564434  72.6727390  72.9351330  39.9027694  14.3155325  78.5013485
  39.1521896  14.3590773  77.9089308  39.6918262  13.6016692  79.1031265
  24.1243393  48.8669347  33.8518481  23.9798529  49.7583913  33.5345988
  24.9458105  48.9168596  34.3406443  50.7971365  13.1699323  17.0698885
  51.1984617  14.0389251  17.0744853  51.5318758  12.5662040  17.1789412
  73.7925703  59.6218061  15.1480059  74.3482573  60.3445863  15.4396204
  73.8048346  59.0012025  15.8766608  29.7702105  10.8440494  34.6112399
  29.6986658  11.7878436  34.7539286  30.5838806  10.5964183  35.0503878
  46.0985231  59.5483780  83.0815220  45.9847689  59.0219164  83.8728046
  46.6339827  59.0025902  82.5056458  79.0976000  75.0162792  81.1480522
  79.3289518  74.3426085  81.7874908  79.4256592  75.8308315  81.5289879
  90.5696583  56.4567423  89.7821999  90.9931564  56.8901396  90.5231667
  89.6613884  56.7569494  89.8163128  50.3909397  99.6761227  88.0605793
  51.1915445 100.1733398  87.8931236  50.1815701  99.2690372  87.2199345
  92.7571297 107.7689838  94.5741081  91.8867016 107.6646042  94.1898155
  92.9140854 106.9468212  95.0384808  87.1568871  99.1953659  67.5372934
  87.4713039  99.8453712  68.1656790  87.8333855  99.1696167  66.8605995
  12.6101077   8.5545290  86.9201183  13.0629504   7.7217711  87.0530891
  13.2897151   9.2182101  87.0379448 105.1334858  71.4313221  92.3050880
 104.2281723  71.3667345  92.6091671 105.0627232  71.7688227  91.4121628
  83.9350605  77.9126263  81.1376667  83.6070061  77.0140553  81.1032295
  84.4466686  77.9500198  81.9458008  20.6714852  45.2273511  32.6951556
  20.2783472  44.9760865  31.8593649  20.9257013  46.1422967  32.5748114
  84.7840118  98.4746552  46.8138933  84.7315502  99.0882015  46.0810614
  84.1858864  97.7661037  46.5763378  43.5065044   4.1562117  88.7402916
  42.8818668   4.8734988  88.6327648  43.5738719   4.0372885  89.6876907
  47.4018080  11.8081855   7.4316268  47.3146231  10.8857869   7.6720671
  46.9009001  11.8926000   6.6203360  32.0580227  16.2420224   6.4708762
  32.7525265  16.2144326   5.8127455  31.2465698  16.2353992   5.9632067
  90.3097725  81.8818092  92.2102070  89.6679688  82.2602081  91.6092587
  90.8353329  81.2982559  91.6629601 106.9048214  97.9671001  67.5200319
 107.4073982  98.7816048  67.5047874 107.1462631  97.5521564  68.3481312
   7.3795284  10.2773798  80.3791714   7.1504939   9.4106139  80.0437546
   8.3217300  10.2301920  80.5412388 103.4336090  95.7061768  84.1176033
 104.2427635  95.6932354  83.6063957 103.5174084  94.9649811  84.7174740
  99.6580887  71.9064522  75.1906204  99.6615314  71.2342691  74.5091534
  99.6005154  71.4159489  76.0105753  90.0704193  92.1483803  92.2355938
  90.7382107  91.6941833  91.7218018  89.2632198  91.6647434  92.0602226
  92.3344326  94.2545795  56.1625004  93.2837296  94.2164421  56.0458755
  91.9881344  94.3569851  55.2760315  61.9714403  99.4857788  91.6580009
  61.5766621 100.0104904  92.3544598  61.4506435  99.6884918  90.8808804
  58.4867430  94.5711040  89.7250843  58.9562702  94.0046597  89.1127777
  58.3680010  94.0320683  90.5071068  34.8274196   3.6727084  71.0467863
  34.8360980   3.0748785  71.7942858  35.7151569   4.0292872  71.0149622
  37.6973707  50.4936361  18.7853961  38.1278116  49.8586606  19.3578963
  36.8917305  50.0578832  18.5073714  45.6497080  69.9552392   2.7164225
  44.8479063  69.4354104   2.6605467  45.7198126  70.1886510   3.6420779
 109.0081013  19.3013620   6.7348914 108.6445344  18.4755658   6.4153342
 109.0518844  19.8600053   5.9588580  95.6371212  97.0845318  89.6862125
  94.7708225  96.8831062  89.3323898  95.6182671  96.7372990  90.5780125
  74.8139364  63.3249711   9.0659289  74.7615893  64.0561723   9.6814208
  74.3218882  62.6208066   9.4881491  97.2731495  53.4055853  77.2465563
  98.1931114  53.6261988  77.3922253  97.2980785  52.5684404  76.7830849
  86.7885322  11.2631739  88.9932632  86.3382167  10.9407843  88.2125473
  86.7360848  12.2163905  88.9235401 109.9584770 101.1312962  89.9310970
 110.6846523 101.4885807  89.4199753 109.2918968 101.8180084  89.9126148
 107.5450039  92.7335167  94.7632980 107.4882412  93.6606216  94.5320225
 108.0115128  92.3319244  94.0302753  72.3100424  81.2681389  77.4317932
  72.1200800  80.4576397  77.9042816  71.9376898  81.9582653  77.9807043
   2.6343102 100.6290436  68.9485884   3.0884308 101.4034939  69.2806101
   2.5804848 100.0414467  69.7022915  16.1706001  26.3652944  41.5265231
  15.5621082  26.1793851  42.2416548  17.0366509  26.3238763  41.9320826
  82.9656124  83.2151413  78.8209343  83.0165100  84.1674423  78.9031267
  82.7569962  83.0651283  77.8988695  77.8696012  88.8846302  81.3702774
  77.1376610  88.6384869  80.8046722  78.5877037  89.0707111  80.7653522
   9.1944564  47.8388728  69.5200253   9.8496211  48.4726561  69.2279387
   9.0923846  47.2412814  68.7792873  75.9002972 101.3332748  82.3911667
  76.0489082 100.8608627  83.2103062  76.3295221 100.7972813  81.7243004
   0.1152433   4.6638430  94.0119076   0.0181115   3.8216151  93.5675716
   0.9956992   4.9578036  93.7782097  95.0069714  82.6167774  65.7183743
  95.9004021  82.9600430  65.7046509  94.9031448  82.1852303  64.8703051
  32.5755436  31.7944574   5.7553439  32.5943691  32.1724748   4.8761420
  33.4482700  31.4194917   5.8735709  29.0819151  38.5624837  16.5419917
  29.2033894  39.2459058  15.8828978  28.6609347  39.0098142  17.2760920
 116.9177878  35.9511995  12.8784613 116.1183226  35.8866929  12.3560385
 116.7284072  35.4464864  13.6694388  33.8920498  64.7395611  85.3638744
  34.3835402  64.7317743  84.5425224  33.2526922  64.0338039  85.2670956
  75.1562834  88.2641506  77.1042395  75.4141426  87.3424721  77.0884323
  74.8234177  88.4348774  76.2231684  76.5469646  72.6014471  86.1732292
  76.1107683  72.0817471  86.8484116  76.3302469  72.1585798  85.3527832
  87.2239304 102.3751736  72.8012609  87.9458714 101.9425297  73.2571650
  86.4526653 102.1782780  73.3328819 102.7098656 102.5203609  83.9991760
 102.3799133 101.6280651  83.8935089 103.6072731 102.4846649  83.6680889
   0.5207199  83.9070892  71.6546869   1.3067765  84.3727303  71.3691664
   0.8523125  83.1203556  72.0875072  45.6152231  26.9216584   1.4235930
  46.5085680  26.9515752   1.7660574  45.3771002  25.9951257   1.4562373
  85.0039387  72.6809263  87.7928066  85.3117657  72.3268461  86.9584751
  85.1627064  71.9790840  88.4240246  72.1133518  79.0113115  78.8570166
  71.3758659  78.4011650  78.8651896  72.7151680  78.6684942  79.5177174
  81.7540533  74.6395444   4.9624400  81.7557318  75.3981160   4.3786578
  81.2796290  73.9647054   4.4768862  10.8930839  30.2773798  61.8779278
  11.1204303  29.5604266  61.2858820  10.8949722  31.0567034  61.3221502
  62.6219082  45.0001478  71.3872385  62.7872419  44.4233942  72.1330595
  62.3992825  44.4065094  70.6701231  62.9112990  66.5531396  12.9488043
  63.6486799  65.9485292  13.0321650  63.1565172  67.1318483  12.2268633
  17.8937686  20.3910006  83.8378239  17.7376044  21.1571158  84.3900204
  17.7675689  19.6441782  84.4231033 106.5806234  53.6655664  20.7131056
 106.2559331  52.7731942  20.5928282 106.3149894  53.8992452  21.6025214
  92.3682117  63.4821749  85.4936504  91.5764141  63.9576674  85.7450581
  92.8099823  64.0631199  84.8743248 116.2567914  25.6251573   8.0173831
 116.7245806  25.1648759   8.7141947 115.6365025  26.1902093   8.4780364
  71.4531040 108.3799076  91.0565281  71.3216162 109.1316795  90.4787922
  71.9787598 107.7695274  90.5394554  15.0376076  82.1134663  71.1955547
  14.1539330  81.7632294  71.0829258  15.5878872  81.5568638  70.6445360
  72.2819121  31.7876100   7.9614977  71.7150671  31.3200807   8.5749583
  72.5442583  31.1234712   7.3240523 103.5219765  89.3383217  73.9876795
 103.4551811  89.8864174  74.7695732 103.9046097  88.5189724  74.3015051
  62.8424246  84.0130662  32.7911906  62.6272852  84.9451112  32.7558760
  63.7571413  83.9888810  33.0721812  58.1893046  66.3708162   2.0717101
  58.5104830  66.9331312   2.7766089  58.8801558  65.7192849   1.9514422
  21.3120998  13.8860548  52.7316666  20.8110584  14.4241084  52.1187305
  21.6741050  14.5117987  53.3590698  13.3321888  10.9414529   1.2158160
  12.8316338  10.1474094   1.4033656  13.2735045  11.4571332   2.0200972
  16.6491283 108.0744372   3.1263976  17.2746242 108.1899081   3.8417010
  15.9940303 108.7577449   3.2684378  33.1010086  64.4370603   0.6190543
  32.3396666  64.8415612   1.0349612  32.8525955  63.5196828   0.5053000
  64.0423536 102.3545074  75.7860470  64.7820377 102.6216602  75.2404070
  64.3022776 101.5051174  76.1426973 107.5692940  90.3896141  69.3311977
 107.4045944  90.3899860  70.2741194 108.5065842  90.5668449  69.2517042
  75.7043409  85.5076790  77.1553612  75.8770561  84.9340534  77.9019213
  76.3444281  85.2411938  76.4954329  92.7250099  88.2316685  91.4966011
  93.3945560  88.0491352  90.8373356  92.7072906  89.1864586  91.5620041
  28.2813341  34.2047929   9.1177420  28.7299282  34.2231035   8.2723670
  27.3718435  34.4199800   8.9109759   6.2313635  13.2462692  22.3544650
   5.4785664  13.8338756  22.2893099   5.9727318  12.4697351  21.8581442
  89.3535900 100.5369949  94.5864296  89.8543644  99.7212410  94.5830917
  89.4819260 100.9004021  93.7102509  51.9337256  29.1035985   4.3763976
  52.1307261  30.0290250   4.5213179  52.7605040  28.6529302   4.5483737
  92.1124458 104.7371864  83.7761879  92.0292187 104.5953369  82.8332233
  91.9639874 105.6757736  83.8912392  93.0968475  97.7324486  88.4733391
  92.8008175  98.4923458  87.9721928  92.5257015  97.7146816  89.2412663
  64.2741585  87.6584530  88.5449219  64.2364550  88.6148834  88.5513687
  65.2019167  87.4561310  88.4242249 102.6504517  96.8380737  87.4756908
 102.8687191  96.5137291  86.6019726 103.1284046  96.2612915  88.0716038
 110.9146976  93.3233833  88.0451012 110.5563927  94.0005398  88.6189556
 111.7847633  93.1434059  88.4012222 115.2632046  89.2837143  85.8298302
 114.3918705  89.4402981  85.4658318 115.8304024  89.9006081  85.3672695
 105.6516647 104.8177814  68.4892797 105.0503445 104.4746876  69.1502953
 105.2379990 104.6011543  67.6537037  58.9806254   3.5237264  11.0823874
  58.6801703   3.0301666  11.8455081  59.1865046   2.8542136  10.4300074
   4.3436111   4.8894824  88.6860657   5.1317085   4.7995032  89.2218399
   4.2347682   4.0322627  88.2742977  92.4237889   2.8861369  89.8567295
  92.8489655   3.6969794  90.1360035  91.5925473   3.1702174  89.4765186
   7.5984252  12.8264464  69.5736885   8.4810413  13.1688250  69.4322777
   7.0257056  13.5841502  69.4548321  83.2925224 106.6028309  66.9850254
  83.0070877 106.2869549  66.1277151  83.1880379 105.8486271  67.5651121
  46.6661627  57.6023816  29.6865229  46.5248091  57.5875139  30.6331114
  46.3350565  58.4563016  29.4082884 113.6588918  85.0813018  64.9670410
 113.3886182  84.7805916  65.8346558 113.1834208  85.9021627  64.8391914
  60.7434911  46.9564567   4.2790656  60.4674238  46.2426661   3.7041525
  59.9337262  47.2608350   4.6887736  23.3538985  13.5801053  62.2305298
  23.0990791  13.8908768  61.3617849  24.2443919  13.2486939  62.1146774
  43.1646299   1.8169749  82.6913357  42.7556181   0.9570315  82.5941944
  43.8105822   1.8560132  81.9860268  60.0810719   7.1299499  61.3794327
  59.1261292   7.1400034  61.3145018  60.3138494   8.0252343  61.6254234
  63.4770197  40.6090973  24.6285300  63.9676589  40.7655893  23.8216738
  62.6968903  41.1573587  24.5446257  75.8939403  38.5961400   6.5699152
  75.8490318  39.1586242   7.3431067  75.1759166  37.9736207   6.6845660
  34.7287893  10.7145536  78.3300972  35.1873255  10.3367734  79.0806007
  35.3544474  11.3337076  77.9540205  99.0049142  77.3644720   2.5302939
  98.6757916  77.1478735   3.4026484  99.0974873  78.3171449   2.5389533
  68.3244652  44.8248266  10.5562262  68.0448026  43.9100288  10.5903868
  67.6315326  45.2690308  10.0676016  16.5475160 101.1519652  57.0250940
  15.6467038 101.1589449  57.3486996  17.0737725 101.4276057  57.7756310
 109.9425709 103.2582497  67.9235268 110.1968562 102.3412304  68.0267143
 109.1267502 103.3376550  68.4178591  95.5963706  69.3979894  77.7480078
  94.9547803  68.7805854  77.3967171  95.6889140  70.0619184  77.0647287
  13.2986957  77.1704804  88.4695911  13.9134675  76.8045699  87.8336716
  13.5861760  78.0759012  88.5870552 100.9519357  84.4759785  18.2784991
 100.1189774  84.9188648  18.4405665 101.6158217  85.0981055  18.5758929
  47.4051142  18.8936150  41.6310787  47.1345091  19.2688668  40.7931089
  47.8834677  19.5993447  42.0662308  10.6198275  11.3300300  69.7898340
  11.5588546  11.1460650  69.8146963  10.2287018  10.5318046  69.4347477
  27.7382928  90.5769645  90.7581043  27.6152497  90.5423509  91.7067242
  27.2717744  91.3668143  90.4847336  54.9164581   0.9227303  83.9775562
  55.7940102   1.1600448  84.2772388  54.9857998  -0.0024780  83.7421513
  33.7629938  23.0979705  70.5581760  34.1069221  22.2056985  70.6005955
  34.5147991  23.6543727  70.7617426   9.4358796   7.0829505  89.6396828
   9.4315165   7.8260815  89.0363884   9.0702248   7.4321324  90.4524517
  36.4229441   3.6066020  90.7872105  36.9560790   4.0682930  91.4343929
  37.0511150   3.3037987  90.1315117  22.1673232  79.4516336  89.0128422
  21.6815740  78.9591276  88.3512497  22.6937228  80.0732576  88.5101318
 100.1761686  69.6439611  69.1739845  99.5868623  70.0298320  69.8221016
  99.5933472  69.2499839  68.5248804  20.6643105  15.6402361  82.9732418
  20.5121040  15.6210768  82.0284176  19.8816442  15.2382100  83.3501244
  20.5285197  82.8074299  72.2217131  19.6461803  82.4517070  72.1159983
  20.3915483  83.6873232  72.5727987   0.3401738  66.9816028  76.4409971
  -0.2432603  66.2234794  76.4080381   1.1097842  66.7135631  75.9389114
  79.4500464  49.3195204   2.3041873  79.3397635  49.0704106   1.3865714
  79.1733283  50.2351983   2.3387007  54.5232058  19.4278431  90.0899124
  54.8324919  20.0750709  90.7236862  53.9194107  18.8756967  90.5866909
  66.3590002  12.7721238  67.7544403  66.2187529  12.1557462  67.0356655
  66.0952568  12.2900891  68.5382223  87.3180169  84.6888409   3.6892180
  86.4269799  85.0335275   3.6302714  87.4188966  84.1502915   2.9043440
   4.0031636   4.8056144  42.8956890   3.7950832   4.5974526  41.9848633
   4.2946386   3.9745814  43.2707357   5.6357938  93.2063149  69.7391415
   6.3573581  93.7571477  70.0427294   5.2485448  92.8553962  70.5410910
  67.4750137  25.3485489  84.8113346  67.9600716  26.1343551  84.5594215
  66.7690372  25.6719875  85.3709888  73.7741661   2.8241575  76.7900610
  72.9400396   2.4007934  76.5869951  74.0472841   2.4301890  77.6185656
   0.9812885 105.4120540  52.1153212   0.4820043 106.0342993  51.5863991
   1.2304193 104.7214442  51.5011406  42.1120644  48.7731791  90.5978012
  42.3645306  47.9910755  91.0885239  41.6245365  48.4370708  89.8457527
  41.8311071   5.7715219  66.9048023  42.2664404   5.4737729  66.1060143
  41.2830448   6.5029693  66.6204786 109.4239675  74.6248065  93.2242298
 110.0562274  74.1304552  93.7458515 109.7654902  74.5828592  92.3310089
 114.4468080 109.3737839  72.5473595 113.5139214 109.2556175  72.3685026
 114.5218503 110.2829941  72.8370810  87.1598262  81.4485298   9.9757342
  86.2788218  81.0753427   9.9476103  87.4143046  81.5313612   9.0567069
  27.3336148   3.5076812  83.2048130  27.6170421   4.1085759  82.5157356
  26.6877818   4.0055677  83.7060452  16.2793946  13.0024219  73.7203217
  15.4343367  12.7055645  74.0579367  16.8918908  12.8494096  74.4398117
  22.6390409  42.0489073  85.3008652  21.6946769  42.1788788  85.2141762
  23.0246186  42.8499985  84.9461555 111.8513691  91.3815438  61.4617157
 112.6239549  91.9313132  61.5924788 111.1418545  92.0016288  61.2934494
  65.3424263   9.7411782  81.4135551  64.4283056   9.6494198  81.1448574
  65.2986240  10.1625955  82.2718811  59.1869229  43.1299530  15.1018672
  59.2484754  44.0670048  14.9164538  58.2524771  42.9334853  15.0352339
  43.9536715  30.9846759  82.9115582  44.9066257  31.0697865  82.9408646
  43.6395311  31.5714312  83.5995007  54.8761887  16.2209283   3.3454947
  55.1034349  16.8440162   4.0356783  54.0159255  15.8862029   3.5987525
   7.7107006  42.0941973  78.5235023   8.3011204  42.8467941  78.4884214
   7.5416988  41.9656610  79.4568539  27.8467917   6.1355537  76.6788626
  28.7724304   5.9641600  76.8522167  27.6120901   5.5112296  75.9923029
  38.5379726  87.1104943  86.0869312  38.2129985  87.8895532  86.5382481
  38.7642413  86.5027415  86.7909718 104.8260938 106.8544625  66.8847132
 104.8954903 106.4703577  67.7587175 105.5513465 106.4671378  66.3945961
 111.0089981 109.0536712  77.9473114 111.1214148 108.1125685  78.0811739
 110.1213848 109.2351919  78.2562208  22.0610213   8.4614003  78.1290674
  22.0066643   8.3450156  77.1805239  22.3191118   7.6016712  78.4614658
  26.2645602  23.7900972  77.6046324  26.3747668  24.7264218  77.4391603
  25.8116388  23.4613204  76.8281031  91.4730948  82.9420028   4.9556498
  90.5514115  82.6847325   4.9788241  91.6531581  83.2674847   5.8376174
  55.7212305  36.8179345  86.8802452  56.6016388  37.0349407  87.1868706
  55.8088350  36.7494011  85.9295273  49.7082663   1.0680027  58.0072403
  49.7713280   0.4837884  58.7628555  48.7894106   1.3354777  57.9873180
  58.9264965   0.0487518  58.4211493  59.5022106   0.8030263  58.5470581
  58.6433887   0.1131481  57.5090408 109.9061507  72.7515755   3.4201960
 110.3917664  71.9288348   3.4794287 109.4435376  72.6969765   2.5839953
 111.6984528  70.8103882   6.7792849 111.2355012  69.9942551   6.9685797
 112.1697682  71.0114740   7.5877718  15.6821424 106.6747411  85.6963634
  14.7637635 106.4069690  85.7296848  16.1676341 105.9016391  85.9841919
   7.0358288   4.9379066  89.4497871   7.7997720   5.5047196  89.5563030
   7.1883577   4.2137679  90.0569057  16.8540841  92.2760915  83.7856960
  16.9330770  91.3382982  83.6109447  16.2143069  92.3344420  84.4952774
  17.4561739   3.4608519  73.7129879  16.5655482   3.7875432  73.5853529
  17.5072503   2.6819071  73.1590319  18.5090554  21.9202495  93.3270645
  18.2390773  22.7982116  93.5963726  19.3591237  22.0495367  92.9064751
  33.1068826   6.0645086  95.1460075  33.6704898   5.5789715  94.5436573
  32.7357745   5.3941625  95.7197189  42.8345773  29.2414723  38.1758646
  42.2987440  28.4866415  38.4194712  42.6978594  29.3380962  37.2334246
  88.8477010  90.3411685   8.0122809  88.8735122  89.7569857   7.2544531
  89.0657109  91.2031518   7.6577525   2.8178787  16.2531042  80.3661537
   2.4527457  16.8011808  79.6715117   2.9713035  15.4061854  79.9473190
  57.2099686  17.6901603  73.8038731  56.4879608  18.2739699  73.5712719
  56.9140482  17.2486663  74.5999527  58.3390856  19.9482262  69.1908216
  58.0788755  19.3633342  69.9024582  57.7796030  19.6955442  68.4564114
  60.2053165  13.4685719  76.3152885  60.9715319  13.1703520  75.8251762
  60.5675411  13.9861202  77.0344305 104.1473305 107.0986595  87.6481438
 103.9746272 107.8794434  87.1220493 104.0965068 106.3738846  87.0249653
  96.0934085  54.2648955  22.8803305  95.4750222  54.5868001  23.5362296
  95.5417842  53.9658902  22.1574645  99.4533455 101.3725018  77.2838593
  99.7393095 100.4945551  77.0315409  99.1999256 101.7879807  76.4596128
  94.9671256  72.5181138  85.9977531  94.6249234  72.4137508  85.1099205
  95.3538691  73.3936845  86.0039902 114.3869943  27.3629533   9.1565089
 113.6955708  27.3377214   9.8179678 114.7426337  28.2496749   9.2154841
  82.0339748 106.8963413  80.2784729  81.3137480 107.4422075  79.9629831
  82.7949890 107.1914654  79.7784853  75.0290913  77.3208056  28.7888960
  75.1354116  77.3002492  29.7399573  74.2661518  76.7676125  28.6211733
 116.0934609  21.6478586  63.1204033 116.1874324  21.6503596  62.1678305
 116.2094091  20.7311082  63.3701134 113.5900056 105.1224189  65.0748158
 113.7739074 105.5423903  64.2345572 114.0281355 104.2732005  65.0191021
  11.8515140  91.2672078  69.5545149  10.9790784  91.6609894  69.5589399
  11.9608289  90.9372090  68.6626720   6.5770560  86.6858136  55.4610729
   7.3417264  86.2653791  55.8544445   6.8125325  87.6122271  55.4106760
  70.7642955 103.4040938   1.7062048  71.3580245 104.0463219   1.3172774
  71.3107294 102.6325713   1.8558554  61.3529730   7.6200044  78.2945395
  61.3159418   8.5754180  78.3397579  60.7834911   7.3927611  77.5594997
   8.0163699  93.5299765  65.8152723   7.2494870  94.0637886  65.6075096
   7.6652652  92.7873384  66.3066435  69.0022963  68.1866942   8.2572608
  68.4330672  68.3695458   7.5097422  69.8406094  68.5849212   8.0229907
  51.9209713  42.4978076  22.8170542  52.3394567  43.3079742  23.1081442
  52.2297448  41.8338393  23.4335188  71.7136926 109.2033635  18.8685374
  71.7979831 109.6401225  19.7161059  71.9858283 109.8633443  18.2308917
  28.2313424 100.9025710  66.4179134  29.1419726 100.8724420  66.7112970
  28.2360965 101.5181594  65.6849337  50.2325678   5.2709150  75.6254530
  50.1611710   6.1986536  75.8500338  51.1508322   5.1533657  75.3821325
  45.8825874  28.0818653  84.4476414  46.5210629  27.4229741  84.7204781
  45.0338221  27.6537824  84.5597744  17.1871591   7.7538949  68.5965490
  17.2704220   8.6996347  68.7185144  17.8746843   7.3798859  69.1476059
  90.2423476 107.5958355  53.4246922  90.0709724 108.4945459  53.1432962
  91.1181926 107.4029925  53.0901194  99.3800842 106.0755297  66.4017010
  99.6062362 106.6527500  65.6723833  99.4940292 105.1918231  66.0519743
  43.8296509  40.0420952  88.6425209  43.7033319  40.0885010  87.6948261
  42.9789972  40.2826738  89.0095997   7.2958386  27.0439053  64.0534401
   8.1897956  27.2509789  63.7810564   6.9415188  27.8766298  64.3653107
  29.7405225  93.8520907  91.4977551  30.3876573  94.5272755  91.7016411
  29.7982102  93.2365679  92.2285366  46.9998121   0.8611356  83.9364910
  46.7108679   1.7437539  84.1682816  47.7129221   0.6744716  84.5471191
  72.2612423  62.8035204   2.6349501  71.5501255  62.3133407   3.0475859
  71.8191165  63.4343551   2.0667891  24.2710376  13.9387333  93.6140251
  23.3478832  13.9324522  93.8669586  24.2959571  13.4580755  92.7866364
 104.9477588 101.2778406  66.5365458 104.6676814 102.1862852  66.4246702
 105.8245026 101.2486093  66.1535311  75.3682465  70.2921782   2.0543818
  74.7219271  70.6846700   2.6412825  75.5278224  69.4225202   2.4210696
  37.2956157   2.4565230  87.5933456  36.9826698   2.6049682  86.7010117
  37.5065064   3.3305565  87.9217052  64.7426414  20.5637574  91.8322849
  64.7153425  21.4369202  92.2235298  64.9200296  19.9772382  92.5676441
  96.7534274  79.1694723  18.4493594  96.8228787  80.0635944  18.7839560
  97.2452516  79.1821276  17.6282744  60.8210915  59.5013486   7.5987105
  60.5285925  60.4065953   7.4928526  61.5549129  59.4140591   6.9903330
  90.9247607  74.1316436  20.0764803  90.6594151  73.3304833  19.6248488
  90.8890218  73.9056884  21.0059409  74.0009564  79.2413865   9.3114905
  74.4205278  78.4071074   9.1013197  73.1177801  79.0013848   9.5918993
  64.5373863  91.8256675   3.6325697  64.0767878  91.9088374   2.7976088
  63.9059657  92.1276103   4.2855410  24.9242783  22.3524976  89.0619373
  24.7091818  22.2780895  89.9916840  25.8673215  22.5158000  89.0465927
  35.8982420  13.1607306  90.0041103  35.8382058  13.8041806  90.7102299
  36.8257928  13.1501257  89.7679615  72.7567959   3.1412977  90.6127834
  73.5822296   3.1190160  90.1286411  72.0989418   3.3649799  89.9544334
  72.1523732  56.8926051  25.6584887  71.7942566  56.0262050  25.4652648
  72.7322167  56.7506739  26.4067320  16.2805444 108.0698674  83.4193039
  17.1246511 107.7802951  83.0730915  16.1305457 107.5119047  84.1824627
  76.4679116  73.2448898  18.1054358  75.5558247  73.2255839  17.8156809
  76.6256327  74.1595982  18.3392481  73.7820816  63.3455467  85.3044510
  73.1433821  63.6352921  85.9558678  73.3009291  63.3539486  84.4770145
  10.6193048 108.1545432  86.1162472  10.3746348 109.0433617  85.8586216
  10.7606870 108.2094634  87.0613480  36.6735291  18.4025621  77.6839590
  36.3045311  17.8506899  78.3735323  36.0143995  18.3915174  76.9899464
   0.4771477 109.2660011  89.1304588   1.1200982 109.4201451  89.8226166
  -0.2297157 109.8834815  89.3183231  66.4196110   6.3454759  63.0353689
  65.6973553   6.4878160  62.4235535  67.1999836   6.3154912  62.4818802
   7.1807605  90.8537494  49.5070124   6.8253594  91.6640877  49.1419458
   7.9235011  90.6418656  48.9416170  79.7915763  59.8199634  11.7957549
  79.2592162  60.5814503  11.5656142  79.3777627  59.0902661  11.3347487
   8.2900161   0.1472086  57.7443504   8.1061292   1.0464217  57.4726295
   8.5863513  -0.2886051  56.9453001  87.5370473  72.4497162   7.7062850
  87.8250045  71.6500436   8.1465487  87.3464459  73.0599795   8.4186606
  83.9201182  49.6483670   4.7833495  83.2779187  49.1354214   4.2927413
  83.4194106  50.0352250   5.5015902 112.8131782  88.9866506  32.3225069
 111.9594108  89.3439399  32.5667572 113.1538331  89.6025096  31.6737366
  41.8883038   8.7876940  67.4691772  41.4222670   8.5353392  66.6720819
  41.7644167   8.0476642  68.0635166  59.5088834  80.1517807  11.5181021
  59.1088337  79.4119035  11.9750266  60.4397339  79.9326525  11.4765124
  73.6320561  98.0617247  10.9070448  73.2230991  97.3693572  11.4262919
  73.9311069  97.6201115  10.1122050  98.9917719  97.6686226  67.7653122
  98.9069211  98.6216151  67.7942228  99.4739520  97.4468183  68.5618925
  63.7713450  68.3835111  11.0499815  62.9768509  68.5479902  10.5420928
  64.1265959  67.5737761  10.6834368  87.7493876  62.3644529   3.9593939
  86.8023890  62.4631153   4.0578513  87.9106206  61.4337323   4.1142897
  72.0723742  50.9822459  22.6699404  71.9958610  51.0203896  21.7165617
  72.1223134  50.0473057  22.8689913  52.6527548   7.5161111  80.1644325
  51.9002199   7.1212775  79.7239447  52.2695065   8.1444120  80.7764721
  73.5907000  70.6542705   4.5561842  73.0154127  71.1879121   5.1043658
  73.0034226  70.2430414   3.9219622  56.3268191  62.2851293  19.9509291
  57.1058113  61.8563972  20.3053145  55.6133336  61.6733144  20.1321845
  48.4443808  29.0303469  92.4009228  49.0426111  29.1490865  93.1386662
  48.1316996  29.9128222  92.2016811  69.6374321  37.2450972  90.8086300
  69.3824673  37.0450139  89.9079609  70.4567146  36.7671633  90.9374237
  25.3928638  35.2151322  63.7538910  26.2840056  35.5522513  63.8458109
  24.8463845  35.8553863  64.2096043   5.2250510  93.9407419  58.4605265
   5.1668626  94.8958515  58.4358025   5.7524520  93.7529336  59.2369366
  38.0880809   9.1892844  42.9401970  38.2337832   8.2932359  43.2436752
  37.4374032   9.5444357  43.5457706  25.0713205  35.5147505  82.1841908
  25.0299525  35.0381780  81.3550949  25.6196809  34.9684978  82.7473450
  53.3437157  14.3572831  85.3454399  52.9969740  13.6902869  84.7528839
  54.1338921  14.6770549  84.9100113 113.0574149  57.3840630  48.5545401
 113.4765881  56.8757817  47.8601508 113.7557143  57.9411290  48.8984732
  -0.1952619  97.5321387  60.6885386  -0.3948468  98.0857789  59.9336338
   0.7047444  97.2414731  60.5411148  75.8105135  15.1656866  88.9005375
  74.9379158  15.5488217  88.8109779  75.7665634  14.3504202  88.4008980
 112.7093095  58.8840236   6.1610655 112.6384372  59.8247225   6.3232188
 113.5265082  58.6281504   6.5887885  13.9248258 103.1128733  81.1995602
  13.2600671 102.6472508  81.7070293  14.1821939 103.8464492  81.7580032
  55.2770758  25.1432180  74.9461699  55.5778122  25.7536507  75.6193399
  55.2766514  24.2898059  75.3796673  95.1199114  79.7846519  44.3427992
  95.7552134  80.4903852  44.4634819  95.5737328  79.1451298  43.7938976
  10.1465732  89.9004804  87.5446224  10.9157067  89.3367230  87.6273441
  10.4635554  90.7735490  87.7759266  83.2645530  46.7701588   2.4541621
  83.4536141  45.9014355   2.8088526  84.1223210  47.1260165   2.2221522
   5.9340364 100.0107872  87.2419834   6.0512143  99.0781759  87.0610523
   6.3642484 100.4526888  86.5099525  54.8444986  17.7118349  68.8136005
  53.8979959  17.6607335  68.6803532  55.0212288  18.6465061  68.9203167
  52.6979399  19.3573821  71.8039370  52.7308083  19.5815790  70.8739424
  51.9600964  19.8621285  72.1460629   6.5972453 103.0257188  71.7079878
   6.4746219 103.0795323  70.7602024   6.6498643 102.0874177  71.8897963
  52.0115185   1.1121271  66.9809341  52.4727345   1.6467106  67.6272583
  51.1354303   0.9949502  67.3483181  64.2878002  80.1280580  19.3871359
  64.8425430  79.7652231  20.0776724  64.0373367  80.9932934  19.7109751
  23.3436757  91.1718451  89.9298763  24.1239101  91.7241763  89.8809338
  22.7925426  91.4712357  89.2067909  72.5193739  25.9097195  60.0214577
  72.5268412  26.8570995  59.8849154  73.3972692  25.7074261  60.3449011
  14.3436825   6.0732311  62.7438974  13.7288702   6.6001642  62.2334290
  13.9322805   5.9916705  63.6043215  57.9476303  35.0843797  18.0157618
  57.6620919  34.5844374  18.7804560  57.2613448  35.7392691  17.8878455
  17.3739350  16.1652172  72.4493217  18.0016983  15.7959437  71.8282080
  17.7756071  16.9850588  72.7369833   2.0990115 104.7222959  94.2529106
   3.0035716 104.4375538  94.3830299   1.6101581 103.9111089  94.1142464
  10.9472114  91.1326467  80.6824017  10.5253631  90.8701455  81.5005493
  11.8846112  91.0637187  80.8634090  12.4016893  30.7343888  79.7622347
  11.9586420  31.3397861  79.1677332  12.9272795  30.1769042  79.1884804
 112.5023448  99.5782124  47.8050375 111.5481602  99.5613884  47.7310181
 112.6719701  99.4683658  48.7406635  88.2971001  29.2391539  83.1012249
  87.3892498  29.3118572  83.3957672  88.3947945  29.9357414  82.4520302
  92.5435132  87.3838387  11.0967116  92.3235816  88.2830487  11.3401942
  93.1329793  87.4757348  10.3481726 107.5301856  68.5593246   4.0752463
 107.9331988  69.2702030   3.5767798 107.5053996  68.8824235   4.9759249
  19.2697602 105.5634834  73.4925604  19.5765763 105.6072991  74.3981934
  19.6594459 104.7607183  73.1462288  56.2337750  96.0397731  22.4053626
  56.4728111  95.4711209  23.1372981  55.8841282  96.8288194  22.8193526
  48.4111738  14.9835932  52.1052933  49.3013430  14.7378480  52.3571777
  48.3352613  15.9030366  52.3604298 103.7053715  67.5306045  82.3348427
 103.6511814  68.3969175  82.7383232 103.3658730  66.9340192  83.0019760
  76.0654706  75.6487332   2.2694258  76.8360156  75.3129755   1.8114333
  75.4933018  75.9694110   1.5722804  95.9295034 107.2702362  79.1264677
  96.1624049 106.7187422  78.3795786  96.5527546 107.0236664  79.8098373
  78.6459011  91.7417227  17.6791338  79.0644616  92.5399123  17.3567538
  77.7705044  92.0216022  17.9466776  59.5008224  82.1838723  23.3794741
  59.6110505  82.4965606  24.2774157  60.0097913  82.7963577  22.8483920
  82.7854508  61.0724018   6.8176322  81.9089049  61.4453624   6.7238287
  82.7221650  60.2072094   6.4130740  57.9041070  67.3060916  25.9668402
  57.2664541  67.1598719  25.2680926  57.8367216  66.5273867  26.5193896
  49.0271997  26.3495946  89.5708466  49.5356941  27.1553946  89.6622658
  49.5674038  25.7871652  89.0157890  68.3741158  41.8610833   7.3374133
  68.7258309  42.2275601   6.5261034  67.9111666  41.0698794   7.0619063
  67.1865511  14.8450685  74.6111488  67.6134443  14.4546664  75.3737640
  66.3147688  15.0880325  74.9229097  65.4808855  33.0399823  87.0900631
  65.0937557  32.5554180  86.3609886  65.8345413  33.8339281  86.6890526
  70.2947778  74.5508920  13.9403491  70.5110353  74.7420584  14.8529963
  69.4637245  75.0019489  13.7915949  36.1189890  17.3715007  73.7067175
  35.4522705  18.0582631  73.6980391  35.6343722  16.5696788  73.9028311
  88.4540147  82.3030673  16.8800025  88.3315534  83.2508932  16.9335131
  88.0873031  81.9676171  17.6980643  45.2392912  20.3906465  72.0373106
  44.7546196  20.1179504  71.2582350  46.0743952  20.7137084  71.6989803
  52.0863801 106.8587883  95.5785179  51.4550286 107.4105250  95.1167679
  51.6889077 105.9880151  95.5780220  73.3623981  28.9468527  59.0199184
  73.6863089  28.5436869  58.2144594  72.4410725  29.1342354  58.8402557
  41.7758512   4.2943606  32.1696806  41.9511890   4.4374034  33.0997491
  40.9159946   3.8742590  32.1498942  74.5438785  67.5908314   7.1227412
  75.1315159  66.8473528   6.9879965  75.0466889  68.1982671   7.6653628
  66.7872381  13.6426830  44.9944830  66.4753819  12.9489708  44.4133282
  66.0020018  13.9424825  45.4524803  36.1765289  30.1678562  79.4673395
  35.5049896  30.0323725  80.1358509  35.6891775  30.4416847  78.6903334
  76.0999912  48.8731114   2.0362048  76.6386742  48.4223209   1.3859419
  75.2601308  48.4146128   2.0108752 114.6344637   4.9644384  75.4131937
 115.3958368   4.4315153  75.1839876 114.9193683   5.4759961  76.1704063
 104.5449466  67.3300169   1.3345866 104.6959371  68.2703839   1.2389712
 103.7330693  67.2677432   1.8377928   7.1460646  17.4799895  53.9914465
   7.1164340  18.0963731  54.7231722   6.8751788  17.9962492  53.2322836
  88.0505239 110.0173132  62.8280878  88.3585834 109.2702405  63.3411312
  87.1235114 110.0964400  63.0530739  74.4721192  99.4877015  14.5110278
  73.8636965  98.8700496  14.9166827  74.0516538  99.7314559  13.6863856
  75.7928944  46.2576246  77.8435802  75.2519608  46.9943619  77.5592613
  76.2514830  46.5822220  78.6185408  71.2221050  15.2330315  65.6832743
  70.8438301  14.3873382  65.9239817  70.8219385  15.4429424  64.8394537
  35.0755310  33.4381723  90.3816032  34.1733837  33.5285378  90.6885147
  35.1783347  34.1336703  89.7320271  71.6080541  65.3156195   9.0355162
  71.4526481  64.9801777   8.1525855  72.4109954  65.8309053   8.9580779
  93.3659183  97.1623658  79.2247391  93.1769752  97.6995241  79.9941492
  92.5586068  97.1873592  78.7110710   0.8818401  79.1938029  11.9623522
   0.7902539  79.6540128  11.1280589   0.3486789  79.7003089  12.5750784
   7.6618564  12.8103781  78.9562035   8.5878783  13.0055285  79.0998363
   7.5560570  11.9104874  79.2648029  65.3679961 106.1413012   1.3462691
  65.2302736 106.4592706   0.4539923  64.4853658 106.0119258   1.6933398
  23.5042572  34.1391683  90.2801418  22.9272270  33.6360669  89.7055531
  22.9868793  34.2833686  91.0724545  92.5990743  77.4975143  10.3391318
  91.9795102  77.9630600  10.9009413  92.8881425  76.7530165  10.8667616
  81.0169697   8.7564844  92.5700474  80.2669525   8.9989179  93.1131268
  81.7254829   8.6027211  93.1950378  30.5006552  14.5011830  88.4469128
  30.3098583  14.0807545  87.6084232  31.2724566  14.0403211  88.7757874
  93.4570133 102.1731400  32.0682120  94.3891680 102.3808007  32.0034313
  93.4106206 101.4841562  32.7310705  65.1910400   2.3029405  70.4692984
  65.1037216   1.4935887  70.9728432  64.4149494   2.3215464  69.9093246
  17.1816522 101.0468494  42.5499392  17.5658017 100.1755594  42.4523878
  17.4320584 101.3216226  43.4319973  31.7380810  30.0827289  91.5203476
  31.3543320  29.2128348  91.4096546  31.2526178  30.4675889  92.2500324
  42.0194197  12.7687109  91.2947464  42.1676779  13.2267213  92.1220779
  42.4335527  13.3253324  90.6352806  17.2001708  29.0412211  82.3208523
  17.3381293  28.7729597  81.4124203  16.3271546  28.7137938  82.5373268
  86.6287869  88.2356153   4.4919829  85.9360331  87.9150377   5.0695281
  86.1741084  88.4823952   3.6866240  56.2743539  89.5823370   7.8177218
  56.3539750  88.8219152   8.3936171  57.0535308  89.5452843   7.2629790
  15.3053266  95.8040678  81.2904167  15.2889567  95.2716397  82.0857143
  15.2182704  96.7045270  81.6031933  85.4946298  36.0385071   3.8986067
  85.2334804  35.1730572   4.2133002  86.4384049  36.0751687   4.0541033
  88.5186386  21.2940073  90.3435230  87.7442074  21.7660189  90.0374222
  89.2310619  21.6208744  89.7941113  22.1021777 100.9802376  71.2316418
  21.7042762 100.1353477  71.0217237  22.5376397 101.2476062  70.4222488
 110.0468146  40.0400877  70.9765244 110.7872229  39.5959687  70.5632639
 110.4016244  40.3856134  71.7956400  40.0719976  22.8091431  85.2825356
  39.9241757  23.5927391  85.8120251  40.2633715  23.1445050  84.4066715
   8.8479198  35.2552388  10.0441794   9.0373481  35.6660591  10.8877329
   8.7952960  34.3197261  10.2398257  24.8906785 109.1143426  66.3287544
  24.7812587 110.0586827  66.4404726  24.3366510 108.8960320  65.5793381
  48.6337566  53.2134771  86.4753914  48.2500124  53.1060839  85.6050777
  48.3094740  54.0620375  86.7770958   9.0398896  35.2225471  65.4314375
   9.2895818  35.7790804  66.1691046   9.8236811  34.7055459  65.2453947
   8.5695249  85.5175673  66.1870718   8.7499219  86.1488139  65.4904985
   7.6171666  85.4215275  66.1825323  22.6243764  87.8049432  82.6749897
  23.3870298  88.2474195  83.0475521  22.9035407  87.5447999  81.7971325
  28.9873099  42.5356960  85.6866550  29.8473811  42.2170162  85.9604168
  29.1776037  43.1976795  85.0219727 106.4835471  81.2871037  19.2933135
 105.7441920  81.8039404  19.6134142 106.3859290  80.4375325  19.7233538
  63.9538402  85.6647502  11.3376097  63.0830258  85.9440099  11.6203169
  64.5290417  86.3896333  11.5823893  92.0730721 106.2210645  50.3866053
  92.9859423 105.9954478  50.5654812  92.0964240 107.1501898  50.1576662
  69.6512026  73.0286835   5.6470637  70.1295370  73.7212656   5.1912550
  68.7652010  73.0729554   5.2875189  47.7860355  24.8795080  82.2123337
  48.6541367  25.2472234  82.3779106  47.9286671  24.2288351  81.5249348
  50.2080304 102.4491034   5.3543810  50.4329580 101.8112193   6.0316901
  50.9342021 102.4041282   4.7323851  22.8821659  32.9129291  81.3195324
  22.0247674  33.3105016  81.1677647  23.1687117  33.2744169  82.1582508
  33.3691669  19.6670604  83.5066223  33.9048839  20.0854063  82.8326607
  33.0391836  18.8708305  83.0902576  38.1567526  16.3175464  89.8546505
  38.6729336  16.4810288  89.0653038  38.5634613  15.5472803  90.2515221
   3.3803636 102.8915041  88.3331490   3.1041795 102.1242379  87.8318882
   3.4492570 103.5904120  87.6827526  51.2760353  18.2034111  81.4445114
  51.7266417  18.2845676  82.2851086  51.6938305  17.4540019  81.0201740
 114.7428864  63.5979156  12.1113543 115.0304336  63.7545167  11.2118964
 114.8051614  64.4539074  12.5351767  17.9303677   7.8954219  15.0215487
  17.5086052   7.0783376  14.7556262  18.8620073   7.6803970  15.0667529
  42.0722342  19.8985660  94.9044609  42.5669527  20.1000547  94.1101742
  42.4370003  20.4834032  95.5686474  87.0804977   5.3730148  50.7000303
  86.8513966   5.6933373  51.5724659  87.7935505   5.9443218  50.4147339
  66.0548115  19.5420086  76.5429878  66.3896608  20.4347324  76.4584255
  66.8302965  19.0116894  76.7263365  91.2704438  55.4612242   1.2410979
  90.3950328  55.3144260   1.5993361  91.6685552  54.5910643   1.2174086
  32.2174573  26.1882091  76.4271259  31.9296193  25.3552938  76.0534573
  32.0550919  26.0982919  77.3661613  24.2055249  17.1280551  48.5364008
  24.1890979  16.6815472  49.3829203  24.1905999  16.4203966  47.8920174
  20.1903564  98.2682358  92.7120972  19.7076922  97.4922012  92.4274254
  21.1111384  98.0325150  92.5988483  18.2063371 103.6960112  53.3389711
  19.1562873 103.5803299  53.3600760  17.8631908 102.9496609  53.8303375
  73.4775180  73.2995890  20.0061373  73.8309568  72.5954281  20.5497031
  72.8660673  73.7612127  20.5799441  36.9834471  24.6995211  88.1203938
  36.1629224  24.5255613  88.5815907  36.7295980  24.7764039  87.2006702
 109.1297883  46.2534742   0.4294829 108.8391370  46.4318816   1.3238673
 109.8116511  46.9047676   0.2648215  44.1864824  22.2982073  82.5599575
  44.8933697  21.9572353  82.0119762  43.4223652  22.3126745  81.9836330
 115.1760882  58.2168777  10.9813075 115.2062768  59.1282199  10.6901412
 114.4932336  57.8160883  10.4434351  71.7463392  90.3303371   4.2952208
  72.0574182  89.4597994   4.0469698  70.8399576  90.3572284   3.9886527
  26.5327477  14.7741818  77.8301287  26.0786366  15.5739748  77.5649023
  25.9694290  14.0649760  77.5203991  97.2440779 107.3832246  53.4853220
  96.3468384 107.5107883  53.1772280  97.3048841 106.4447813  53.6638117
  59.7852421  24.5118856  59.5548153  59.2840385  25.2985215  59.7698164
  59.3435621  23.8088393  60.0311279  35.9667754   3.7233663  85.1133060
  35.0832295   3.6374107  84.7552681  36.5380406   3.7175831  84.3452835
  89.5489329  94.8959170  22.8997569  89.1051120  95.6148158  23.3496813
  90.3874177  94.8106657  23.3535246   6.5386849 109.5339797  72.4757910
   6.7741805 110.0090088  73.2727337   6.3224965 108.6517887  72.7778387
   8.6118156 109.2402582  78.5318518   8.9299279 109.7851229  79.2516851
   9.4062930 108.9169857  78.1069613  33.8905895  91.2605058  21.7257742
  33.8280416  91.0475050  20.7946734  34.0117058  90.4147445  22.1573500
   2.4766937  10.6505024  59.3336391   1.7045602  10.1776743  59.0230322
   2.5691399  11.3838947  58.7255096  89.2850131  73.5133038  33.5772852
  90.1820630  73.8394151  33.5052828  88.9859551  73.4329365  32.6715617
  66.8233818  67.5486825  13.0668692  67.4100679  67.7550755  12.3392539
  66.8713111  66.5963445  13.1504683  51.4292807  80.4929934  25.1861720
  50.9919602  81.1572038  25.7189135  52.2410971  80.9117614  24.9001269
  56.4807701   0.7840069  88.5279942  57.2708225   0.2457111  88.4801292
  56.0820627   0.5501879  89.3662071  89.6377343  63.5527687   5.9833102
  89.0249747  63.6092011   5.2501158  89.7805709  62.6140605   6.1043791
  28.5083222   1.1620697  87.3850727  27.6848483   0.7754606  87.0873260
  28.8115978   1.6821975  86.6409492  13.3239651  47.4533701  78.2840538
  12.6321042  47.5204039  77.6259756  14.0639842  47.9256439  77.9025316
  84.2710608  53.8516192   1.6587500  85.1963872  53.6092991   1.6229014
  83.8647145  53.3506775   0.9515242  77.4841827  84.9152242  12.0108943
  78.4244436  84.9828277  11.8448500  77.3440880  83.9922868  12.2225337
   2.3479236  90.9078561   0.3697257   2.4291862  90.5108128   1.2368922
   2.5556720  90.1987730  -0.2387758  60.9352398  26.4677835  76.1629105
  60.5139446  26.1572003  75.3614902  61.5180874  25.7531714  76.4195299
  89.1285724  84.1022573   1.4121871  89.0337676  83.1894146   1.6841464
  89.6610087  84.5028506   2.0994048  58.7159795  85.8304487   2.8593688
  59.4917554  85.9122191   2.3046450  58.8979334  85.0728904   3.4154467
  63.9515066   6.9649798  79.1003561  63.5794878   6.8149018  79.9694395
  63.2181168   7.2913933  78.5789919  72.1987099  28.5150204   1.7504458
  73.0566734  28.3634148   2.1468691  71.9721598  29.4096313   2.0045714
  48.0110836  21.9624996  86.0377502  47.5518227  22.7622557  86.2940693
  48.7925386  21.9474959  86.5903282  42.3909950   2.4123654  71.6251755
  43.3238077   2.3864925  71.4120626  42.0105696   2.9921982  70.9653997
  42.1030951  17.2974896  81.1690044  42.8558540  17.4983025  81.7251110
  42.3329973  16.4712524  80.7439041  63.8509846  19.6250045  72.1224499
  64.1323614  19.0430129  72.8283882  63.2704878  20.2554488  72.5488234
  22.1637660  94.1653668  56.8244410  23.0120545  94.0678083  57.2570133
  21.7277652  94.8671853  57.3077488  52.8235722   8.0958003  53.4639311
  52.3480797   7.3165619  53.1759644  53.6486197   7.7578485  53.8122416
  16.8257791  81.1588251  76.2936211  16.8135482  81.9490944  75.7536602
  17.5566464  80.6451355  75.9498358  23.0425906  17.2584617  90.8242226
  22.4316168  17.9707444  90.6355572  23.0835176  16.7561460  90.0104427
  27.8127050  13.9470518  92.4675083  26.9163156  13.6703026  92.6575851
  28.2618499  13.9003503  93.3115005 100.6253737  87.6738845  20.8261828
 101.3626212  88.1814442  21.1654238 100.0807208  87.5001822  21.5939192
  73.6783236  56.8452720  11.6653113  74.2295164  57.2628938  12.3271422
  72.8494877  57.3221540  11.7082743  90.1268453  95.4615031  31.9245009
  90.0905389  94.8223840  32.6361422  90.4511565  96.2617598  32.3375849
  79.3039751   4.7572002  73.0209494  79.2586708   5.4878312  72.4042177
  79.6881819   4.0407366  72.5156784  96.2563819  94.0052114   9.3623499
  96.0126132  94.2063843  10.2658705  95.6550044  94.5262967   8.8303332
  80.7676238 105.0387154   6.3356833  80.7007283 105.8622657   5.8524374
  80.8145017 104.3657027   5.6566481  54.3744993  34.1734672  86.8171692
  54.5990419  35.0952363  86.9442749  55.0114775  33.8579798  86.1761093
   6.1551076  99.5250820  72.2987795   7.0380908  99.3697809  72.6341152
   6.2020951  99.2756258  71.3758516  50.7185793  10.2200699  84.1291618
  51.0847664  10.4192114  84.9908352  50.1142359   9.4948632  84.2875290
  70.9044784  67.7743576   0.3157954  70.2122373  67.6540528   0.9658389
  71.7177147  67.6915680   0.8138136  36.1817199 107.2864970  67.1145201
  36.1347371 106.9160133  66.2331772  36.4609033 108.1920116  66.9791222
  83.7932700  64.6740614   3.6800913  83.0953759  65.1976393   4.0738444
  84.3453568  65.3120683   3.2280116 115.6611168  86.9700514  75.7800388
 114.7739136  87.1792327  75.4878998 116.1594998  87.7726041  75.6259060
  45.3022528  21.7656779  87.2920132  44.9031258  22.4719524  87.8000450
  45.8468008  22.2141743  86.6450596  53.1294107  27.4931002  79.2290831
  53.5841894  26.6573191  79.1247892  53.4927082  28.0509186  78.5412693
  94.8256397  25.0664830  83.9609528  94.5648575  24.2870402  84.4515514
  95.7818794  25.0284004  83.9414310  38.1545472  -0.1880283  81.8758297
  38.9967513   0.2601057  81.7977238  37.5605059   0.3206038  81.3238811
  84.4191808  83.7880646  10.6897406  84.7938508  83.0009709  10.2943377
  84.7911424  84.5105301  10.1838450  49.9712801  21.5609694  88.1093311
  50.8747673  21.5385556  88.4246826  49.4895935  21.0062742  88.7229538
  81.7195195  78.8676463   6.0577826  81.5907163  77.9219065   6.1300139
  80.8507890  79.2126261   5.8515696  82.1380538 108.1872712   6.8432955
  82.5445479 109.0529214   6.8838458  81.4436025 108.2790862   6.1909632
  80.1477242  27.0872498  64.4219303  80.5223656  26.5017533  63.7638474
  79.3566751  27.4352312  64.0103722  58.0302143  33.9709592  60.4986238
  57.3387718  34.0847898  61.1506844  58.0947971  34.8227763  60.0668097
  25.0409555   0.1073219  88.8149643  24.5284986   0.6362532  89.4263935
  24.6725130   0.3107265  87.9552460  44.9344969   1.4000581  80.5761909
  45.5119562   1.5818422  79.8347569  45.2839804   0.5960543  80.9604740
   6.1051679  31.0757780  93.7668800   5.2118754  31.0460377  93.4242821
   6.6427815  30.7063460  93.0663681  99.6800345  42.0683120  12.5068812
 100.6043023  42.2101281  12.3023085  99.3178815  42.9492353  12.6020197
  94.7981805  79.4467579  40.5055956  95.2163190  80.0696216  41.1000971
  94.0638751  79.0927635  41.0073046  31.8456030  50.7195330  87.7579880
  32.6653266  50.4845428  88.1928062  31.2165523  50.8222151  88.4721184
  89.7117251  79.8616586   0.9483008  89.2012757  79.3619571   0.3111414
  90.2475995  80.4505287   0.4169707 110.1885861  90.9625898  14.9357943
 111.0066384  90.5808936  15.2541117 109.6966666  91.1712538  15.7299666
  61.1528301   5.6787282  88.3177757  61.6035604   5.9534287  89.1162777
  60.7568264   6.4812511  87.9781055 109.6281547  66.4992712  10.1969771
 109.4964284  66.5796231  11.1416583 108.9330787  65.9081815   9.9076418
  10.7162649   8.4822082   9.8735098  10.4333908   7.5729322   9.7764163
  10.1636679   8.8316011  10.5726389  79.6479273  31.4581466  73.9379168
  80.1100922  30.7692742  73.4603310  80.2311134  32.2156453  73.8896942
  46.1589426  66.2710963  14.0972189  46.8197650  66.6087948  14.7017912
  45.7920903  65.5086849  14.5448546  94.6975726  82.3053585  18.6485533
  94.3222159  81.7315541  19.3164591  94.3905801  81.9399319  17.8188281
  72.2323942  32.3187757  83.7327671  71.8495798  31.9877481  84.5452309
  73.1328440  31.9942427  83.7426281  93.6345405  71.9286249   3.6250262
  93.1718654  71.2116466   4.0587477  93.9405936  72.4844251   4.3417220
  58.3894873  17.9258788  90.9875679  58.2337570  18.0355322  91.9256306
  58.3950615  18.8176715  90.6398487  31.8880653  48.6300278  78.4497118
  31.7051172  48.3055687  77.5679588  32.3728323  49.4434547  78.3098173
  71.5348577  34.6759820  94.1601849  72.4295807  34.3810320  94.3296242
  71.1891937  34.0430999  93.5307312 116.5069550 104.4071208  21.0654311
 115.8056897 103.8150655  20.7935195 116.7122668 104.1397200  21.9613032
  88.0150622  70.5453919   5.3609805  87.4986762  69.7907470   5.0779871
  88.8861388  70.3900622   4.9958472  24.1533453   3.1918000  16.8087630
  24.1003306   2.5457572  16.1044554  25.0435764   3.1026696  17.1490149
  72.8116369  58.2345629  92.5208092  73.6573601  58.6386442  92.3266315
  72.8215218  58.1020260  93.4687328  43.0752230  10.7998478  85.3804493
  42.9136848   9.8594171  85.3047752  42.7402878  11.0314572  86.2467098
   2.4225295  89.0219293   2.5671439   2.4298251  88.1049882   2.2925524
   2.1071304  88.9989053   3.4705882   2.9741729  76.2880026   3.4438376
   2.7974475  75.3955446   3.1463198   2.5957835  76.8462644   2.7645735
  54.8294544  15.2831161  70.0977755  54.4857883  15.3815532  70.9857130
  54.8411846  16.1730433  69.7454643  60.4901361  29.9162221  93.8182163
  60.7909346  29.0194702  93.6712933  60.1019716  30.1784468  92.9834747
  34.4182277  28.7111878  85.8505726  34.5395517  28.7860537  86.7970943
  33.6913753  29.3024373  85.6547546  54.6602869   2.0280564  86.6964722
  53.7499332   2.0685153  86.9894695  55.1436949   1.7116798  87.4596500
  72.6086521  23.4935522  54.3632317  73.1993246  22.7600169  54.1921616
  71.7771721  23.0817246  54.5983362  35.9403110  12.9887438  72.6518774
  35.7823372  12.1535909  72.2116566  35.3900170  12.9548967  73.4343481
 103.2995879  84.7756897  69.5234919 102.8119885  84.6413719  68.7108183
 102.6739179  85.1995789  70.1109362  88.5218400  99.3103658   7.2815184
  88.4435958 100.2575932   7.1680693  89.4194716  99.1106568   7.0158057
  32.3048401  30.8840108  85.3397274  31.6710734  30.2144384  85.0823402
  31.9655252  31.6939783  84.9588680  75.2473783  57.0962667  78.2137108
  74.7494459  57.6057339  77.5743866  74.6494913  56.3985634  78.4819841
 112.1788275  98.6604630  83.2613659 112.3891031  97.7811407  82.9470253
 112.1697366  99.2013144  82.4716568   7.1044601 101.4280139   3.1910281
   7.2850574 101.1352931   2.2977595   7.9682983 101.5127574   3.5945563
  18.2315433  27.8360629  94.4881153  19.0714896  27.4535513  94.2343330
  17.5971198  27.1322417  94.3525696  19.4128740  22.7069974  86.4100266
  20.0923395  22.0330477  86.3912201  19.0223968  22.6292157  87.2804832
  20.1562119  34.8996329  89.0227604  20.2953792  34.9708533  88.0784130
  20.5848026  35.6740999  89.3871021  74.4918871  24.3996382  73.8720512
  74.4974709  24.3447804  74.8276615  75.0963497  23.7134433  73.5892153
  48.2219505  20.8561587  81.7251015  48.6418819  20.7204700  82.5745010
  48.6840534  20.2636814  81.1320877  87.7414388 103.5952531  16.8334631
  88.1103486 103.6776648  17.7128653  87.3457927 102.7237426  16.8204169
 102.8288907  86.4371167  19.3998866 102.3767156  86.9449006  20.0736289
 103.7059325  86.2944017  19.7557883  53.1332594  90.3494798  19.6906142
  52.5963217  89.8800932  20.3290514  53.7402088  90.8654366  20.2213053
  42.4634504  30.6749821  88.9498043  41.9795704  30.7423210  88.1266689
  41.7912531  30.7363105  89.6284962  31.0339046  23.2321930  70.0129223
  31.9680071  23.2487750  70.2212715  30.9677672  22.6508832  69.2553329
  98.2879543  30.3401065  61.8755865  97.8763771  30.3455377  62.7397680
  97.8489017  29.6311522  61.4056444  39.5583797  28.9246750  83.1459522
  39.5056081  29.8794007  83.1018162  40.3963757  28.7506747  83.5745716
  37.9982836  55.3000974  27.7892832  37.6559765  54.4933557  27.4042944
  38.9207155  55.1108693  27.9611544  93.5722226  57.2947013  21.6213564
  93.5604638  58.1273870  21.1494212  94.1948766  57.4327154  22.3351435
  90.4408836  49.8078156  89.4132519  90.1508331  50.3242731  88.6613369
  89.9240494  50.1413727  90.1466370  86.1840171 110.2601348   4.8485331
  86.5886420 110.8070145   4.1751627  86.3703746 109.3628274   4.5722250
   0.6694234  51.0801361  17.2276930   0.8867849  50.2588867  17.6687579
   0.2734912  50.8095942  16.3992743  11.7373782 105.2416300  82.6666451
  10.8601981 105.5917202  82.8222847  11.8360978 104.5454078  83.3160686
   4.5927608  27.9607511  91.7954540   4.5632315  27.1086144  91.3604450
   4.8774147  27.7643061  92.6879787  53.9727306  67.9431105  83.8908005
  54.0983868  67.3549128  83.1461811  53.1319618  68.3680248  83.7211609
  61.0497993  48.1243054   6.9530253  61.8555802  48.2687180   7.4491076
  61.3272017  47.6230137   6.1862235   6.0324746 105.8463453  80.2285957
   5.4282981 105.2079677  80.6076527   6.8536597 105.3658884  80.1235199
  36.2631447  16.6167259  15.9611754  37.0675308  16.7570209  15.4616694
  35.5996782  16.4258718  15.2981333  93.3885068  68.2113872  20.2065234
  93.6990804  68.8512967  19.5659880  94.0046853  68.2836936  20.9354453
  43.1646967  40.8318472  86.1571312  42.2430277  40.6779385  85.9495831
  43.5161114  41.2655783  85.3795624  69.9263591  70.6392358   3.5694460
  70.2513379  71.4075528   4.0388159  69.8184866  70.9380780   2.6665072
  20.7969361  97.5658416  51.4302254  21.5045386  97.6383268  50.7896996
  19.9992543  97.7215015  50.9245539  63.0801630  11.1180544  67.2759628
  63.8152790  10.7826352  66.7628050  62.7491522  11.8570459  66.7655182
  73.4186906 100.4992114  12.3059802  73.1282562 101.2026606  11.7254214
  73.4747046  99.7293149  11.7399840   8.4626544  64.3255888  15.7059245
   9.0440429  64.8837642  15.1895289   7.6409591  64.3165867  15.2150397
  78.9098567 103.7921773  18.5036330  78.1240767 104.3142043  18.3415274
  78.6855525 102.9171000  18.1871657  22.6860870  72.9649566  13.5407118
  22.6151813  72.5684665  14.4090514  22.0284618  73.6604844  13.5405783
  68.0745858 101.7610513  10.3723673  67.1800345 101.4357672  10.2713542
  67.9693073 102.6505624  10.7098822  35.1317096  29.5023417  82.2643375
  35.3945637  29.8208523  83.1278706  35.1417232  28.5488129  82.3474979
 100.2511996 104.1572438  11.2155489 100.0372619 104.9868737  11.6423659
 101.2062758 104.1599570  11.1518530  27.6900083  65.8595191  88.8990021
  28.5554105  66.0686695  89.2505360  27.0780974  66.1889421  89.5572472
  40.9121943  17.9007733  93.3256149  41.5579319  17.6661229  92.6591396
  41.3174200  18.6209774  93.8086510  48.8803434  15.5407667  89.9373913
  49.7865486  15.8276176  89.8245430  48.3555079  16.3012111  89.6873856
  83.9765901  75.0159190   6.9610934  83.1911105  74.7464059   6.4850478
  84.4085378  74.1943942   7.1950774  28.3796866   0.6166171  10.6712107
  29.1038878   0.1163625  11.0473971  27.8775484   0.9174871  11.4285521
  22.9760766  22.4790430  95.4558945  22.4504948  21.6793084  95.4353237
  23.8780951  22.1755433  95.3535271  46.4134407  33.3421135  86.2460995
  46.8917561  32.5223279  86.1220074  45.5896282  33.2122111  85.7763195
  99.8125135  97.2103106  91.6460705 100.2234923  97.6048469  92.4152660
  99.6184694  97.9510747  91.0717392  21.4360077  18.7667560   3.6452059
  20.4906828  18.6645459   3.7554030  21.5388567  19.0957784   2.7522330
  72.5148028  87.7200805  28.6982874  72.8760690  86.9219814  29.0839819
  73.2675737  88.1540261  28.2967238 106.0580701  66.2803171  36.6838603
 106.7845267  65.9566818  37.2165446 106.1638516  67.2316490  36.6871886
  52.9248810   2.5793391  90.7732105  53.7238312   2.7931213  91.2550926
  52.6490498   1.7348011  91.1294556  58.4695196  13.0925941  83.8632774
  58.0373526  13.1255400  83.0098343  58.1958294  13.8983226  84.3016052
  31.5832090   2.3709321  87.8993130  31.6935301   2.0499481  87.0043087
  31.8944764   3.2756135  87.8693867 116.1827742  93.4431993  65.3953648
 115.3850853  93.7648868  64.9753141 116.8541824  94.0817474  65.1551533
  52.9108095  15.6968951  87.6131439  52.7447271  15.2992654  86.7584324
  53.6366081  16.3016224  87.4590111  70.7427740  18.0529201  76.4420652
  71.6672850  18.2506084  76.2923050  70.3718090  17.9630804  75.5642605
  67.1662951  37.7490520  62.0611286  68.0663872  37.6988268  61.7393398
  67.1477509  38.5412550  62.5980711  84.1576451  80.4633032   4.8285059
  83.2800359  80.0957070   4.7240691  84.0228480  81.4109336   4.8209719
  49.8462296  27.2082663  82.7010727  50.2924395  26.4876556  82.2562695
  50.0278902  27.9746556  82.1571255  27.7494073  27.8523684  80.3692532
  28.1376791  28.6960745  80.1376629  27.0722079  28.0682635  81.0103607
  72.3108673  12.7106047  48.0944872  71.7540693  12.5956964  48.8645601
  73.2040119  12.6577353  48.4346676  75.8196640  61.7723989  85.5052185
  75.0791359  62.3679590  85.3905106  76.2385464  62.0642471  86.3149071
 102.8728455  78.1489883   8.9423899 103.1051606  78.4168182   9.8315005
 103.1263608  78.8918291   8.3945326 112.0253193 106.8510877  72.8790045
 111.9299614 106.0686975  73.4221458 112.1776306 106.5129524  71.9965649
  56.2156820  26.5127969  67.8638315  56.3824320  26.4044762  68.8001490
  56.7175865  27.2903919  67.6195526  39.4700613  90.4881440  24.7500853
  38.6408125  90.4353605  24.2749075  39.9033687  89.6540604  24.5690302
  68.0524302  18.4670460  94.0835381  68.3891201  18.9586914  93.3344364
  67.8421259  17.6034534  93.7282753  64.0233564  41.6613483  71.7840338
  63.7386990  41.8491364  70.8896446  64.7520971  41.0495138  71.6799688
  51.7092896  77.3680067  87.3872185  51.8506193  78.3106422  87.4749184
  50.7696867  77.2805977  87.2267818  68.1134081  43.5086918  82.5547695
  68.0078316  42.7945805  83.1833649  67.6830435  43.1936836  81.7599106
  97.5046033  61.1596851   6.2435107  96.7104596  60.7573919   6.5952544
  97.7138156  61.8584888   6.8632941 101.6566247  86.1485301  27.1347765
 101.3226623  86.1206709  28.0313925 102.1251887  85.3207289  27.0278792
 108.1346690 109.8257797  78.2797813 107.2595727 109.5400812  78.0174541
 108.4411752 110.3613168  77.5480127  76.0147238  41.8020678  87.4428940
  75.9560251  42.0537758  86.5212536  75.8389759  42.6108599  87.9237270
  44.2357302  37.6898050  94.0284348  43.6510849  38.1711149  94.6138954
  43.6489201  37.2414160  93.4194756 115.5318183  92.9291235  13.2336478
 115.9246224  92.7569042  12.3779158 115.3490275  93.8686930  13.2285647
  50.2777719  14.8238695  72.3670244  49.5683098  14.6607494  71.7455053
  50.5894613  13.9517808  72.6089811  63.4273892 104.8842316  71.4951181
  64.2670709 104.4619529  71.3139153  62.7783185 104.1932636  71.3628101
  65.9552956  23.0903697  78.5600758  65.2037525  23.5570192  78.9256716
  66.5659237  23.0085611  79.2926598  57.5532722  23.4059834  80.8348179
  57.5205803  22.7561569  81.5368748  56.9628239  23.0635023  80.1637650
  18.1909275  22.4350524  74.7358370  17.7050900  21.7802858  75.2373123
  18.3872974  23.1249285  75.3696680 102.9093188  99.9330579   2.2406725
 102.9344720 100.3970490   1.4038233 102.3544568  99.1708098   2.0753245
  21.0200578 107.4024754  75.9116602  20.8764154 106.4708619  75.7452440
  21.3599092 107.7439209  75.0845289  53.8725090  28.9649177  82.0696259
  53.0127764  28.6845613  81.7557907  53.9293242  28.6136866  82.9582405
  70.4803514  48.8137197  76.4212799  70.8479214  49.0133190  75.5603027
  71.2178421  48.9077044  77.0241976  73.9876408  99.8049460   2.1357111
  73.5939115  99.5877705   1.2906985  74.4302505 100.6403695   1.9860796
  65.1373768  27.5972533  73.9114094  65.3520918  26.6649961  73.8793802
  65.2104950  27.8281999  74.8374510  98.6618155  91.0837899  19.4856028
  98.8325519  91.9666467  19.1575198  99.5043582  90.7898866  19.8319773
  81.7083329  66.5307484   2.6643042  80.7803935  66.6629682   2.4701933
  81.9858617  65.8479319   2.0535903  61.6426563  28.0045033  81.9539070
  62.0780659  28.7715507  81.5820312  60.7085133  28.1989050  81.8776512
 108.6410653 110.4065096  72.7382517 108.6144840 110.4593915  71.7828798
 108.4511124 109.4887205  72.9327059  61.1832857  22.7458405  71.0095406
  60.7310581  22.4886513  71.8130159  61.2663126  21.9330859  70.5107737
  37.7440476  29.1788316  87.1465397  38.1056833  28.3586049  86.8108559
  36.8147254  28.9933920  87.2814560  81.9445896  45.3313828  93.7040234
  82.0514488  44.6245384  93.0674744  81.6584587  46.0816574  93.1830120
  88.0629081  89.6764360  19.8744063  87.4289721  89.4572554  19.1915278
  87.9749412  88.9729963  20.5175738  26.0888934  39.8878002  83.8040829
  25.6549907  39.7789001  82.9578495  26.5812135  39.0761733  83.9270115
  15.3168809  24.9672890  78.5597467  15.4800439  24.4150400  77.7951336
  14.4389904  25.3209853  78.4167862 101.7526215  71.6012417   6.3460021
 101.4188689  70.9335373   6.9451766 101.4807815  71.3019179   5.4783968
 109.2941534  94.6910595  91.9828415 110.0951802  94.8767590  92.4728489
 108.7713229  95.4883765  92.0674992  68.5394764  32.3058414  69.1856194
  69.3763828  31.8484449  69.1043520  68.0928946  31.8618655  69.9065113
  83.0946445  40.1076794  80.2250290  83.0760002  41.0415697  80.0159073
  83.0183029  39.6707249  79.3768072  69.5324469  27.0798373  66.2802649
  68.8514662  26.4993596  66.6201878  69.0701437  27.8888655  66.0612202
 103.0578059 103.2343350   1.2367873 103.8160056 103.1420384   0.6598620
 103.4323567 103.3085595   2.1145300  51.8112040  17.3264027  68.9755297
  51.8788862  17.1644473  69.9164963  51.7166233  18.2760870  68.9021444
  86.3253880  43.3013582  85.9297371  87.0945072  42.9918623  85.4512978
  86.6780758  43.8980341  86.5898991  78.7624520 100.4955302   1.7497115
  78.2760352 101.1691104   1.2744097  78.0860156  99.9380456   2.1342711
  52.4448061  12.4021482  83.4705257  51.7355347  12.9784203  83.1857872
  52.0441580  11.5340614  83.5167980  79.3765706  86.5108906   1.0966162
  79.5672101  85.7305561   1.6171603  79.2194337  87.1981870   1.7440466
  33.0913138  11.4164197  84.2448044  33.4897137  12.0775914  84.8108006
  33.3782792  10.5810356  84.6135998  75.6085920  13.2499564  55.3559494
  75.9527206  13.8912451  54.7342110  75.0345469  12.6918662  54.8313189
  86.3219470  86.9447814   1.2971072  86.3580865  86.5642248   0.4195551
  87.2381753  87.0897303   1.5332274  91.4028472  80.3297077   8.0105643
  91.7988986  79.9326382   7.2348647  91.7200393  81.2328134   8.0057768
  58.9774132  56.2884331  72.7294970  59.1886091  55.3785324  72.9385710
  59.5146799  56.8034172  73.3314657   4.7615225   2.6385593   7.6953463
   4.4965965   2.6012992   8.6143927   4.9996073   1.7372798   7.4779849
  64.8955912  64.9123625  14.3142657  65.1770276  65.4570828  15.0493197
  65.2182669  64.0368192  14.5276503  59.7605610  47.1527195  86.5876293
  59.6405029  46.2718964  86.9425392  60.5925751  47.1096897  86.1163235
  59.1947889  78.0180025  93.9316940  59.0304279  77.1423149  94.2815399
  59.1309547  78.5956430  94.6922779  68.5511541  61.2113476  87.8352642
  67.7629709  60.8370495  88.2288361  68.2276392  61.9192553  87.2780895
  81.4514065  34.6892667  86.5087223  81.1559772  34.5230746  87.4038887
  82.2291374  34.1405344  86.4074135  40.7982635  13.6991799  63.7690735
  39.9900484  13.8380635  63.2753849  40.8209705  12.7560425  63.9309645
 112.5483674  66.5763365   9.9921946 112.4381179  66.1867605   9.1248374
 111.6571969  66.7706619  10.2825121  67.2049284  20.4572558  79.3683338
  67.8620386  20.0478125  78.8054800  66.7891073  21.1154127  78.8114214
  80.2299851  98.0878745   5.9691004  80.9859198  98.6010848   6.2544207
  79.5287103  98.7312184   5.8663611  71.5583420  60.4572392  89.4625568
  71.5396786  59.5852757  89.8569679  70.9233379  60.4104710  88.7478447
  23.7145293 105.3242551   8.6070399  23.6073077 104.5529042   9.1635851
  22.8249992 105.6548940   8.4819846  27.5160456  51.2394714  78.8991261
  27.2165561  51.3637018  79.7997427  28.1871271  50.5597734  78.9614868
  49.6611500  26.3381648  74.5746899  49.9155903  27.2594094  74.6276140
  49.7478056  26.0138750  75.4711008  72.9236269  56.0270548  67.2004414
  73.1628990  56.7853689  67.7333021  71.9759703  55.9473324  67.3091793
   0.1146234  79.2784487   7.1602683   0.3223146  80.0283824   6.6028647
   0.2589954  78.5161100   6.5997080  46.6039467  72.6928711  92.0994568
  47.3276091  72.1930885  91.7216206  45.8225155  72.1847868  91.8816185
  53.0722410 103.7559567  28.9055686  53.6101598 102.9781781  28.7574534
  52.8669745 104.0760432  28.0271391  76.8414927  27.9794955  46.5712118
  76.2137699  27.3174024  46.2816811  76.4606333  28.8107204  46.2879419
  41.5247822  59.2021561  73.6388445  40.9563255  58.4346342  73.5756016
  42.3662090  58.9062929  73.2914352  25.5696940  46.2812138  71.5377665
  24.8078012  46.6311073  71.0758972  25.2063560  45.8703423  72.3222399
  82.0495987  28.6490631  65.6471920  81.4680672  28.0613327  65.1648808
  81.6797638  29.5206308  65.5063725  74.9407196  51.8599892  72.8463936
  74.9212742  52.0661306  71.9118547  75.7652760  51.3900661  72.9709005
  86.4686316 100.9497319  17.0687727  86.6164416 100.5708323  16.2022738
  85.5444211 100.7791005  17.2503142  63.3274221  27.4768972  60.0876284
  63.1520128  27.8782558  60.9387302  62.8156948  27.9965949  59.4677162
  21.3724405  37.5871801  16.4224677  21.1556227  37.7211236  17.3451094
  21.6152937  38.4568643  16.1047987   8.6828006 107.0952712  21.9735388
   8.3516372 106.8544160  22.8387312   8.3924354 107.9988204  21.8489508
  73.6888075  62.0604992  89.8047829  72.8204966  61.7472839  89.5514774
  73.6161804  63.0145931  89.7790813  86.1786384  88.3891331  18.2641940
  86.6232509  88.5194050  17.4265913  86.2704104  87.4528919  18.4410052
  49.7544146  28.2765079  85.1208019  50.0940275  29.1409421  84.8891735
  49.5855761  27.8522110  84.2795563 101.1097878  89.8016582  28.8169055
 100.2470321  89.4033275  28.9318995 101.1276931  90.0735317  27.8992991
  19.1837151  34.5038652   2.8699450  18.2541926  34.2813539   2.9219393
  19.5871145  33.7489270   2.4414973  29.2088253   6.0796546  11.4876036
  29.6947319   5.2606487  11.5843539  28.6718256   6.1343669  12.2780947
  44.7273254  63.6690664  49.8322392  45.4916000  64.2088318  50.0341606
  44.9279928  62.8160858  50.2174473  83.0236930 103.3999930  12.0066027
  83.0394334 102.5111638  12.3615222  83.3589047 103.9474021  12.7166800
  66.9997740  31.3438630  62.0972347  66.1188841  30.9707761  62.0645523
  66.8580103  32.2897434  62.1352577  71.8823099  33.6365318  49.2998695
  72.3241568  33.5193038  50.1408577  71.9551373  34.5737886  49.1196489
  57.3272419  38.7128663  62.8969145  57.4194098  37.7689338  63.0262566
  56.4813852  38.8133240  62.4602652  51.5244436  46.2387085  74.4861460
  51.6763735  47.0063591  73.9349127  51.1816216  46.5961027  75.3052759
  89.2682904  74.8573683  10.8860163  89.3234605  75.7498894  10.5445628
  88.3900565  74.7986983  11.2621741 110.4124612 109.6664487  22.0564513
 110.6061715 108.7350426  22.1622042 110.4709262 110.0252925  22.9419188
  77.1380520  30.9048486  74.6083164  78.0841732  31.0378146  74.5499802
  76.8905497  30.5645394  73.7485695  53.5880041  60.7171965  91.7505455
  54.3150043  61.1792850  92.1679020  54.0089083  60.0860214  91.1668587
  45.7247734  18.0258024  90.6973839  45.1725864  17.3598087  90.2877808
  46.5321779  18.0167556  90.1833344  58.6411953  29.1002059  83.4360600
  58.3508587  28.3703709  82.8890038  59.2782736  28.7115765  84.0355015
  39.6077187   5.9023523   8.4164767  38.9815027   6.5998267   8.6104254
  39.6036942   5.8355521   7.4616198 112.2008199 100.5663358   6.4144091
 111.5024012 100.9541140   6.9417433 111.7774505  99.8444663   5.9497695
  77.3315925  82.8192244  15.4625563  76.5282244  82.3691688  15.7238631
  77.4615187  82.5660764  14.5486311  35.6078083   7.3031997   1.2117152
  35.7964689   6.7615270   1.9780211  35.2612049   8.1185006   1.5741782
  71.0622549  36.3561869  71.6218233  71.0889769  35.4848456  71.2265015
  70.6805706  36.2145543  72.4881363  95.2139062 100.9933816  17.5291495
  95.8460206 101.1982547  16.8401675  94.4542331 100.6461201  17.0616679
  59.2937469  38.2649255  59.6360397  59.9291897  38.0360889  60.3143311
  59.0320444  37.4246144  59.2597151  93.7725735  52.9226828  56.1261606
  93.0942917  52.4264908  56.5843725  93.3219433  53.3056879  55.3735161
  37.6432736  13.8178968  21.4889864  37.4059088  13.0091905  21.9427351
  37.6937420  14.4756984  22.1825175  97.6876640  53.9037704  56.5035868
  98.3092117  53.1920385  56.6563988  97.4109840  54.1723680  57.3796797
  70.6169987  36.9359636  61.8130064  71.1219025  37.6904893  62.1163130
  70.6483650  36.3176656  62.5430441  76.4143085  40.4327631  79.4167376
  77.1943808  40.3900862  79.9698162  76.7479420  40.3393316  78.5244465
  90.1922435  92.0144044  14.0949969  90.9645099  91.6226755  14.5029025
  90.2469224  91.7509137  13.1764082 114.2777652  99.8812733  25.6577448
 114.4341439 100.7016621  26.1254363 114.8097152  99.2353974  26.1226229
  46.3484460 108.3395312  87.8816128  46.5385324 107.4546625  87.5699997
  46.6910916 108.3575422  88.7752056  98.0772400  41.4361477  74.9507809
  97.1445847  41.6058493  74.8181677  98.4809685  41.6459179  74.1086245
  86.2408847  97.9661523  19.0351538  85.6382293  97.8979550  18.2946162
  86.2471455  97.0899020  19.4203429  81.4569187  53.2150793  74.2070341
  80.6886864  52.7857733  74.5835257  82.1425724  52.5478029  74.2362738
  30.2666378  19.3976486  81.0817432  30.1231480  20.3100514  81.3330650
  30.8854938  19.4444323  80.3530025  94.0406054  94.7656308   1.8966536
  93.8676900  94.6982036   2.8356890  93.3039254  94.3143855   1.4844470
  33.3736593  35.5023622  13.0565791  32.9171497  36.3435697  13.0425505
  34.0465815  35.6062364  13.7293486  25.6799585  16.6428375  13.3393244
  26.1894686  17.4274110  13.1366496  26.1830408  16.2005424  14.0230708
  55.0059748  86.1594486  74.9917269  54.3517160  86.4443398  74.3537474
  55.8460569  86.3322067  74.5667028  77.9437160  53.9537621  70.8599377
  78.0223894  54.8996878  70.7363892  78.8138247  53.6764908  71.1467552
  59.0344143  27.5467801  51.6947269  58.5383129  27.6306152  50.8804226
  59.3760109  26.6528034  51.6761255  34.5063270  82.8187190   4.1951899
  34.4964183  83.0195556   5.1310305  34.3391193  81.8772994   4.1504817
  49.7782278  15.7273388  74.9670887  49.1145802  15.1981759  75.4095697
  49.7575283  15.4268205  74.0585232  13.3221782 106.2157450   9.7031359
  13.0604423 107.1329699   9.7832922  12.5582946 105.7217847  10.0009779
 104.1975898  94.9421988   9.7850089 104.7785729  95.2808677   9.1038374
 104.5107144  94.0521251   9.9461131  67.5723428  62.9978876   0.9994463
  66.6424126  62.8871982   0.8014254  67.9206413  62.1065371   1.0197978
  62.9003811  54.6535921  75.4351807  63.2891512  55.3540611  75.9590435
  63.2608128  53.8484192  75.8066797  74.6334124  59.3339586  86.4916420
  74.6106577  60.0261116  85.8308506  75.4668427  59.4624901  86.9445229
 101.4849872 106.5557204   9.8709635 100.6250018 106.8761597  10.1429419
 101.9897956 106.5060483  10.6827120 102.3485440 106.5915404   4.0973906
 101.6692656 106.0606442   4.5132689 102.4171609 107.3693238   4.6510844
  90.0166863 109.2215644   0.3092532  90.9007758 109.2370139  -0.0573297
  90.1482552 109.2904197   1.2548594  57.8082275  67.5466394  82.8720474
  58.6051798  67.1272421  82.5477028  57.5051308  66.9730282  83.5758495
  63.1837845  30.7925153  73.7265921  63.0726862  31.6535902  74.1296244
  63.7811756  30.9459567  72.9946041  55.8120632  22.4920130  78.9360142
  56.0298109  21.5613174  78.8847923  55.4477739  22.7004600  78.0757380
  92.1867085  46.6363525  91.4799404  91.9783020  47.0837688  90.6598091
  93.0307198  46.2158060  91.3155842  16.1835223 107.8211485  89.3918037
  15.9517079 108.5107072  90.0138950  15.8981591 108.1587101  88.5427666
  45.9029388  13.7141562  77.2363901  45.4993439  13.0520225  76.6752100
  46.1150026  13.2464969  78.0441999 102.7091807  79.7714244  18.7963824
 102.8100604  79.9998866  19.7204260 102.7395600  78.8148247  18.7814765
  73.5607607  17.2429656  10.3403620  73.7136633  17.4554490  11.2610774
  72.8061182  17.7774810  10.0933222  31.9387705  33.2934331  23.1084494
  31.6299040  32.8585862  23.9032702  32.8210432  32.9475354  22.9736094
  66.0580969  40.3694820  90.2630806  65.8452415  39.4362473  90.2620792
  65.6791878  40.7024431  89.4495678  69.9353981  38.6565709  67.8232288
  69.7698927  38.5386109  68.7586021  70.1011229  39.5942593  67.7257013
  73.6760378  81.2799740  92.5045681  74.4889021  81.1555958  92.0146561
  73.7744331  82.1376419  92.9180431   8.3150066  68.3004843   1.7484526
   8.6949123  67.4224566   1.7172770   8.3434737  68.6061106   0.8418040
   7.1520293  92.4626718  11.5084509   6.4575256  92.6762162  10.8853201
   7.6705039  93.2646690  11.5733485  86.3358688  35.6639886  70.5150843
  85.6930828  36.1639786  71.0181332  85.8241653  35.2419567  69.8249531
 115.9963149  95.7643901  11.2666754 115.7675380  95.4635487  10.3872542
 115.1834458  96.1327039  11.6128306  27.8867275  21.6555738  10.9026865
  27.0021803  21.3245773  11.0584025  27.9106934  21.8426942   9.9642615
  52.3520851  53.6970329  76.3573360  52.9095316  54.0045834  77.0721102
  52.9642391  53.3494949  75.7087135  78.5755485  98.9594661  25.8377699
  78.9881772  99.0617810  26.6953806  79.0791196  99.5326768  25.2597765
  80.0227737  60.3487396  90.8244419  80.3843498  60.8597946  90.1003361
  80.5364132  59.5410252  90.8274651  81.5096283  57.2480345  33.2453966
  80.9404373  57.3572397  34.0071869  81.2619305  56.3981867  32.8812027
  42.9753876  17.0354950  87.0479965  42.3300457  17.3060131  86.3948536
  43.7611580  17.5368989  86.8302917  51.2082672  13.1713772  94.0669250
  51.6048384  12.7428687  93.3084106  50.3477716  12.7606940  94.1512966
  45.0853729  24.6067142  83.5846138  45.9087896  24.7151923  83.1087494
  44.8123932  23.7102151  83.3896637  80.4795742  30.6042171  67.6360559
  81.1517334  30.5215430  68.3125210  79.9787045  29.7906828  67.6953983
  51.8229723  12.6550663  65.6721735  52.3027706  13.4250391  65.3669357
  50.9055424  12.9280996  65.6699181  69.4323969  50.0922441  88.4548473
  69.7359419  50.3268337  89.3318081  69.1087341  49.1959715  88.5452080
  99.3346214  34.2547941  85.7517242 100.2666187  34.3159175  85.5422401
  99.0579987  33.4207773  85.3720760  60.3806585  63.9996807  11.5725379
  59.9526113  64.8317085  11.3707022  60.5929679  64.0593146  12.5039916
  78.8272142  37.1645832  80.5058956  78.1731081  36.7841840  79.9196529
  79.0700865  37.9914951  80.0894070  65.2515125  35.8439660  61.2297201
  65.9415531  36.3834000  61.6158390  65.7197905  35.2016544  60.6964445
  93.5371971  42.7768517  58.6762619  92.9307556  42.5706291  57.9649734
  93.7044716  43.7147999  58.5840178  72.3952389  74.5342541  91.9933033
  72.7241278  74.9594831  91.2013149  73.0753136  73.9020300  92.2257423
  95.6678647   3.3596648  93.2537365  95.9910458   2.5931777  92.7801418
  96.4500016   3.8858641  93.4199333  91.9244862  37.7845287  80.4040337
  92.7153873  37.7472401  80.9419250  91.2462330  37.3831582  80.9472752
  28.0551672  29.9708176  83.9172459  28.1074572  30.9249902  83.9725113
  27.6165843  29.8028851  83.0831814  27.6732237  17.8489780  10.3245215
  27.6353914  17.1191835   9.7062926  27.9655726  18.5934400   9.7986464
  72.0329040  58.6940749  13.3145575  71.9853610  59.1207655  12.4590353
  72.7021378  59.1857676  13.7905745  54.8114920  19.3498194  83.2643509
  54.6141815  18.5276949  82.8155613  55.6773663  19.5977724  82.9402924
  65.6610394  44.4987106  85.1802540  66.5471745  44.8116541  84.9984264
  65.7886934  43.6451006  85.5941296  88.1143016  84.8514043  18.2564787
  88.9870566  84.9471603  18.6377387  88.1704110  85.3016244  17.4136309
  56.1722166  26.3386487   9.8030333  55.7318194  27.1128129  10.1536898
  55.8436663  25.6143617  10.3356509  81.7206097  65.8927917  95.0555801
  81.7766285  65.0050545  94.7020054  82.4254131  66.3699484  94.6176243
  76.7192698  84.4956493  84.8859024  77.3058462  84.8998737  84.2465496
  77.1274471  83.6533833  85.0864506  60.2281046  62.0921850  76.3804150
  61.0645533  62.4587727  76.6671085  59.9354649  61.5573788  77.1183729
 117.2439259  74.0891240   0.5155997 116.7143554  73.2921646   0.5409293
 116.6361922  74.7882841   0.7565741  69.7551412 107.3106538  12.6139597
  68.9320892 107.4979935  13.0653147  69.5633644 107.4706231  11.6899161
  47.0543558   8.2221078   3.3983950  46.4711458   8.8984536   3.7428526
  47.4733431   8.6303043   2.6407294  35.3880000  69.5281124  73.1549120
  36.0918117  70.1751947  73.2014513  34.6655226  69.9902058  72.7297926
  72.2848558  51.5738630  77.0407391  73.0508184  52.0978117  77.2752810
  71.5408707  52.0732021  77.3774529  31.3553953  20.6980109  88.3971882
  30.8054328  20.3418565  87.6993847  32.0924187  20.0900102  88.4551811
  94.9192619  46.2334299  75.7911444  94.0050030  46.5161276  75.7699108
  95.1883030  46.2235594  74.8725891  69.6992016  51.2650061  72.6880169
  68.8869905  51.2351513  73.1936312  69.6954012  52.1306896  72.2795963
 111.1018914 106.2089740   8.2471423 111.3087815 105.4765807   7.6666026
 111.8574399 106.7922698   8.1754355  74.6219969  28.4508610  66.9936037
  73.7730455  28.6368322  67.3947620  75.0098515  29.3129492  66.8432522
  76.2103081  17.6391137  87.5138187  76.2172222  16.9822407  88.2100296
  76.7397261  17.2537398  86.8156528  17.4662478   0.7453298   2.5285677
  17.0296223   1.3670635   1.9462924  18.0470593   0.2464628   1.9541029
  97.7837151  85.8419810   1.9808058  97.1835774  86.4509116   1.5503745
  98.5615939  85.8378588   1.4230208  43.4159071  22.6527499   3.2869200
  43.0766279  22.6596450   4.1819434  43.9628966  21.8683957   3.2441573
  57.9858351  64.4776106  93.0673409  57.3043442  65.1184511  92.8645611
  58.4126234  64.8219776  93.8518810  60.9091234  37.5976849  88.7537861
  61.1468601  37.2668529  89.6199608  60.8456469  38.5458446  88.8686657
  72.1527195  29.5753980  71.6234732  72.1736193  29.6805358  72.5746536
  71.2349844  29.3916297  71.4229202  50.5586672  26.6827297  79.5642996
  50.7912016  26.0829806  80.2731419  51.2610769  27.3329902  79.5606327
  76.0037989  69.5539461  16.5592055  76.9093102  69.6341894  16.8589549
  75.5211610  69.2588948  17.3313765  63.4135056  53.2838821  86.4478302
  64.3539333  53.3326864  86.6194057  63.0993366  54.1784668  86.5791607
  83.2098293  23.5886645  69.9403906  83.2806587  23.4384894  68.9977026
  83.7860012  22.9319406  70.3315020  86.6900539  21.6822100  69.3432760
  87.5146389  22.1193981  69.5557880  86.0561562  22.3944473  69.2588425
 104.2800492  83.8352595   6.2686495 105.0337476  83.7125383   6.8458132
 103.6296433  84.2769037   6.8146853  74.8816633  29.5635176  75.3782320
  75.6450987  30.1337028  75.4692411  75.0640488  29.0419912  74.5965815
 103.0836868  22.8486156  81.0319138 102.6011944  23.0045700  81.8437672
 102.4081612  22.6294541  80.3901482  46.5741777  24.0085340  79.2896748
  46.5026760  24.3487597  78.3978462  47.5162029  23.9415765  79.4456720
  54.7620010  48.9630032  78.1054449  54.3916607  48.5772133  77.3115635
  54.2128801  49.7276115  78.2788324  59.2119503  41.8378162  63.8794565
  58.5170412  41.2912893  64.2463923  59.9894857  41.2797880  63.8960075
  81.8647861  69.0441370  81.9082832  80.9113979  68.9589930  81.9146252
  82.0585060  69.5069695  81.0931206  70.9217978  24.5385122  91.1326981
  71.6729641  24.2819142  91.6676140  71.2963772  25.0797868  90.4377556
  54.5278120  20.6944275  67.6461124  54.9496174  21.4953661  67.9572582
  54.4392395  20.8217645  66.7015648  95.6964779  66.8925762  83.4672928
  96.4370060  67.3782682  83.1040382  95.8443928  66.9022989  84.4129467
  86.7193192 102.4044858   3.2519583  86.7864245 101.8819533   4.0511374
  87.2319764 103.1914578   3.4365897  41.0529232  53.3557415  60.5838823
  41.6345406  52.6334763  60.3466368  41.6292524  54.0046501  60.9876108
  48.1199503  29.3515420  95.2713776  48.9617968  29.2828608  95.7217216
  47.8584146  28.4445095  95.1128674   2.5873501  17.3347186  16.1779265
   2.8987629  16.5228223  16.5780215   3.3720572  17.8762578  16.0930590
  46.7673874  30.8472705  90.5467892  45.9604597  30.4232311  90.8388233
  46.4733839  31.5401077  89.9553776  49.1660309  46.6882563  83.1269646
  48.2478333  46.8402529  83.3506680  49.4010544  45.8938837  83.6065197
   6.9638408 104.1017018  21.8194537   6.8193019 104.7114526  21.0958914
   7.8391135 103.7473212  21.6628127 111.4412517  84.2296825   9.6428065
 111.6299695  84.9176894  10.2809767 112.2642821  83.7481366   9.5593218
  30.4335368  72.3192893  29.1343932  30.8778728  72.4847339  29.9659113
  30.1133598  71.4202867  29.2086367  76.5027761  35.8087683  84.0124416
  76.8416309  35.6607985  84.8953438  76.8367386  36.6722441  83.7693214
  76.1554909  45.5156517  93.3633518  76.6503286  45.3141022  94.1575527
  75.4472160  46.0866594  93.6608982  47.7185678  51.0051727  90.6675148
  47.9491186  50.2271080  91.1751556  48.1849766  50.8972359  89.8386383
  76.1141188   9.0559053  18.9654307  76.2463457   8.6159467  18.1256728
  76.5484125   8.4897374  19.6034483   5.3507865  94.7967873   3.2266955
   5.0530017  94.5819078   2.3427348   4.9490417  95.6448947   3.4152274
  59.7828341  40.3483486  67.2499752  60.2840328  39.6176744  67.6121140
  59.9365234  40.2998924  66.3064384  44.9902231   7.3156165  12.6109080
  44.5148928   6.5834188  13.0035548  45.8160002   6.9333743  12.3138861
  80.4603100  50.5804586  75.7244158  79.7930479  50.6751204  76.4041471
  81.2892532  50.5663157  76.2028313 102.2699565 109.5540486   9.9437766
 101.8797368 109.0739594   9.2133860 103.2104081 109.3977795   9.8579363
  99.7323704  28.9854240  85.8212948  98.9802551  28.4508395  86.0758018
  99.5749950  29.8333883  86.2365246  91.7884350  32.3355556  75.4763651
  90.8725548  32.5192022  75.6853437  91.7956066  31.4129210  75.2215624
  61.7357523   6.8545341   2.8558974  60.9191115   6.6322517   2.4087672
  61.4569170   7.2340869   3.6892180  75.4338884  51.2711239  88.4199047
  76.0234356  50.5182743  88.3765507  75.9056711  51.9710875  87.9685783
  62.7445412  50.8050966  72.1220541  62.9559708  49.8894930  72.3042488
  61.9200182  50.9570026  72.5839186  71.3509750  30.5795741  88.4664822
  71.7548800  30.6143570  89.3336010  70.6947231  31.2762737  88.4798241
  60.7777357  16.1090732  83.6009693  61.0651875  16.0972071  84.5139122
  59.9502563  16.5899646  83.6166382  59.0859365  50.3636980  76.8953514
  58.4928131  50.7412291  77.5448942  59.9592686  50.4908371  77.2659731
  49.5996428  54.1939592  82.7593231  49.9226189  53.3047009  82.6139545
  50.2273703  54.5798874  83.3702660  88.9386845  57.9099369  85.1642799
  88.3324623  57.8130960  84.4298744  89.2103291  57.0154810  85.3701687
  90.7053661  51.9282532  66.8389654  91.3084030  52.6600933  66.9693089
  90.0282574  52.2762585  66.2587547  47.3361570   0.6704091  18.1468443
  46.8989832  -0.0696755  18.5680155  48.2699854   0.4898071  18.2544570
 106.5479487 106.8447696  37.5991969 106.8516225 107.2791062  38.3962969
 105.7523602 106.3840686  37.8657107  80.8646297  66.2299633  68.5675669
  81.2330341  65.5698872  69.1547680  79.9246407  66.0492849  68.5637808
  98.3772278  41.7380762  94.0216541  97.4781990  42.0662069  94.0040588
  98.4585857  41.2193775  93.2213020  96.0856724  74.8375654  79.2894173
  96.3332462  75.0018454  80.1993370  96.8831444  74.5002747  78.8813734
 113.8337601  16.6233444  39.2079310 113.4947193  16.8465280  38.3410601
 113.2162655  17.0270156  39.8178343  26.4507801  12.0613002   0.7521491
  26.8667824  11.2193536   0.5669455  26.8398792  12.6650380   0.1194338
  86.3854599  59.4246483  75.8367348  86.9718742  60.0456572  76.2688303
  85.6987762  59.9704695  75.4536200  85.9229946  45.6427002  82.6751328
  85.3557968  45.4179144  83.4126949  86.6703701  46.0877132  83.0746746
   4.2797626  79.6197258  27.6458601   4.8083747  78.8290630  27.5378661
   3.8438380  79.7335945  26.8013339  74.7019142  85.8109985   1.7962317
  75.0528616  86.5208088   2.3340373  73.9638466  85.4701076   2.3014884
 114.7019386  34.0861225  86.4030838 114.2430878  34.2768288  87.2212029
 114.0765095  33.5726929  85.8917522  64.2013597  52.0879316  75.9474039
  64.9781275  51.8123198  75.4606771  64.3021345  51.6827059  76.8087196
  61.7722130  49.6257305  81.9603539  60.8646679  49.3391371  82.0626259
  62.1507359  49.5392227  82.8352642  38.0952103  13.6162423  14.9895339
  38.7773497  14.0317821  14.4620471  37.2796948  13.8247299  14.5337920
   9.5181049  72.0890568   1.5618948   8.8019431  72.0153938   2.1927027
   9.5469154  73.0196987   1.3398413   6.5685410  81.0414124  83.0032063
   6.0675854  81.1939430  83.8044643   6.3280529  81.7680454  82.4283981
  82.4560165  44.5589066  70.0998259  83.0673885  44.2127371  69.4497252
  82.9716778  45.1906872  70.6010056 108.5750503 104.8772965  25.3551440
 107.7226275 104.6039925  25.6941370 108.3667678 105.4581891  24.6234278
  47.9211218  35.2401494   3.6974387  48.2303221  36.0094499   4.1757636
  47.9752524  35.4933500   2.7759223  76.8464613  84.7774315  87.6923180
  76.8811083  84.7355556  86.7366600  75.9122896  84.8208332  87.8964424
  58.3334780  85.4775810  85.2179432  58.8215399  84.8451233  84.6906662
  58.8608360  85.5873680  86.0091877  71.0771084  64.6895409  88.1096554
  71.9584036  64.5175552  88.4412766  71.0466242  64.2389917  87.2656727
  71.8830013  90.0432968  87.5706577  72.7122402  89.9844837  88.0451393
  71.5345621  89.1518974  87.5859451  24.4404507  59.2342091  71.6710186
  24.3748903  59.9041462  72.3515511  25.1871085  58.6966896  71.9352198
 100.6267357  43.2932711  42.2482109 101.0386086  43.8541126  42.9055166
 100.1024628  42.6741505  42.7562046  26.4535553   2.0501136  12.2354178
  25.8638031   1.2963771  12.2530417  26.3934166   2.3803663  11.3390116
  68.9401627  37.6185250  70.3225231  68.1634331  37.0592356  70.3333426
  69.6389055  37.0647764  70.6708765  73.6078882  17.3407435  91.5821934
  74.5007515  17.1790051  91.8869400  73.6414766  17.1701264  90.6409264
  72.0904207  11.2706184  65.2864885  72.2454596  11.4770496  66.2082148
  71.1378670  11.2885129  65.1939774  80.0245094  73.5080862  84.1953182
  80.1898479  74.2430496  84.7858524  80.8662224  73.3504295  83.7676525
  56.8140776   7.2421312  25.3058772  56.4457113   7.5213336  24.4676737
  57.7377302   7.0754718  25.1179652  73.7025976  41.0653782  88.5237789
  74.4181061  41.2341499  87.9107571  73.0195618  40.6606340  87.9891014
  88.5324955  27.2109795  77.6121616  88.2026291  27.1823645  76.7140532
  89.4775581  27.3290753  77.5165558  82.6643562  42.3206758  65.6131124
  82.6264477  41.8901062  66.4671659  83.5957909  42.3344421  65.3929615
 104.1899109  63.3659601  92.2007084 103.3586311  63.3519936  92.6750565
 104.7884655  62.8613615  92.7514744  79.2421818  64.9699688  52.0511723
  80.1942348  65.0616932  52.0136261  79.0420437  64.2861652  51.4119625
  74.2138433  54.0437460  74.3653011  74.5354652  53.3461475  73.7942123
  73.3756924  54.3006372  73.9809179  76.2317944  62.0715237  88.2128620
  75.3731585  61.9746733  88.6246777  76.8453264  62.1173811  88.9461422
  80.0697231  34.4850802  59.5849943  79.3021679  35.0389457  59.7275543
  80.2812481  34.1409230  60.4527760  88.0077744  44.6110058  88.0448627
  87.2544956  45.1982021  88.1081867  88.6830711  45.0292826  88.5789585
  64.8471308  57.4893379  78.2728386  64.8886633  57.1844721  79.1792393
  64.0566826  57.0816374  77.9189968  58.0521536  73.6040831  79.9118900
  58.4791327  73.2221174  79.1450644  57.1245623  73.3975220  79.7972584
  29.0948451  95.1956378  16.2869887  28.3438171  94.6419988  16.0732798
  29.6988261  95.0731407  15.5545764  46.5723848  60.7476091  88.3620167
  46.6867828  61.3764429  89.0745640  47.4629450  60.4858780  88.1282711
  64.7505362  35.9266519  11.5364413  65.5609018  36.4115762  11.3802962
  64.6994002  35.3054380  10.8099989  77.5733519  62.5978279  72.7995586
  77.9026318  62.0403242  73.5045385  77.4766445  63.4608936  73.2020473
  37.9942799  49.1816282  80.0756645  38.4842849  48.8895559  79.3070173
  37.0996380  49.3027449  79.7575855 113.4731007  52.5865936  76.0575294
 114.1155815  51.8770981  76.0487127 112.6478672  52.1654320  75.8170223
  32.8997500  26.9824838  23.3845000  32.9053337  27.6998567  22.7507929
  33.5167439  27.2572660  24.0627722  65.8409595  39.3805480  72.3999166
  64.9956417  38.9856982  72.1860027  66.4407969  38.6380768  72.4717855
  80.0968266  36.3935566  85.2505302  80.6747532  35.8324599  85.7676411
  80.1018620  36.0022593  84.3769741  57.0613938 105.3586339  93.5190010
  57.4676496 105.4806056  94.3770885  57.3813420 104.5069884  93.2214069
  39.4406063   3.4540128  31.3952784  39.0081007   3.5648631  32.2419600
  38.7456114   3.1557607  30.8085303  36.0544283  12.1820306  10.5311541
  35.5960590  12.8668641  10.0441889  36.9435675  12.1903848  10.1767687
 105.9487724  36.4799333  90.8880329 106.8942547  36.3336134  90.8584213
 105.7826996  36.7937541  91.7769527  97.2356987  64.3808508  71.0678101
  97.6932526  65.0844049  71.5281105  97.7655029  64.2214727  70.2866936
 107.2922057 100.4748164   5.5250983 107.6851911 100.3801690   4.6574358
 106.3889951 100.7398616   5.3513293  86.7582321  48.7972879  80.2869987
  87.3080063  49.3314171  80.8603096  86.5244198  49.3822527  79.5663214
  62.4455340   4.0205335  28.5605292  61.6017515   3.9076423  28.9981703
  62.3201449   3.6320781  27.6947264  24.3481803  54.8286295  64.0848446
  24.6683383  54.3865156  63.2985449  25.0402403  55.4510307  64.3082380
  85.1243657  85.9289251   9.0000681  84.9707717  86.8445693   8.7671713
  85.2903289  85.4936944   8.1638484  27.8398258  17.5976371  20.3232245
  28.7138302  17.3035430  20.5798678  27.9561884  17.9546594  19.4427542
  19.2613012   2.4707555   5.1840167  18.9669306   2.3023032   4.2889266
  19.3132193   3.4246921   5.2435450  56.7740631  48.2562971  80.9059334
  56.1350870  47.8009367  80.3576756  56.3745975  48.2731915  81.7756271
  53.5010099  53.3462000  80.0213146  52.5486565  53.3151150  79.9302816
  53.7670803  52.4279976  80.0697327   9.4405044  92.0755587  13.3228735
   9.0710033  92.7854310  12.7977328   8.7359870  91.8292771  13.9222388
  48.5372782  51.6850615  79.1211462  48.0273819  52.4103498  79.4819736
  48.0262423  50.9040499  79.3335009  26.0741169  25.9657430   8.4195761
  26.7109997  26.5241956   8.8653998  25.9008248  26.4137983   7.5916628
  59.3836260  61.9651604  86.0871696  59.7025108  62.6865578  85.5448341
  58.5650921  62.2907209  86.4616585  95.1138944 107.5903426  10.5242972
  95.0881452 107.6754056  11.4773707  96.0260409 107.3771392  10.3274207
  89.9682999  17.6251113  76.3894939  89.3013954  17.5786316  75.7044315
  89.7886944  18.4486413  76.8431187  76.9965792  70.8349276  72.1352482
  76.8287420  70.3055811  71.3556004  77.8837585  70.5940151  72.4018955
  81.4083385  81.2600327  79.9209261  82.0040798  81.9854355  79.7335482
  81.6308212  80.9915352  80.8123589  18.5727657 107.1231471   4.9194579
  19.3267978 107.6195918   5.2375750  18.9034332 106.2321387   4.8054652
  61.8188286  55.1094055  93.2428932  62.6085377  55.4620266  93.6530781
  61.2997580  55.8819151  93.0192184  63.5041714  47.7753305  72.4415922
  63.9613390  47.0933247  71.9495630  63.5127783  47.4642181  73.3467770
  63.9070982 106.7258225  14.2435984  63.8284296 107.6786433  14.2901759
  63.2195825 106.4582597  13.6337142  73.2483959  64.7409678  90.0900841
  73.0548382  65.6735277  90.1854515  74.1861248  64.7091341  89.9006462
  67.7810574  84.7365570  92.7906895  67.0506430  84.7083473  93.4086895
  68.4860468  84.2621040  93.2312775  22.9710228  34.1319608   6.6917567
  22.4570877  33.3922052   7.0155863  22.4293310  34.8991632   6.8766932
  76.0824394  33.6955667  82.4027252  76.2677765  34.5577288  82.7749634
  75.8367157  33.1575465  83.1553078  74.3843985  33.0184627  80.3794193
  74.3107653  32.0806766  80.5565357  74.9851084  33.3425093  81.0505199
 112.8583241  69.7082186  66.3106775 113.6011887  69.6538258  65.7094860
 112.5511932  68.8054848  66.3941908  13.4542925  18.5998344  16.5030150
  13.5288317  18.1507253  17.3450236  14.3325932  18.5489940  16.1258654
  36.8213367  42.1466637  94.4166374  37.0310783  42.2831726  93.4927273
  37.4305439  42.7156258  94.8871422   1.1100525  71.0839558  92.6661777
   0.2582688  71.3736677  92.9929256   1.2494225  71.5988016  91.8713570
 112.8763789  89.4992314  12.6359992 112.1381968  89.0136491  13.0041461
 113.0135983  89.1084991  11.7730288  74.1900396 103.8046551  77.5689459
  75.0494003 103.7364578  77.1529102  74.2726088 103.2939243  78.3742809
  71.7767620  49.4036865  92.2711182  71.1860704  48.7765646  91.8539429
  72.5136137  48.8733768  92.5745296  80.2827835  67.6672697  77.8437328
  79.9674273  68.1036234  77.0522928  80.1557255  66.7346191  77.6698303
  72.3047638  42.4730015  70.3849077  72.9541206  41.7766523  70.2866364
  71.7372131  42.1727943  71.0948324  90.1783943  51.1780977  72.1334791
  89.8344517  50.3174877  71.8941355  90.5051994  51.0656404  73.0261087
  79.0902376  63.7412930  87.1846294  78.5357380  64.4620991  87.4833012
  79.0717459  63.8046932  86.2297058  60.5690527  28.4453773  66.0542727
  60.7023811  29.3923044  66.0965347  61.1507368  28.1526756  65.3527021
  64.2708731  60.2881765  68.0840302  65.0743389  59.7915077  67.9291487
  63.5913420  59.7932196  67.6263285  14.8021377 107.8020678  41.3692526
  15.5767215 107.2448932  41.2929968  14.3544639 107.4838887  42.1532111
  42.8526926  71.0938597  94.0652275  43.5125208  70.8862019  94.7268486
  42.4887133  70.2446175  93.8151550  85.2703094  24.7283983  88.3763409
  86.2104607  24.7968936  88.2100296  84.9099159  25.5562472  88.0585194
  84.0487576  53.2960653  75.5664968  83.9619637  52.4810219  75.0721216
  84.9504852  53.5763693  75.4098034  62.4388868  33.1384229   6.8719821
  63.0051500  33.6509275   7.4489741  62.0917875  32.4440812   7.4320178
  84.1476822  59.9289274  72.0411682  83.8247681  59.0323639  71.9509697
  83.9926052  60.3266859  71.1844492  80.4576206  29.2750001  88.3847237
  81.0574055  28.5634232  88.6086559  79.6960068  29.1320705  88.9466381
  86.2383747  78.4601831  87.1559048  87.0453930  78.1245375  87.5461578
  85.5472469  78.1781673  87.7551079  33.9987070   5.1951885   2.7098135
  33.2215912   4.6370458   2.7381377  33.6651117   6.0579156   2.4635558
  79.7442436  35.6030154  82.7322865  79.3777180  36.2173557  82.0963001
  79.5559931  34.7387624  82.3664093  89.4805622  33.6885810  83.4281540
  90.4182434  33.8794851  83.4047699  89.3424129  33.0775619  82.7044201
 115.4174918 107.8090297   3.5072379 115.2366418 108.5537396   2.9337077
 116.3297576 107.9266940   3.7720923  21.1345703  11.8267965  26.7115263
  20.2708895  11.4355850  26.8428282  21.1067946  12.1750306  25.8203558
  13.4589256  91.4187108   7.6797919  13.2633937  92.1491943   7.0929389
  14.2696632  91.0446964   7.3347620  62.7640200  39.0459347  77.8924227
  63.1882048  38.7003565  78.6778402  61.9795275  38.5076380  77.7873659
  42.4076159  18.7924337  19.1802077  41.7638380  18.2459354  18.7295203
  42.5986654  19.4972419  18.5613589  25.0165207  49.3800782   3.3922820
  25.4458363  48.5283994   3.3112959  24.4214756  49.2786741   4.1351656
  46.1731894  16.5239238  10.8598380  46.7428953  16.5482187  10.0910239
  46.7521555  16.7303943  11.5935950  63.8038015  24.3435907  79.3748188
  63.4943485  25.2225852  79.1560984  63.0053806  23.8219023  79.4560671
  45.9130335  79.3172169  79.8771715  45.4897308  79.6890593  80.6509781
  46.8269825  79.5925951  79.9485350 112.1308613  39.8989773  81.2754345
 111.6604519  39.0659428  81.3069630 112.0374680  40.2602911  82.1568871
  15.6320918 105.4548894  31.8316226  15.4272140 106.2990008  32.2337775
  16.2735809 105.6626569  31.1522440  72.8995085  76.3238955  89.8641968
  72.9618692  76.1784506  88.9201736  72.7444696  77.2643757  89.9519157
  62.0719337  55.4644346  88.2297802  62.8977060  55.5522108  88.7058353
  61.4481401  55.1561117  88.8870907  72.8586340  70.7494116  91.6531563
  73.3333302  70.7094479  92.4833965  71.9365501  70.6817389  91.9009686
  97.1373844  50.8607149  76.4293909  96.5105724  50.7368708  77.1421337
  97.6997185  50.0870657  76.4678383  51.3410456  16.4840745  28.6259417
  50.7929403  16.3908529  29.4051222  51.8693144  17.2638463  28.7966017
  84.4522190  32.8079581  61.3697863  84.1552830  32.1965933  62.0438004
  83.6474323  33.1080794  60.9473228 103.6110592  59.0557098  88.5867310
 104.1840553  58.7473440  89.2887402 103.4201622  59.9653435  88.8155460
  73.1440592  41.2939930  92.3111916  72.8046036  40.8023643  93.0590630
  72.5318861  41.1022902  91.6007519  41.6852140  60.4538679  92.6913261
  41.0874271  59.9127150  93.2071114  41.4171553  60.3087807  91.7839527
  61.8817902  53.4476900  78.7296295  61.4749336  53.2000399  79.5599127
  62.7704811  53.7117910  78.9677572  62.6024055  36.3686895  75.0922108
  63.4064293  36.1996388  74.6010876  61.8984175  36.1426687  74.4843054
  73.0504847  28.3024597  89.8347473  72.6727581  28.0314946  90.6714821
  73.0736923  29.2582726  89.8807526   7.2011454   7.5270747   7.5066332
   6.6266043   7.7648639   8.2343726   7.1376736   8.2650518   6.9003443
  58.3895063  59.8928118  74.0993309  58.9087391  59.1057205  74.2640257
  59.0358639  60.5658722  73.8861561  61.1146069  51.0417366  74.6101046
  61.1935759  50.2009296  75.0607014  61.4526558  51.6818047  75.2364206
  74.4336605  31.7245436  77.1619606  74.1787815  30.8722496  76.8086004
  74.1187716  31.7129683  78.0658102   1.3193268  72.3739052  64.8379183
   1.9412274  73.0900335  64.9668550   0.6786484  72.4836349  65.5405664
  76.7626238  92.5341606  87.2253132  76.2367249  92.4245358  88.0175495
  77.6144505  92.1595383  87.4495411  38.5861332  27.8815030   7.0709853
  39.3127377  27.8161382   7.6906638  38.9707787  28.2842969   6.2924914
  59.7761822  50.8185005  87.7814484  60.2860403  50.6065512  86.9995594
  59.0755558  51.3879156  87.4634457  53.4327395  11.0235929   7.3392825
  52.5549681  11.4015579   7.3930792  53.4756548  10.4120588   8.0744128
  21.8072588  31.1290883  19.5235590  21.3235361  31.4991998  18.7851386
  21.1827452  30.5411577  19.9484591 100.3722763  61.3943958  76.2951231
  99.8483372  60.8736181  76.9038200  99.7477722  62.0048189  75.9031916
  76.8563366  92.7580929  70.9501505  76.6270876  93.4778595  70.3622675
  76.3913822  92.0008469  70.5943155  57.6590776  70.3588772  85.2295113
  57.5730801  70.2696133  84.2803669  58.3238363  71.0374975  85.3470039
  60.3240759  12.9680919  20.2475981  59.4924433  12.7760696  20.6808905
  60.6012327  13.8046598  20.6211905  77.1711969  56.7421722  66.8128061
  78.0625439  57.0845461  66.8799734  76.7508841  57.0062494  67.6312399
 113.2798672  50.4169130  81.3427734 113.8555813  51.0546684  81.7647457
 112.4017143  50.6517553  81.6426373 113.4105909  42.7087545   9.0141158
 114.2717779  42.8990316   9.3861060 112.8539789  43.4248399   9.3201117
  52.5082857  18.0841874  33.4056048  53.2917387  18.1524181  33.9513068
  51.7840941  18.0438756  34.0302329  44.1495402  25.5150937   8.1264166
  44.9689943  25.0994062   7.8581957  44.4177897  26.3550233   8.4989600
  76.5603781  44.4375896  17.9488528  77.2174358  44.7793961  18.5552132
  76.4554501  43.5203218  18.2015240  57.9868317  48.0066204  76.4598751
  57.7453756  48.0770254  75.5363083  58.2718801  48.8880634  76.7007828
  96.0241604  56.0121059  76.9016027  96.3637161  55.1209688  76.9841433
  95.4706669  55.9861755  76.1210918  76.9983673  59.7675657  77.2121763
  77.9221630  59.9756670  77.3519230  76.5608644  60.0748587  78.0061531
  49.8068125   1.4202832  21.3377432  49.2455275   0.9506463  20.7207827
  50.6146509   0.9075450  21.3647131  77.7318430  57.9366493  86.4675236
  78.3169889  57.7948856  87.2116566  78.3021021  58.2691813  85.7743740
  84.3085289  69.8788881  85.8930588  84.7982788  69.0609598  85.8072567
  84.9030018  70.5502605  85.5582523 113.7271565  79.6759115   2.1573596
 113.4090632  79.7522889   3.0569224 113.7322349  80.5746470   1.8279891
  43.0778391  20.5767154   0.0368075  42.9450209  19.7829723   0.5550341
  42.3449785  20.5862188  -0.5788656  58.1750853  49.8210382   7.1286063
  57.7939589  49.7584676   8.0044226  58.7428553  50.5906152   7.1688895
 106.7571831  53.8128662  47.7738523 106.6576290  52.8653383  47.6815844
 107.0654297  54.1059399  46.9163418  40.4072059   3.0963934  92.0278263
  40.1467479   2.4605502  92.6942348  41.0513175   3.6524809  92.4661446
  33.0818713  93.3419095   7.9785494  32.7725089  94.1862903   8.3064894
  33.5659850  93.5573636   7.1814017  61.6168291   4.1348600  11.7278628
  61.2299425   4.6830129  12.4105696  60.8664972   3.7890147  11.2445216
  73.5573387  55.0061369  78.5337782  72.9061937  55.2275610  77.8680372
  73.0429125  54.6861649  79.2748690  74.5700693 109.8518848  74.8398829
  75.0664949 110.2368736  74.1176796  73.6537027 110.0009918  74.6069241
 104.6783829  81.1547279  70.9892941 105.4081249  80.9168816  70.4173374
 104.5186901  82.0796871  70.8017254  22.3577941 102.5088464  17.4884181
  21.6084922 102.7572642  16.9470648  23.0383552 102.2685538  16.8596701
  36.7473919  26.4101552  10.5263571  36.7634184  25.4928064  10.2534918
  37.5670654  26.5318727  11.0054736  69.7476101  92.0155239  87.7146149
  68.9977312  91.4788055  87.4580193  70.4001617  91.3851357  88.0196190
  45.4498942  20.3664731  32.8927950  46.1300356  20.4739570  33.5576872
  44.7554953  20.9682082  33.1610350 115.8487034 102.6500130  95.1920414
 115.3687096 101.8218708  95.1973057 116.6794872 102.4426079  94.7642422
  91.1447334  59.2685890  38.8234258  91.7472172  59.7458506  38.2529283
  90.4138947  59.8718786  38.9581633  75.9758568  46.8482876  70.3069401
  75.2146530  46.4916754  70.7647943  76.7116499  46.3218021  70.6194401
 104.9335670  79.3394470  82.4584198 105.6549358  78.7722588  82.1860886
 105.1445103  80.1932907  82.0806789  45.0036986  18.7604713   7.0877985
  45.2038080  19.5937919   6.6614680  45.2800734  18.8835906   7.9959254
 114.8713684  78.4032679  94.4567108 114.7146606  78.8474703  93.6234283
 114.3714905  78.9105511  95.0962639  66.4567852  28.7403393  68.9153719
  66.5805054  29.1934633  68.0813456  65.5074406  28.7132573  69.0347147
  51.2677462   2.4066352  26.5029387  51.2254603   1.5150642  26.1571936
  50.5508597   2.8669833  26.0665946  69.3811750  42.7092171  74.2041922
  69.9266005  42.8964043  74.9681997  69.9710321  42.2718525  73.5901785
  80.3343582  92.2483158  83.9431667  79.4768524  91.8834114  84.1616917
  80.6261921  91.7383003  83.1875610  79.1547680  89.9993992  93.6512852
  79.4172668  89.7279167  94.5308399  78.4691763  89.3789864  93.4037399
  83.9119911  67.8296566  78.6769772  84.1418648  67.9926920  79.5917559
  84.3164730  66.9859362  78.4750891  76.1620808  82.7220440  92.0352650
  76.8800974  83.0325127  91.4836407  76.5446806  82.6528645  92.9099464
  92.8638649  50.8692646  80.5915737  92.2555542  51.1055899  81.2918091
  92.4855137  51.2596369  79.8037338 111.7875767  57.7973604  77.9461050
 112.5161743  57.2599602  77.6353455 111.0692406  57.1773481  78.0718660
  50.8107454  42.4833345   8.3437972  51.7251284  42.7357721   8.2157568
  50.7040674  42.4436425   9.2942099  63.3041286  85.5981827  90.8564758
  63.8546324  86.3812065  90.8637238  63.7134457  85.0236130  90.2095127
 103.8755989  69.9035549  66.3843870 104.3876648  69.3966198  65.7542801
 103.8263035  70.7800961  66.0029745  78.7823486  97.7756691  87.8362846
  78.3875608  97.1103859  88.4000015  79.1870546  98.3948612  88.4437656
  76.7683506  64.3182659  80.6995583  77.0463657  63.4023333  80.7017517
  76.8092728  64.5831871  81.6184521  43.0323870  61.4755296   9.8018603
  42.5347597  62.2249650  10.1288657  43.6413843  61.8513631   9.1661696
  93.0956268  47.0534849  86.7367268  93.2250118  47.8592968  86.2365723
  92.3827457  47.2588634  87.3415756  61.1545610  52.5251245  81.1483288
  60.2039480  52.5378036  81.0369587  61.3524246  51.6276217  81.4158440
  97.3292160  92.2818565  94.6231842  96.7768669  91.8237591  93.9897060
  97.3125935  91.7254925  95.4019165  75.3081226  95.9926605  90.9010601
  75.2893782  96.8671131  91.2899113  74.4060564  95.8350754  90.6223679
  48.0213148  14.5335340  16.1679129  47.9317457  13.9413928  15.4211955
  48.7998945  14.2214441  16.6290431  75.0959110  90.0719643  84.9207306
  75.2742481  90.9994793  85.0761318  75.3621626  89.9256802  84.0130234
  84.4204235  52.7625799  68.2796001  84.2522430  52.7974081  69.2212677
  85.0801945  52.0763683  68.1793547  43.4744627   9.0755510   8.8500456
  43.0104906   8.3408784   9.2515807  42.7799494   9.6522188   8.5316996
 112.7818173  20.8968771  81.7412376 113.5967130  20.6833018  82.1957397
 113.0573052  21.1412657  80.8577156 104.9110621 102.4166642   9.5053534
 104.7891349 102.7857838   8.6306433 105.0612420 103.1768475  10.0673155
  48.0564005  26.0232877   9.2001585  47.3041041  26.2808942   9.7330050
  47.6863463  25.8379125   8.3370642  60.7619650   4.1890477  22.3150877
  61.3106329   3.4288692  22.1218829  61.3589651   4.8188543  22.7190260
   3.5584224  92.8858672   7.5556902   3.9400161  92.3028503   6.8994002
   3.6448158  93.7610517   7.1777777  89.1972160  74.2619419  89.3200588
  88.9500046  73.5831976  89.9480915  88.3643436  74.6299744  89.0249157
  25.7915241  29.8339795   3.0074648  25.0525219  29.6467637   3.5863070
  25.7931406  30.7873296   2.9218153  95.4967117  76.7585182  65.8182859
  95.4285336  76.2911844  64.9857092  94.9531651  77.5376177  65.7008410
  76.8584824  53.7741184  87.9256630  77.2341633  53.3349609  88.6887169
  77.5981188  53.8938999  87.3299980  77.6137257 101.6725349  59.1906023
  77.3137522 101.7445564  60.0967264  78.4840202 101.2795734  59.2569351
  83.7684155  81.4427185  74.2900085  83.7492847  82.0452690  73.5465050
  84.6606827  81.0962105  74.2945910 107.1655464  48.6791468  94.7093773
 106.7757320  47.8049612  94.7177505 108.0619240  48.5446453  95.0170422
  99.7874832 110.5369854  72.6052856 100.3567410 109.8785686  72.2069407
  99.5421791 110.1614952  73.4509039  29.1097320 106.8193064  10.0552897
  29.6540225 106.1402283   9.6567492  28.2316459 106.6548453   9.7115569
  85.8008480  77.8450918  82.9920769  85.9015465  77.2925520  83.7671852
  86.6072941  78.3596087  82.9582977   6.3161129  32.7663112  80.8003330
   5.7011360  33.0054307  80.1068878   5.9455056  33.1538391  81.5932369
  77.8897476  75.7334328  71.5580368  77.9315758  75.8615208  72.5057077
  77.6500654  74.8129177  71.4511156  80.9106731  55.8913088  74.7662354
  80.1533031  56.1023617  74.2202711  80.8936596  54.9371815  74.8409224
  94.7424603  72.6425791  92.9356289  94.0355587  72.9253864  93.5157490
  94.7599983  71.6898394  93.0262661 107.2661972  71.9506264  72.0170641
 108.0954266  71.6188717  71.6727734 107.2834206  71.7206430  72.9460669
  87.0124054  74.9471807  71.7530823  86.9752693  74.9737215  72.7091932
  87.0635891  74.0151405  71.5411568  79.6604919  61.7313004  74.7944975
  80.0129986  60.9604216  74.3498421  79.4020939  61.4118624  75.6590319
  50.3934271  22.4725913   0.6978850  50.1917631  21.8444251   0.0043635
  51.2549956  22.8183793   0.4647307  91.2158871  64.4161606  68.4658289
  90.3643703  64.2008877  68.0852795  91.4113331  65.2928543  68.1350040
  93.7780351  98.4071074   3.5002188  92.9508513  98.8721238   3.3746771
  93.5189599  97.5265561   3.7717776  30.4236538  48.5587453   1.5041213
  29.8609478  48.3642339   0.7546191  31.0913450  47.8730916   1.4866595
  79.2944002  90.3972721  62.2594690  79.0572977  89.7019768  62.8731346
  79.7256899  91.0581017  62.8012466  71.3570547  84.9482727  80.7264042
  71.2703562  84.7144318  81.6505432  70.7588625  84.3549919  80.2720833
  80.5577469  83.8504219  88.3913231  79.6339655  83.8362026  88.6416435
  80.8733749  82.9689121  88.5901833  11.2342323 107.3187648   2.3562579
  12.0481742 107.6670562   2.7201609  10.8153690 106.8712388   3.0914549
 104.3298435  89.1923141  82.7771854 104.3041134  88.2681561  83.0251694
 103.6791801  89.6099377  83.3415031  61.4834578  42.0604085  14.3330149
  60.6403906  42.4688768  14.5295386  61.8787081  42.6317453  13.6745409
 110.0379944  82.8285122  90.7874870 110.5187225  83.4159088  90.2043056
 109.1199493  82.9482079  90.5444050  61.7675447  75.8121634  94.2116451
  61.6086435  75.2581644  93.4474087  62.6044178  75.5050230  94.5602798
  45.1889403  39.6408033  19.0433554  44.6300490  39.7886037  19.8062758
  45.5810911  40.4954862  18.8645606  96.1931324  71.3646412  83.2536602
  96.5802574  70.9236336  84.0098858  96.1477280  70.6873703  82.5787735
  64.2329407  98.5780811  74.6080923  64.6424246  97.9879761  73.9753723
  63.3090544  98.5933876  74.3582344  30.2441914  28.8537072   4.6342616
  30.2429564  29.6537542   4.1087584  29.3193800  28.6223745   4.7205023
  67.2032309  83.9661407  77.2363043  67.5421190  84.6977234  76.7203808
  67.1197367  83.2485867  76.6083193  72.1651030 106.0384750  87.8747368
  72.2603226 105.2308846  87.3698044  72.1085882 105.7467842  88.7846565
  48.6612398  11.8398141  18.3806567  48.4487803  10.9770393  18.0246882
  49.2933447  12.2052621  17.7616839  72.4717855  67.3458767  76.7861462
  71.9780827  67.5274420  75.9864426  73.3568478  67.6576567  76.5972137
  92.4483967  41.9584274  61.0350943  92.0601463  41.0845900  60.9915638
  92.9614258  42.0329332  60.2304268 106.9115734  77.2312403  67.2301149
 107.7665520  77.6567173  67.1651411 106.7036724  76.9730520  66.3321495
 110.8045072 102.4553357  24.3817286 110.9679955 101.7760287  23.7274794
 109.8832244 102.6860534  24.2623763  72.4406321  12.9638433   5.2147536
  71.6041834  12.5118303   5.1040320  72.2818453  13.8467120   4.8807482
  82.0353127  73.7224007  82.4113464  81.7231655  73.1953096  81.6758347
  82.5115108  74.4453287  82.0028782  51.5312464   9.2758464  10.9768347
  51.4522726   8.3223438  11.0055499  51.2048323   9.5172118  10.1099829
  80.7523727  43.1442547  79.7919655  79.9159670  42.8602314  80.1607227
  80.9004974  44.0098095  80.1728916  96.4733791  68.2303905  62.4655914
  96.2200737  68.3246279  61.5473366  95.8224297  67.6327896  62.8335047
  94.1101456  55.3355169  74.9003696  93.9125061  56.2127638  74.5723200
  94.1829491  54.7961283  74.1129732  64.7489119  95.5450249  86.1587334
  64.4987488  96.0410404  86.9382286  64.0656328  95.7441425  85.5186367
 113.6463070  65.8238459  87.2592354 113.2601547  65.1876736  87.8612328
 114.2633343  65.3134489  86.7348194  95.3043938  89.0059853  86.7902946
  95.3628731  89.0131283  85.8349133  94.3690109  88.9157677  86.9723320
  73.9914751  80.2138042  86.8797493  73.1120110  80.0355434  87.2129059
  74.0301466  81.1672020  86.8038273  25.0444061  18.4239196  16.5582232
  24.6753580  18.4391355  17.4412875  25.4230721  17.5490522  16.4719252
  38.5208971  53.8888025   6.4099173  37.8085358  53.6032342   5.8378844
  38.5107214  53.2642030   7.1351771  68.1090815  65.1639127  12.1019129
  69.0153200  64.8570775  12.0734839  68.0224402  65.7264947  11.3323454
  27.0479519  12.3919296  17.9425673  27.4437315  11.7952871  18.5778670
  27.4259455  13.2467555  18.1490283  60.5538368  80.9441662  82.6320553
  61.1763287  81.6317654  82.3955441  61.0896206  80.2687263  83.0479336
  75.2044201  67.4853516  85.7403374  74.9757099  67.7456617  86.6326141
  74.5009327  67.8430843  85.1987171  95.1042461  85.6082821  92.3847961
  95.1542664  84.6628189  92.5255966  94.2779446  85.7377148  91.9192600
  76.0180712  90.2971840  74.0081453  76.1507177  91.1129951  74.4909430
  75.3186941  90.4979420  73.3862114  90.1849842  85.7542896  72.9790306
  90.4686451  86.2509346  72.2114944  89.4274330  85.2546883  72.6744843
  45.3584368  19.4499540   9.6553950  44.5266897  18.9835500   9.7384123
  45.3364260  20.1049423  10.3530650  90.1188469  90.9195995  83.3841515
  89.3820477  90.6909370  82.8175068  90.8517170  90.4073143  83.0425453
  72.9984808  43.8391495  86.7539024  73.0171013  44.0677118  87.6832294
  72.4356413  44.5028591  86.3552475  89.5270443  39.8751521  88.8809872
  89.1051960  39.3518996  88.1994534  89.5641613  40.7591343  88.5157108
  55.7909203  69.9962330  87.0829105  56.4582825  70.2562952  86.4479065
  55.0097227  70.4844427  86.8228912  80.2268982  46.7894220  78.3087921
  80.6506062  47.4037027  78.9082623  80.4890919  45.9253693  78.6264324
  86.4643002  72.7722645  91.7843533  85.8673477  72.3173857  92.3784637
  85.9440804  73.4917259  91.4266109  82.6187706  64.8494911  77.8981447
  83.5227489  65.1147079  78.0675936  82.6424503  64.4639063  77.0223618
  85.8281517  56.9836140  85.0528717  85.2215290  57.7033138  84.8788929
  85.6029415  56.3180923  84.4028091  94.9006337  89.5992838   4.0538554
  95.2014703  90.4775081   3.8205008  95.3719348  89.3911420   4.8605685
  20.4911769  83.0784689  19.5660166  21.2813152  83.2419501  19.0510516
  19.7883189  83.0316053  18.9179186   1.8066276   2.0023955  80.0352478
   1.5393031   1.2040366  80.4906559   2.5835384   2.2995890  80.5088806
  67.2624063  78.0360413  83.5749435  66.3155794  78.0514431  83.4352589
  67.4378395  78.8085365  84.1122532  93.6205769  52.4255371  73.5843658
  93.6999798  51.7022276  72.9624748  92.9598331  52.1310186  74.2111969
  76.9046831  63.7269831  76.8817711  77.1950102  64.0218163  76.0186291
  77.4110889  64.2557812  77.4983406  82.6570225  69.9961376  87.9957294
  82.0719624  70.7450247  88.1102276  83.1044102  70.1662588  87.1667957
 102.3589420  77.5688314  73.5140944 102.1258736  78.2195663  72.8519344
 102.6672554  78.0849075  74.2589712  60.0557978  23.7166976   7.4751906
  60.4462130  24.2503595   8.1673007  60.2084143  24.2159509   6.6728930
  47.2392065  19.6509647   2.0413069  46.6760714  20.4240321   2.0797114
  47.5499041  19.6256828   1.1362891  76.5787315  44.8890686  86.3454819
  76.1993265  44.6101809  87.1788502  76.1668205  45.7341957  86.1656761
  89.7164917  67.4209976  81.0906029  90.6367779  67.1577597  81.0884857
  89.7397804  68.3725262  81.1920071  80.0897026  56.1937094  77.4477386
  80.6317711  55.9464931  76.6985512  79.2668676  56.4917946  77.0600319
  19.9903185  41.0356378  13.0751757  19.6214707  41.8863344  13.3128695
  19.5588286  40.4149770  13.6624007 114.7859323   7.2571277  44.3635325
 115.2829779   6.4395618  44.3358569 114.2886198   7.2075652  45.1798968
   1.9970269  50.2093554  82.2179699   1.8307633  50.0898743  83.1530190
   2.7748341  50.7661009  82.1822262  88.1880665  92.7507782  68.2055235
  87.5504398  92.6807213  68.9159870  88.9820957  92.3468304  68.5556269
  90.9933662  78.7234831  79.4982529  90.4523468  78.5777664  78.7221718
  91.6489983  79.3615723  79.2168045  93.4607601  83.6098576  84.0670490
  93.3493423  84.3695450  83.4954834  94.2276001  83.1567669  83.7164593
  72.1455843  46.0868501   7.5075392  71.4817507  45.4225301   7.6925616
  72.3597033  45.9605550   6.5831809  94.1724300  58.7133312  83.9536190
  94.0763283  59.5691967  84.3713474  94.4478035  58.1308699  84.6615314
 105.0259590  67.1320772  56.0381222 104.1568470  67.1221828  56.4390850
 104.9533939  66.5340281  55.2942801 107.2522163  84.0132999  80.2829933
 108.0873203  84.2278194  80.6987095 107.0862484  84.7442722  79.6877050
   2.3085827  73.7341738  51.8858767   2.5416989  74.5891094  52.2477818
   1.3689560  73.7950706  51.7137718  89.6717167  51.5910101  87.6394176
  90.0277901  52.4793148  87.6207829  88.7588215  51.7044067  87.9039860
  83.4199142  53.2556581  59.7780991  83.1826305  52.4395180  60.2183771
  83.3328629  53.9269590  60.4548645  85.2914810  71.9793224  74.1064262
  85.9227657  72.1963930  73.4204292  85.6248665  72.4213123  74.8872805
   8.5538239  96.1930370  77.0536184   7.8185219  96.8035698  77.1065617
   9.2774529  96.6520500  77.4801254 100.4633427  44.3885994  60.6562519
 101.0962677  44.8717260  60.1249981 100.8023930  44.4517517  61.5491629
  47.6711447   4.3652152  15.0945811  48.4637339   3.8796949  15.3232817
  47.0094473   3.6889314  14.9495940  56.8077452   5.3226375  10.4057364
  56.4311010   5.7904147  11.1510996  57.5896914   4.8986816  10.7593588
 103.4979057 102.0371914  87.2950935 104.2681122 102.4268723  86.8813801
 103.7664795 101.8788147  88.2000828  70.2571869  60.2432489  77.5341558
  70.4505348  60.2619505  78.4714365  70.9046459  60.8306313  77.1442699
  50.3036959  11.0811757   8.2657771  49.6058733  10.6526374   8.7613730
  49.8882658  11.8568277   7.8889327  95.5181313  42.9528379  74.5259285
  95.4256248  43.5703516  73.8004255  95.2561760  43.4515524  75.2998114
  20.4872543  17.9288911  52.6428847  19.9427349  18.3033847  53.3353381
  21.0844500  18.6360597  52.3989634  47.0952875  17.7624988  19.8330836
  47.5403387  17.0316648  20.2620749  46.4103205  17.3501300  19.3067698
 103.7744522  46.5658379  71.8330908 104.6005917  47.0357037  71.7192698
 103.6280632  46.5644407  72.7790260 106.2183207  77.1620427   4.7857337
 106.2326402  77.7553879   5.5367140 105.3781527  76.7086206   4.8547225
  95.8296680  78.9996862  92.9504395  94.9302006  79.0547800  92.6276970
  95.7994843  79.4096422  93.8148785  84.1020107  49.2000818  81.4321232
  83.7295055  48.9592218  80.5839252  84.9843502  48.8291788  81.4202404
  53.6495859   7.8530120  27.4714999  54.2011244   7.0873737  27.6322035
  54.2651827   8.5454654  27.2311263  68.6748743  98.7653923  88.3058929
  68.0038977  98.0845928  88.2556820  68.8331079  98.8770580  89.2432976
 106.4527482 103.3067714   4.4728045 106.8428582 102.9966794   3.6555628
 105.5939168 103.6424647   4.2159991  90.8467388  43.2527590  90.2621269
  90.2476978  43.0396605  89.5466042  90.2890682  43.2864761  91.0393715
  12.2556574  61.7934560   5.7097106  11.8317825  61.1334466   6.2583022
  11.5905602  62.0308828   5.0635581  25.8857519  45.7270002  18.0290274
  26.2677033  44.8627614  17.8759245  25.0104267  45.6733846  17.6454024
  18.0937160 103.7862454   8.2140975  17.8792060 104.2016946   9.0493350
  18.7741245 103.1489955   8.4313254 114.9582833 100.7909022  29.2196421
 115.3917188 101.2493525  29.9394946 114.8385018 101.4608918  28.5465865
  90.8589745  40.9910393  80.9164429  90.9347630  40.0843382  81.2137413
  91.7458057  41.2294912  80.6464481  94.7266483 108.4630013  81.6635799
  95.0234318 107.9882622  80.8871937  94.3092823 109.2516613  81.3170910
  17.5265820  16.4383506  30.7578997  17.5176222  16.2379836  31.6938548
  17.3730499  17.3821115  30.7135157  25.6258328  31.7596101   6.3153796
  25.5813772  32.7114057   6.2239794  26.5539152  31.5517091   6.2073283
  73.2686853  37.7921963  68.1852341  74.0118694  37.1889520  68.1868601
  72.9699755  37.8066921  69.0945148  96.3549709  63.1310892  80.9687233
  95.9178352  62.3394823  81.2825775  96.9592476  62.8198099  80.2947903
  99.9045563  83.4362602  89.8962593  99.7497463  83.3868599  90.8395672
  99.5336914  82.6246643  89.5498466  95.6403542  92.0497417  72.9974365
  96.5370750  92.3425388  72.8350019  95.2324200  92.7769089  73.4675980
  81.0790920  85.2062035  81.9073963  80.6826496  85.6687355  81.1690712
  81.9925213  85.0819588  81.6496086  77.7849627  61.8275690  81.4322948
  78.4105301  61.5199804  82.0882607  77.3706818  61.0296679  81.1037350
  84.3405914  48.1731272  67.9912567  83.6092663  47.6573181  67.6516533
  84.7876549  48.4982443  67.2098064  74.8541641  87.9720211  69.9671364
  75.1118374  87.5137424  69.1672468  74.7910261  87.2827530  70.6283140
  81.9628716  60.8304739  80.5569553  82.4156189  61.6134977  80.8702087
  82.6539993  60.2926350  80.1705742  70.0973208  11.1684036  11.3776927
  69.6305449  10.3375863  11.4676528  70.6707365  11.2050866  12.1432452
 107.3369884  86.1995792  78.6741304 107.7125740  86.1003685  77.7992964
 107.3472977  87.1433449  78.8335896  93.0482101  76.3842821  70.8436966
  93.8549328  76.0940027  70.4180527  93.0755901  77.3391628  70.7830048
  39.1756023  25.1580466  77.7955914  38.5685504  24.6158255  77.2918940
  40.0325931  24.9822653  77.4071312 102.5543594  98.9050198  80.5394745
 102.2776985  98.9265442  81.4555645 102.0837021  99.6310043  80.1300144
  91.6425705  81.6678143  82.2855186  92.4083710  81.7428493  82.8548717
  91.9331360  82.0225048  81.4452839  17.4828494   1.1830081  67.4079704
  16.6698707   1.3008822  67.8993082  17.9544891   0.5005301  67.8854799
  82.5405312  91.8647861  75.1519489  81.7965126  92.2764874  74.7124386
  82.7734089  91.1270428  74.5882750  44.3552763  14.2964410  25.0974040
  44.4666750  14.2753934  24.1469435  44.1475851  13.3925723  25.3342967
  72.0180304  17.3933744  21.0539393  71.9582541  17.6496553  20.1336245
  72.9541475  17.4252700  21.2511305 112.6146698  96.5026379  73.5032701
 113.2800102  96.6576672  74.1737366 112.7710915  97.1833038  72.8487062
  47.7960361   0.9442557  88.4115505  48.5404266   0.6989039  87.8620911
  47.9716457   1.8513525  88.6616707  25.7354969  64.3915844  80.7760334
  25.8341259  65.3020859  80.4976654  26.6058773  64.1398859  81.0847569
   0.3742546 102.2235298  70.3699923   0.6977982 103.0568886  70.0278425
   0.9516568 101.5653992  69.9830866 100.8028030  96.8057156  78.4065294
 101.3888168  96.5353775  79.1134501  99.9461555  96.8910313  78.8249779
 112.3155212  94.4040489  82.2092724 113.2492256  94.5982456  82.2912025
 112.2732544  93.4492779  82.1558094  79.6501238  27.3445176  18.2923274
  80.4098684  27.7523469  17.8767542  79.9814875  27.0172071  19.1285662
  83.0551529  92.4755764  82.2588921  82.8478432  91.9561291  81.4820766
  83.4704304  91.8552399  82.8580093  79.1013670  92.5624084  80.4493332
  79.2023516  92.9924393  81.2985039  78.1546879  92.5146961  80.3160954
  67.3989534  95.2137947  76.0596848  67.3510695  94.6113014  75.3174353
  67.6561975  94.6630001  76.7990589  10.6782002  85.7141113  51.0047483
  10.0700039  85.8708668  50.2824211  11.0641617  84.8597050  50.8117485
  69.8045731  87.7411556  74.8762941  70.3245831  88.4689903  75.2169895
  70.1831436  87.5582027  74.0163851  89.2706299  95.3398895  86.8928623
  88.5998344  95.0134945  86.2930775  88.7930965  95.9011841  87.5037098
 104.3205470   0.7324923  85.4651451 104.7470159   0.0015200  85.9123898
 103.5989684   0.9791316  86.0437012  83.6318016  89.3329239  25.3453517
  84.3915081  88.7819386  25.1569724  83.6261940  89.4152451  26.2989902
  79.4055748  61.1637497  93.6029148  79.1894674  60.3061914  93.9691544
  79.5902967  60.9903288  92.6798630  74.4199038  89.4162464  89.3556786
  75.1639938  88.8220501  89.4530678  74.6976757  90.2214909  89.7923279
  48.2287295  36.7604112  34.5169501  48.3792860  36.1619901  33.7851958
  48.1674940  37.6249360  34.1106467 108.2338428  55.6525898  70.0881863
 109.1531944  55.8495855  69.9086761 107.7477360  56.1791849  69.4536543
  85.1563358  99.0923119  70.6267548  84.4686413  99.0351772  69.9634027
  85.8099365  98.4500504  70.3500986 106.3387871  89.7746181  36.6968656
 105.9949684  89.0800953  36.1350298 106.9851303  89.3367195  37.2506952
  56.9400466   3.0828513  85.5321217  57.6744521   2.5193919  85.7758522
  56.2395347   2.8382815  86.1368465  87.1704292  80.9573936  76.9999695
  86.6233444  81.5536022  77.5113010  88.0666733  81.2422085  77.1784306
  95.1880264  94.9595928  71.1726522  95.1726341  95.8645916  70.8612394
  95.3522682  94.4385910  70.3866434  67.1605635 105.9845257  92.9292965
  66.4767933 106.2019348  92.2957230  67.4083424 105.0851059  92.7151108
  95.0686836  92.0536709  58.4649897  94.3647194  92.6995945  58.4062481
  95.0387478  91.5900040  57.6281214  90.4914665 103.0122185  65.7877302
  90.6133747 103.3469677  66.6761637  90.5390167 102.0608234  65.8816338
 113.7375546  98.4488010  61.3554716 114.5662975  98.0222988  61.1374712
 113.0753708  97.9371738  60.8907318  71.9696617  93.0549717  89.4720459
  71.5818930  93.0615425  88.5969353  71.2898970  92.6806164  90.0324154
  84.7144222  70.2975893  90.7904434  84.8424911  70.5146694  91.7138672
  83.7928295  70.0463247  90.7290554  31.7029250   1.0099257  65.5483675
  31.3057960   0.1506651  65.6904507  32.5769294   0.8167113  65.2092314
  99.7468185 100.8199120  49.0725803 100.5733204 100.6610107  49.5285130
  99.9194050 100.5621433  48.1670380  37.0022375  42.3371076  11.8719916
  37.4201901  42.8922986  12.5302557  36.0846359  42.2956609  12.1412806
  50.8019876  82.3914051  86.6357613  51.0272837  83.2710075  86.9387150
  50.7385540  82.4747276  85.6842995  67.6412565  46.5017747   7.3208098
  67.9370100  45.7172441   6.8589835  67.3216421  47.0808267   6.6288714
  84.0591908  90.4597950  84.1235924  84.8142338  89.8752213  84.0572166
  84.1933727  90.9319878  84.9453354 102.4327087  49.1096830  66.9857883
 102.2457504  49.9466944  67.4108601 102.7916813  48.5615778  67.6836061
  86.6647625 101.2084675  85.1318836  87.3593712 101.4486790  84.5186615
  85.8601570 101.2648869  84.6164513  97.0095253  89.4006157  64.4374228
  96.4735508  90.1702404  64.2459822  97.3165035  89.5393848  65.3333807
  58.9346678  15.5601358  13.8610701  58.4456713  14.7497606  13.7182192
  59.8191530  15.3637552  13.5522608  89.9945545  42.5072479  65.4904127
  90.6141281  43.1514215  65.8330584  89.3382549  42.4152040  66.1810827
  66.1397249  50.5415296   3.1042151  66.7414362  51.0331678   2.5452189
  66.2443716  50.9330892   3.9713721   8.8148940  16.5007246  83.2616901
   8.3327735  17.0398558  82.6346970   8.2297195  16.4292086  84.0158081
  58.4482367  53.2559156   4.4937281  59.1266234  52.8818177   3.9315085
  58.9139635  53.8846635   5.0450949  84.7807789 103.5243988  90.4004192
  85.2869797 104.0729809  89.8012066  84.1964912 103.0237293  89.8310566
  19.2103160 105.4685651  15.9469084  19.8426784 104.8137341  15.6510310
  18.7095226 105.0255738  16.6318945  86.6064930 101.1334610  69.6772385
  86.1042023 101.9194412  69.8921299  86.2019920 100.4405499  70.1992464
 112.5598526  86.5891933  57.4708748 113.3579445  86.3857841  57.9586267
 111.8577003  86.1865139  57.9818153 107.4513817  96.6048050  73.0500889
 107.6593685  97.5390244  73.0649900 106.6147041  96.5530491  72.5880146
  49.9248297   3.5279941   6.4589076  50.5561716   3.0282354   5.9413390
  50.1238424   4.4431209   6.2609915  45.2288229  11.6424703  24.7475962
  44.6199305  11.4566182  24.0327982  45.9627802  11.0465001  24.5980696
  91.3113689 105.3960991  75.5031586  91.1117840 104.5941639  75.9861708
  91.3423157 106.0782814  76.1739063  93.8865185 100.9003639  88.8999081
  94.0825939 100.1613903  89.4758415  93.5041523 101.5600967  89.4785213
 103.6020184  89.0624237  79.1431379 102.7250576  89.1721916  79.5107269
 104.1602039  89.6207237  79.6844053  29.1162456   3.1172694  85.2270794
  28.5526813   2.9288805  84.4766617  29.9436820   2.6827563  85.0202656
 104.2505741  38.4166050  86.1406517 104.8890686  38.5025644  86.8485832
 104.6797371  37.8513503  85.4983616  25.3418506   4.2872275  60.1395702
  25.1719249   3.4464301  59.7147989  26.1733115   4.1609229  60.5966854
 105.8071423  83.9624882  68.1622076 106.5807343  83.5485744  68.5448980
 105.4680061  84.5257378  68.8578844 103.2097626  76.3550663  58.1473017
 103.3565521  76.4807844  59.0847874 103.6034393  75.5039692  57.9552460
  98.2353783  97.0716476  61.3638401  98.0188465  97.4429131  62.2191191
  99.0040493  97.5644016  61.0764933   2.0555825  77.7107430  74.6295547
   2.4764294  76.9273949  74.9837923   1.3393730  77.3749065  74.0905857
  21.6832889  29.7548617  87.3165417  21.4626849  30.5059470  87.8673935
  22.6354755  29.7948302  87.2271824  66.5365362  99.8070145  72.7155161
  67.3439074 100.1964951  73.0512094  65.9222174  99.8608494  73.4475994
  73.1318378  58.8960314  80.8437443  72.5467873  58.3660984  80.3023434
  73.4463072  58.2931757  81.5174675  18.5867847  47.7022398  83.3606911
  17.7026809  47.7880038  83.0039978  18.5723842  48.2222785  84.1641712
   5.6565422  66.0522556  70.6548977   5.6367726  65.0957441  70.6244278
   6.5687222  66.2788534  70.4737186 107.9201984  78.1911182  71.6221571
 107.5288963  79.0099001  71.3176584 107.2041702  77.5567198  71.5893459
  94.6434402  61.3339424  91.6069031  93.8321590  61.3225555  92.1147728
  95.3129768  61.6134262  92.2312737  74.2509604 104.5629215  68.1441736
  73.7973738 103.7420654  67.9526567  75.1802683 104.3463230  68.0686712
 116.5182942  33.5191763  45.7804823 117.1038073  33.4185160  45.0299644
 115.9636897  34.2654837  45.5531836  11.6766895   5.6407393  79.6101427
  11.9360126   4.7205199  79.6567440  11.5406097   5.8977068  80.5221081
  79.8137522  80.8292103  92.7387333  80.6664371  80.8148384  92.3040581
  79.2037201  80.4963017  92.0805073 105.8862114  93.1996918  71.6480732
 105.0806618  93.6045456  71.9696617 105.9027290  93.4082222  70.7140112
  44.3838675  23.8507604   0.8571963  43.9402086  23.2260227   1.4308695
  43.6848242  24.4220542   0.5390887   9.6201081  80.3978920  76.5639544
  10.4820103  80.4757977  76.1549330   9.4414944  81.2705898  76.9142914
  24.1631377   4.7471369  81.7564487  24.6613849   4.4512118  80.9946060
  24.4948161   4.2161788  82.4805355  26.3969100   1.2490309  81.8378162
  26.8666423   1.4282645  81.0232830  26.9147075   1.6859377  82.5140190
  53.0754835  18.7186336  14.6355299  52.5372965  19.5026445  14.7446970
  53.5829432  18.8851737  13.8411860  13.5552657  37.7228201  79.7835779
  12.8428615  37.2087229  79.4035769  13.2284320  37.9856909  80.6439877
  11.7964501  84.5736885  65.2512169  11.2636895  84.2697430  64.5163584
  12.5719876  84.9576569  64.8421288  47.9072363  43.7447976   6.8827300
  48.6118776  43.5561036   6.2629656  47.5444395  42.8864526   7.1015028
  53.0637819  24.0287589  13.8238005  53.5465414  23.5371446  14.4882445
  52.1434481  23.8425159  14.0096335  64.5116789  31.5207910  17.3492674
  64.9098475  30.6593560  17.2242503  64.2589934  31.7979383  16.4685969
   0.6460137 104.6477699  64.8527479   1.3034577 104.3231964  64.2374039
   0.6647152 104.0209675  65.5759287  18.0075610  12.1782626  78.5711050
  18.4745372  12.8686942  79.0417004  17.4233688  11.7952765  79.2255306
  54.0511859  23.3066596  84.1822338  53.7085880  23.2165850  85.0714684
  54.9628986  23.0223502  84.2468739  98.2751751  70.6715965  70.8199501
  97.3282337  70.5744648  70.7194471  98.3994198  71.5953875  71.0376644
  32.6120055   7.4801100  84.9168396  32.8081668   8.1373919  85.5844784
  32.3816837   7.9893530  84.1397667 106.7648220  90.7513142  71.8773079
 106.3557529  91.6027164  71.7224121 107.2110271  90.8494568  72.7184391
  92.7444077  96.1338902  73.8337231  93.0033493  96.8130398  73.2108784
  92.1206284  95.5915165  73.3510685  92.5081921  98.2452965  71.6115236
  91.5810490  98.0076218  71.6235781  92.6222420  98.7233162  70.7901096
  82.8998089  93.5873127  64.6889496  83.3353519  93.7362289  65.5282116
  82.4129295  94.3949986  64.5251417 100.2905941  93.2595730  82.2888947
  99.9530697  93.8177109  82.9894543  99.5715714  93.2040024  81.6594887
  14.9778045   4.1712798  79.2743921  15.7914890   3.6671484  79.2715597
  14.6768058   4.1351260  80.1823139 105.5269241  95.3060436  59.1152000
 104.9896908  96.0190296  59.4605398 106.1778069  95.7415295  58.5648012
  50.6495077  69.5427942   0.1420741  49.8563654  69.6419381   0.6686930
  51.3594896  69.5057534   0.7830100 108.5203648 103.6271381  59.5107460
 109.1668415 104.0757275  58.9657068 108.1147766 102.9883194  58.9245367
  83.5077953  95.4090691  58.8304090  82.6982307  95.1648712  58.3818483
  84.1220474  94.7072983  58.6149454  25.1187480   0.3946341  69.5308161
  24.6382392  -0.3483640  69.8959064  25.2678169   0.1570834  68.6156178
 105.1502502  46.2329053   8.8145499 104.6752847  46.8242978   9.3984084
 104.4645655  45.7668065   8.3361868  94.3033218  91.7432785  51.3236570
  94.4657707  92.5415325  50.8210325  94.5434189  91.0327339  50.7289219
 103.8845348  25.7355690  72.4307775 104.1595268  24.9631882  71.9367695
 104.0415096  25.5029678  73.3459187  85.4340172  88.8546276  88.3926582
  85.5682850  87.9150963  88.2681847  84.5444870  89.0133762  88.0767918
  15.9976447   5.7596148  32.0425558  15.2599586   5.4562319  31.5134072
  16.2545264   6.5899790  31.6416216   3.1849903 100.5106163  86.7938709
   2.8490204  99.6279526  86.6380882   4.1321224 100.3961086  86.8717003
 107.9623795  80.9594440  95.1785946 108.5876083  81.0730743  94.4627762
 107.3757362  80.2660656  94.8764038  99.2871952  95.0707722  43.9349556
 100.0653744  94.5187569  44.0120506  98.6940002  94.7443485  44.6115685
  12.9869217 107.1975899  69.0859127  12.2262615 106.7628574  69.4714546
  13.7394566 106.7781258  69.5030069   7.1632046  91.6740799  92.5158596
   6.6191048  91.2722111  91.8385983   7.8504414  91.0295391  92.6847076
  97.3978710  65.3482723  77.6330519  97.8859711  64.7221994  78.1678677
  98.0458832  66.0075665  77.3847675  57.9163630  11.1306857   4.3992953
  57.6848776  11.5928458   3.5936598  57.8376944  10.2035569   4.1746192
  47.8007776  47.5820874   4.5694403  48.1909830  46.8380784   4.1107134
  47.4402411  47.2060251   5.3724532  88.9400387 106.6462421  82.5531006
  89.8575211 106.5887451  82.2863579  88.8970947 107.4340820  83.0950451
  46.5895636  51.1533784   3.4474234  46.1514837  51.7944860   2.8877024
  46.5270884  50.3301572   2.9630236  93.5030460 108.9762688  86.5472603
  94.0332222 108.8127518  87.3272705  93.6470699 108.2082367  85.9944344
 114.4668597  42.6248587  84.6368980 115.1330298  42.3904265  85.2830315
 113.7277621  42.0499552  84.8355007  97.9855985 107.2722255  22.8218798
  97.6354188 108.1539880  22.9487471  97.2889108 106.6915189  23.1278853
  16.4460242  29.3480242  92.7457619  17.2025264  29.0421427  93.2461357
  16.6997016  29.2279376  91.8306351  45.7188589  31.0907697   3.3291201
  45.2327044  30.2684736   3.2681326  46.1130888  31.0718202   4.2011599
  54.5655441  89.5676613  85.0917339  55.1397276  89.1591072  84.4439411
  53.9915943  88.8593960  85.3835964  42.2307951  19.2448949   7.4713664
  43.0991537  18.9262533   7.2250800  42.3634512  19.6716069   8.3178668
  20.6192154  88.8644505  79.3228245  21.4479203  89.3398094  79.3820858
  20.2750344  89.0899277  78.4585762 114.7367668 101.5894032  87.1291065
 115.5423260 101.3002682  87.5577164 114.7280884 101.1208534  86.2944603
   1.6703362  96.4600849  47.3915195   1.1134476  95.8524227  47.8781843
   1.9139046  95.9801865  46.5999317  26.9988138  40.5323743   4.0043978
  26.3437445  39.8569059   3.8287596  27.4673779  40.2164792   4.7769789
  74.6999598  93.5435390  85.6148243  75.3757954  94.0176105  85.1303387
  75.0753784  93.4149551  86.4858913  26.0489524   6.8552340  62.5212574
  26.3108409   7.1558989  63.3914518  25.9610141   7.6577414  62.0069790
  61.6194820  87.2179604  79.0016747  62.4400568  86.8638706  78.6588860
  60.9426785  86.6433811  78.6438608  17.9566825   7.9051436  94.4470882
  17.5023998   7.1625746  94.8451519  18.6848415   7.5109709  93.9668274
  76.5183032   3.2043684  69.9158144  76.3184989   4.0993727  70.1901865
  77.4742568   3.1732119  69.8780155  60.5431540  17.1688079  18.8182978
  59.6045477  17.2789239  18.9703230  60.7007868  17.5941514  17.9754023
   1.7327542  55.7532883  64.7895527   1.6060871  56.1554098  65.6489038
   0.8490700  55.5306196  64.4967127  59.7588427  43.0252599  17.8357081
  59.7819883  43.0550908  16.8792490  60.1961405  42.2039556  18.0603747
  87.9811478  89.2398262  74.7394276  87.5318432  88.5233402  74.2910767
  88.7574482  89.4073677  74.2050838  86.6517448 108.0691147  90.2960205
  86.9020176 107.1511841  90.1910973  87.2517681 108.5478401  89.7241592
 100.1382732  65.2905846  85.8188534  99.6884441  64.4936705  86.0996056
  99.4354153  65.8747625  85.5343246  18.6079390  37.1790647   1.1072020
  18.0823977  37.1196794   0.3093867  18.4420569  36.3550615   1.5651755
  78.4371662  88.8394260  77.8511047  78.4033966  87.8895092  77.7382278
  79.1039610  88.9771271  78.5238981  80.2143747  17.9671001  13.7212328
  79.9204142  17.8706168  12.8154139  81.0338957  18.4573888  13.6561446
  87.7130890 105.5656433  84.6685886  88.0046844 105.8891296  83.8161945
  86.7677593 105.4515266  84.5708561  98.8735104  46.2211704  94.0186119
  98.6082935  47.1340227  94.1308403  99.6343327  46.2623024  93.4392262
 105.7743835  80.6636715  62.7101088 105.4023266  81.1855698  63.4210396
 105.6235027  81.1880875  61.9236898  14.7195191  79.7374535  92.2724247
  15.1582951  79.1908264  91.6205788  15.2801651  80.5089283  92.3545742
  58.3452685  42.6023530  20.2405600  57.9540236  41.7339277  20.1457171
  58.8310702  42.7363633  19.4267611  83.9234638 103.9820576  67.7419901
  83.4220314 103.2406044  68.0811691  83.8120079 103.9323330  66.7926025
  12.8200096  95.8897686  80.0509262  13.7369484  95.8443832  80.3218460
  12.3406262  96.0756207  80.8583260  34.4112552  19.4949378  73.0994654
  33.5445941  19.5058096  73.5056782  34.2720187  19.8658217  72.2280931
  85.0887012  81.5320015  78.6397123  84.2336559  81.7216492  79.0259457
  85.4316521  80.8065510  79.1615725  76.6292555  50.0866365  13.7898592
  76.8539889  50.1962804  14.7138171  76.1105997  49.2825746  13.7632899
  44.2167837  21.6996908  14.8433547  45.0705797  21.9903755  14.5227961
  44.4027407  21.3036918  15.6947283  30.7989467  15.2379836  82.1430492
  30.3759349  15.0485552  81.3055515  30.9567226  14.3775881  82.5317097
   2.5621266  77.9667139  84.3871021   3.4311909  77.5657320  84.3999004
   2.0873875  77.5321579  85.0956440  51.8145752 110.0266933  92.1716118
  52.3820353 110.5422783  91.5985489  52.1828079 109.1436577  92.1418285
  18.5008968  98.3777772  11.5775256  19.3241084  98.1921302  12.0292811
  18.3002341  99.2847739  11.8084292   1.6718114  85.4550587  14.8849635
   1.9968713  84.8685084  14.2019324   2.3631633  85.4581533  15.5469756
  92.1358395  96.5303612  76.7447138  92.6388741  96.3782215  75.9446907
  91.9176960  95.6536007  77.0608473  58.9778692  45.3364419  18.7396960
  59.3620760  45.6536912  19.5569949  59.3956549  44.4879579  18.5921530
 103.6380196  97.3413086  92.3573589 103.3937836  98.1220722  92.8543377
 103.8375854  96.6851044  93.0250454  67.7023029 107.2162342  67.9605150
  67.9442406 107.6588249  68.7740374  68.4656763 107.3238373  67.3931408
 113.8933372  87.7062321  69.8396015 113.4892464  86.8614674  70.0378942
 114.7666931  87.4840927  69.5168924  94.2011166 102.5471592  56.4928436
  95.0789833 102.5311565  56.1116219  93.6139107 102.6089096  55.7394457
  89.0004635  92.0917797  81.0461521  88.6752033  92.9339790  80.7281494
  89.6760368  91.8423748  80.4155636 102.5920391  97.6664066  71.0185051
 102.0743275  97.3477173  70.2791548 102.1691799  97.2862911  71.7885303
 102.4550152  95.1734161  27.1719146 101.9866848  95.3040981  27.9964280
 101.7656612  95.0105381  26.5281105  95.1628017  83.9166069  56.6809702
  95.8830357  84.4346809  56.3216686  94.3723965  84.3452644  56.3527155
  22.9351009  29.7479571  90.1102448  22.5757468  30.3445185  89.4535828
  23.0849422  28.9307250  89.6349430  38.2121212  32.2173356   9.7896342
  38.7788613  31.4510202   9.8779826  38.0131991  32.2615670   8.8543753
 102.5026512  79.4248152  68.3208847 102.8942108  80.2290344  67.9800940
 103.2443523  78.8340759  68.4517622  49.4351620  69.6152115  93.3383751
  49.8168225  70.4925776  93.3103371  48.4924549  69.7662020  93.4073925
  89.4379807 100.0761890  87.7266788  89.6379757 100.8144855  87.1512222
  90.1401615  99.4469261  87.5617790 102.1030712 106.1733532  70.8786631
 101.7558002 105.9123516  70.0257206 103.0084610 106.4281082  70.7008696
   6.7056603 108.7315845  57.9501009   5.7934326 109.0207767  57.9288006
   6.8501419 108.4613705  58.8569355 107.0444775  58.2858944  28.4316325
 106.9134426  59.1379547  28.0156374 106.2265968  58.1199121  28.9004111
  26.6541416  32.7046155  15.8666090  27.4968226  32.6863241  16.3202433
  26.5281088  31.8069410  15.5591445  96.1141682  99.6013260  83.8466454
  96.6326046  98.9450550  83.3810616  95.7666016  99.1362095  84.6076393
  82.2212410  80.8741570  87.3844433  82.4861336  81.7283154  87.0431614
  82.1983147  80.9922791  88.3340549  75.3350973 100.3507996  94.8063564
  75.2965403  99.9712276  95.6842327  75.5737925 101.2663269  94.9515343
  93.7301064  93.9693069  92.6158619  93.1131554  94.1586208  91.9089222
  93.3269501  94.3528461  93.3946991   1.6677708  78.6928272  81.8002987
   0.8127541  79.0900517  81.9657707   2.0456547  78.5664845  82.6706314
  94.6566486  76.9691801  78.2734537  95.0656033  76.1834908  78.6363363
  94.3171215  77.4367142  79.0365839  13.3932061  66.9447041  68.0648518
  12.6016850  66.7108774  67.5800323  13.1210274  67.6634216  68.6354589
 116.7841434  72.3404980  70.8988094 116.7028618  72.0654011  71.8120193
 117.1828842  73.2094622  70.9450197  85.3393269  87.2426701  68.4929848
  84.6881962  86.5763760  68.2731867  86.1800098  86.8315983  68.2917118
  74.9549866  73.5632706  81.4840698  75.3443193  72.6901150  81.5315914
  75.6974840  74.1614819  81.5681839  31.3199485   2.9736079  63.6403656
  32.2286571   3.2583273  63.7374640  31.1294521   2.5002135  64.4502020
   4.6631951  60.4603148  53.7183380   4.7176022  59.8494053  54.4532251
   3.9814705  61.0818863  53.9735460  28.4426940   5.4737986  86.5950871
  27.6437629   5.0540865  86.9141293  28.8546336   4.8128832  86.0385609
  84.0057755 110.6030369  92.5145912  83.7404442 109.8459435  93.0367374
  84.1422939 110.2512932  91.6348839 112.0752604  88.6675405  16.2680392
 111.2486059  88.2271241  16.4652590 111.9110758  89.5880269  16.4729075
  93.5086536  72.0106268  72.9021597  93.6446953  72.1981955  71.9734287
  94.3316936  72.2631741  73.3205748  82.7231312  92.2837162  58.2369661
  82.1036148  91.8746567  58.8412046  83.4249973  92.6116657  58.7991667
  99.2650986 100.1055241  86.5149498  98.5830593 100.3064919  85.8741188
  99.8223686  99.4617081  86.0777092  18.1803364  80.2834034  72.0652485
  17.6535172  80.1305389  72.8496742  17.5480217  80.5610085  71.4024210
  84.7216511  82.4869537  71.9124985  84.4141388  81.9337845  71.1943960
  85.6214714  82.1997643  72.0676470  88.3673161  39.1925658  94.3615627
  89.1576499  39.4823302  93.9058781  88.1251449  39.9341429  94.9162197
  85.5812073  64.5120049  71.0526323  85.1103592  63.7174845  70.8010817
  85.1849842  65.2032948  70.5221987 104.1194725  74.1971684  84.7045517
 103.3072662  74.3613434  85.1837063 103.9522171  74.5379066  83.8258266
  19.8895056  44.1987085  36.2803225  20.7220013  44.2602586  36.7487196
  20.0059874  44.7557115  35.5106406 110.2032280  84.8778820  61.7524147
 110.1336193  85.7213497  62.1995735 110.8079052  84.3694496  62.2928667
  46.5589965   9.9083365  58.2891083  46.5910686  10.4250277  57.4839830
  45.6251586   9.7723044  58.4493589 104.7993183 109.5225811  67.4967957
 104.6090508 108.6733246  67.0982981 105.6418991 109.3987274  67.9337645
 108.7557477 104.3783532   5.5442290 108.0315799 103.8309632   5.2406268
 108.3759135 105.2529059   5.6285624  49.6141512  28.5136365  35.7636122
  50.2856619  28.3694982  36.4303450  50.0639135  28.3579683  34.9331145
  22.4973834  14.1325606  59.3748951  21.9069541  14.8770274  59.4906712
  21.9596351  13.4641684  58.9502621   2.7292961 104.0445709  91.0790443
   1.9258255 104.3456554  90.6547451   3.2601876 103.6928272  90.3644371
 101.3874340  95.1954746  94.3148804 100.9459782  94.7675133  95.0485039
 101.2473392  94.6057415  93.5740566 111.1905575 103.1890202  76.9071436
 111.6384697 102.8853512  76.1175871 110.9139633 102.3863888  77.3493052
  11.2634129  97.9343796  81.3447857  11.4559311  98.2521057  82.2269535
  10.3645939  97.6095581  81.3980389  93.2156086  84.9780083  77.6371670
  92.8740406  85.0783920  76.7486334  93.6634350  85.8047676  77.8164387
 112.9020006  74.7292280   7.4940638 113.4238798  74.1280698   8.0255465
 112.0693380  74.2747354   7.3662428  34.0287555  15.6773795  74.1872883
  33.4453738  16.4267386  74.3071699  33.4533466  14.9145068  74.2434263
  34.3093742  19.8521937  44.6170664  34.7726691  20.6316889  44.9236250
  34.0055812  20.0838126  43.7393999  35.7124961   8.7194098  69.0917683
  34.9014343   9.0331400  68.6917734  35.4325355   8.3063639  69.9086237
  13.1293339 104.5323277  73.1966639  12.8704876 105.2663803  72.6395226
  14.0842957 104.5100689  73.1351519  38.1145043  87.1284199  38.4626651
  38.7683720  86.4688015  38.2311678  37.3165936  86.8407154  38.0190611
  35.7540000  26.6006125  80.5161762  35.9086955  26.9088973  81.4090729
  35.4597915  25.6959952  80.6227207  53.5001261  38.2945680  21.3693575
  53.2748682  37.5714254  20.7840685  53.0994303  39.0639352  20.9647040
 115.9564686  98.0343819  83.7799931 115.3371334  98.4857845  84.3534946
 115.5924797  98.1433010  82.9014301  99.0909863 109.7218895  52.6857567
  99.7309494 109.2586708  52.1452808  98.3567905 109.1125870  52.7628136
 116.0710782   8.0474890  88.8521671 115.2500266   7.9345644  88.3732510
 115.8932418   8.7582053  89.4681835  23.4968627   1.5081919  94.6728611
  22.6490749   1.3075293  95.0693798  23.9785732   0.6817091  94.7063637
  10.6535209   0.1037062  72.7867603  10.7517589   0.9316195  73.2570076
  10.8461631  -0.5677663  73.4411669  21.5223277  11.5856780  79.9845123
  21.6423572  10.6384505  79.9167585  20.7420886  11.6898859  80.5291176
  20.9917606  13.3968199  90.1842690  20.7037223  14.0862311  90.7825851
  21.9395889  13.5147894  90.1214600  36.9344199   9.7022284  94.7287750
  37.8058875   9.3717898  94.9469280  37.0268214  10.0556220  93.8440132
 107.1588707  91.4026070  60.9239721 107.5111198  90.6209946  60.4982615
 106.2090111  91.2977409  60.8691120  27.9071868  14.9912394  82.9348087
  27.6137126  14.1823710  82.5154781  28.4767307  15.4044474  82.2858906
 111.5668011 100.5147839  72.0939827 112.0861340 100.5154610  71.2899160
 112.1094418 100.0475693  72.7291918  20.4505695   8.2933749  91.0707855
  20.0751937   8.8201560  90.3652191  20.8756984   8.9303053  91.6450787
 104.3787766  97.4911880  60.7024336 104.2103291  97.9636383  61.5176916
 103.5189438  97.1719646  60.4285479   0.2300495  89.4805241  67.7236652
  -0.3872162  90.1633263  67.4610186   0.9131665  89.5045662  67.0535898
  61.3503344  85.2064180   9.2124133  61.4689238  85.2839898  10.1590590
  60.8583624  85.9901761   8.9676337  43.2515014  11.3066615  63.4545755
  43.7095607  11.4379443  64.2847443  42.4323047  10.8758105  63.6985588
 115.2759522   1.7159213  80.8969307 115.9044904   1.0035552  80.7798767
 114.5396584   1.3125361  81.3567162  10.6296504  22.4144972  64.5954657
  10.3859580  22.7284945  65.4662466  10.2672065  21.5297545  64.5497847
 116.1927795 108.8469124  48.8778830 116.7142963 109.6448517  48.9648438
 115.5418396 109.0579796  48.2085848  18.6024535  23.9435996  76.8196535
  18.2601703  23.1846751  77.2919941  19.4625533  24.1003359  77.2093821
  67.0325530   9.8796118  85.0227833  66.7696727  10.2529181  85.8640766
  67.9858363   9.9651087  85.0102043  71.1006624  75.1328706  16.5093474
  70.6868727  75.6738900  17.1818881  71.9819433  75.4953908  16.4190535
  76.4488173 101.5969181  61.7222309  76.8237925 101.9222546  62.5406361
  75.8727264 102.3015881  61.4259291 110.3295040  75.7789421  63.6787128
 109.6349621  75.2868795  64.1165686 111.1403942  75.3731775  63.9853764
  -0.1457536   6.3484610  73.0459690  -0.2534329   5.5972041  73.6292791
   0.5934633   6.8329848  73.4134293  37.4436802 109.6819019  65.9410381
  37.9196305 110.4918575  66.1245537  38.0977387 109.1033363  65.5489922
  57.2004206  19.4505214  25.1539664  57.3008616  18.5890245  24.7490363
  57.9520685  19.9524259  24.8387579  27.0294125  83.4282731   2.1957736
  26.3313944  83.5614538   2.8370718  27.6705916  82.8814172   2.6497321
  14.2907203  38.7852896  67.4766684  14.3118156  39.7228659  67.6683140
  13.9339698  38.7299956  66.5901566  97.0731640 102.6849174  86.2187195
  97.5956154 102.9525280  86.9748020  96.5775681 101.9260597  86.5265465
 109.6746826 105.2247143  76.0468960 108.8929558 105.0011826  76.5520430
 110.3383064 104.6024895  76.3446760 105.8741570  65.9363604  91.1904907
 105.2969933  65.2411985  91.5065002 105.3381062  66.4285517  90.5686951
  46.5065462  17.3212671   3.2070784  46.8443091  18.1512975   2.8706316
  46.7706663  17.3104810   4.1270499   2.7943499  55.1414060   2.7149252
   2.3803885  54.2830800   2.8051714   2.6120121  55.4015111   1.8119673
   3.2811589 107.6152515  85.0083256   4.1592831 107.8959560  84.7507668
   2.9649491 108.3136272  85.5814934  27.7949584  11.0036219  53.0861902
  27.1177161  11.3420523  52.5004864  28.4308112  11.7158926  53.1539583
   4.7968811  75.2897692  69.1950512   4.0096897  74.9536848  68.7665462
   5.2107281  75.8450651  68.5342884  52.4423105  70.3540468   9.2306475
  51.9453509  70.4030370   8.4140257  52.3194487  71.2116670   9.6376090
  11.5474570   1.2846602  47.6686525  11.4546455   0.3338660  47.7287388
  10.7276786   1.6282500  48.0238152  38.9607681  20.0919283  76.5717316
  38.2993663  19.4542731  76.8403864  39.7922481  19.6258486  76.6591358
  23.5364593  19.7310389  77.4711895  23.2092441  20.1876486  78.2462168
  24.4608558  19.9746073  77.4221659  40.7461513   8.2154311  87.7950382
  41.0186733   9.0963973  88.0516815  41.5338577   7.6814688  87.8981495
 100.1910973  82.6527977  65.6284571 100.2010727  83.5734940  65.3668165
 100.2016163  82.1689892  64.8025942  11.9918407   8.2347144  71.1112022
  12.4213660   7.8005351  70.3741598  11.6728080   7.5174178  71.6588736
  91.5162563  67.2894239  84.5016956  91.8831253  66.9762754  83.6749172
  92.2069073  67.8342009  84.8791218  40.9793342  19.5598067  79.7601891
  41.1616100  18.8750208  80.4036808  41.7970718  20.0533713  79.6975136
  30.0466026   3.6675204  69.7154999  30.0682224   4.0200366  68.8258410
  30.3272784   4.3964232  70.2688265  28.2078040  17.4065531  58.1243372
  27.8023685  17.0654524  57.3271513  28.4131492  18.3182658  57.9173899
 113.5329628  99.5127964  63.9508152 114.4489765  99.2678928  64.0818596
 113.2912540  99.1009712  63.1212330  50.4282535   9.2408312  73.4351778
  49.7316898   8.8355769  72.9186487  51.1950076   9.2183627  72.8626347
  97.7016544  97.9920959  63.9675331  96.8351269  97.6131725  64.1151333
  97.5354481  98.9252949  63.8342905  99.1048241  93.1626987  62.7325821
  98.3239174  93.6159897  62.4148464  98.9408207  92.2395039  62.5401449
  93.2531470  12.5404967  54.6423674  92.8802079  13.2614554  54.1350460
  93.4103507  11.8503798  53.9979696 100.7498741  96.4081860  41.8838215
 100.8568382  95.4599667  41.8085957 100.0152493  96.5192318  42.4873257
  57.9141600  56.5917730  30.2510123  58.5178835  56.6583394  29.5111994
  57.3390848  55.8604669  30.0258212  13.2694668 104.3243980  64.0211868
  13.6812062 105.0499249  64.4905758  13.6453766 103.5384941  64.4177675
 103.6463756   0.6909979  92.1957207 104.3076629   1.2395895  92.6175880
 103.7394685   0.8790625  91.2618065   1.5170998  97.7599716  50.0329161
   2.3289437  97.4758244  50.4529095   1.6819138  97.6530170  49.0960979
  20.7434619   2.5267256  89.7148991  20.0344337   2.7308882  90.3246689
  20.3582252   1.9024504  89.0999985  35.9283126   4.6817053  57.6818275
  35.2851546   3.9727820  57.6791763  35.6070960   5.2989806  57.0245457
  25.2849258  14.0636195  69.3323946  24.8432983  14.8168314  68.9401340
  25.4095138  14.3096484  70.2490091  38.6499656  16.7046870  76.3589096
  38.0124725  17.1212805  76.9388199  39.4885791  17.0950354  76.6050434
  76.5971279 102.4725437  35.9355569  76.6323376 102.2098541  36.8553352
  77.5068665 102.4338055  35.6404138 114.2291451 101.4586067  58.0328274
 114.5319939 101.6168213  58.9269638 113.4103107 100.9744930  58.1394243
  80.2982044 106.7678738  76.8154573  79.6436548 106.0694790  76.8221998
  80.9619904 106.4680290  76.1944008  65.8602698  55.9186315   3.8574557
  65.2386076  56.3760900   4.4235758  66.3467295  55.3453874   4.4498782
  88.0889130  90.5373001  71.4137459  88.1060982  91.2292290  70.7525539
  87.6758957  89.7948647  70.9728003  10.9101833  42.3531950  66.8496323
  10.0198234  42.1803416  67.1555948  11.4557803  42.2490538  67.6291943
  86.2259276  84.0233468  22.1295218  85.3468306  84.2564344  22.4279837
  86.2287886  83.0662298  22.1172671  53.5669405  66.4464807  12.5580744
  54.4881041  66.4059209  12.8150515  53.1666548  67.0390558  13.1943659
  16.7896045  12.8960455  70.9358263  17.4088634  13.6207713  70.8491516
  16.5993846  12.8543128  71.8730116  29.5158428  99.8034859  77.3369646
  29.9263996  98.9880371  77.0493507  29.8549790  99.9435616  78.2210445
   6.3480247  19.5187701  52.0905924   6.6039718  20.3363646  52.5175142
   6.8713630  19.4928015  51.2895536  99.5815754 109.4432926  89.6676826
 100.2988815 110.0743866  89.7262573  99.9774742 108.6667538  89.2720985
 106.5347767  60.5180502  87.3832607 106.4499855  60.1745510  88.2726669
 106.1868382  61.4082050  87.4361038  69.8845465  27.1280431   4.5320181
  69.5433123  26.7911672   5.3604559  70.4765684  26.4433336   4.2207007
   1.8007035  97.9227734  19.9252081   1.0230870  98.2069111  19.4447792
   1.4627976  97.6101780  20.7644558  24.0838510  90.1546060  75.7943392
  23.3177930  90.1440488  75.2205229  24.8210174  89.9673115  75.2131891
  43.9643955  22.9287219  91.2119961  43.9910650  23.4480715  90.4083824
  44.2543221  23.5316658  91.8965626  97.6671933  84.2777907  94.6135712
  96.8003082  84.1101371  94.9832153  98.0453598  84.9471485  95.1838207
  73.5729980  23.8380075  42.8559875  72.6284695  23.8984561  42.9989719
  73.9233541  23.5368681  43.6943150   6.8419999  28.2414269  52.5613213
   6.4180368  29.0455103  52.8612137   7.1724188  27.8322434  53.3610868
  59.2403931  60.1872282   5.2046542  58.6164802  60.8949976   5.0433211
  58.7337679  59.3861990   5.0708060  68.2986355   1.4928606  85.7090473
  67.5050163   1.9770242  85.9370518  68.3449650   1.5448564  84.7543907
  22.4975711 105.3427707  89.0451241  22.7122003 105.1771372  89.9631310
  22.1574050 104.5075803  88.7242317   0.4170235  17.1011496  60.5999708
  -0.3397437  16.6937101  60.1786327   0.0775690  17.4360406  61.4299440
  27.2370625  19.7821820  89.4870472  26.3542175  19.4243491  89.5807171
  27.5017405  20.0035667  90.3798962  48.3821106  13.9320946  76.1252975
  47.5417614  13.6435497  76.4813757  49.0234375  13.3358276  76.5118122
  51.1701965   4.8285440  69.7777319  50.8760071   5.7350880  69.6890545
  50.4474640   4.3844989  70.2212572  17.4851924  95.3182446  77.5658798
  16.9492751  95.3539382  76.7735720  18.3858996  95.3858685  77.2490454
 102.3640167  71.1510192  93.1064987 102.1639406  72.0748912  93.2570362
 101.5091025  70.7369100  92.9887486  49.0369701  13.0404830  65.4646254
  49.0644026  13.9972806  65.4687071  48.1267118  12.8261006  65.6688547
  13.0191594 106.9523983  92.1551323  13.6120301 107.6843863  91.9850349
  13.2202703 106.6846814  93.0518532  22.2289067  94.1850614  94.6917152
  22.6204711  93.3119904  94.7173023  22.7045804  94.6805333  95.3584003
  24.7573167  96.8341993  88.2225037  25.3103334  96.6430413  87.4649620
  25.2692157  96.5356087  88.9741898  36.1003429 107.9439132  87.7770138
  36.5254766 107.5436415  87.0185471  35.3874332 107.3439862  87.9962826
  17.5035441   7.5883567  76.3276100  18.1235266   8.2374108  76.6601515
  17.9820991   7.1328950  75.6349564  27.3763782  62.2540437  84.3796062
  27.8862077  62.2488653  85.1897144  27.4245483  63.1592189  84.0720749
  31.6127276  16.1459482  27.4198151  31.6254973  15.7782257  28.3034730
  31.3397074  15.4180300  26.8614030 113.7321817  84.6115695  69.6685028
 113.3832490  84.6602141  68.7784958 114.6802866  84.5519768  69.5511341
  41.0567713   7.6946062  78.1602001  40.2347279   7.3433852  78.5024309
  41.4113569   6.9895929  77.6184845   6.0126144  83.1655203  68.0959415
   6.3754827  83.4791576  68.9243078   5.2969009  83.7712418  67.9033566
  50.2411461   6.5327048  72.2819567  51.0242462   6.2125129  72.7296829
  49.5252419   6.0171872  72.6533890  26.5438771  18.1617200  52.3671532
  26.1922216  18.5398424  51.5611792  26.4324355  17.2174084  52.2572041
  16.5030080 104.5961707  94.1721821  17.1455365 104.0981101  94.6774864
  17.0190888 105.0384652  93.4981918   8.3370954 109.6846932  50.5326700
   8.8754397 110.3519665  50.9583044   8.2096845 110.0119064  49.6422052
   5.1559144  94.5578574  65.9838009   5.5611974  94.1171633  66.7306376
   4.9613553  93.8527774  65.3663540  39.3577290   7.5975502  52.4602699
  40.2054930   7.3761225  52.0749140  39.2126679   6.9229728  53.1236982
  14.8789865 104.6198743  34.5033741  14.1917735 105.0679027  34.9965668
  14.8774510 105.0481450  33.6473274  31.2051415  20.4583216  61.8233871
  31.0195041  19.6074128  62.2205305  31.0305166  20.3306532  60.8909464
  78.4098768  31.6525483  77.4660015  78.0359793  31.9068122  76.6223288
  78.1035280  32.3237658  78.0757999  40.7298756  11.4695048  81.9256973
  40.6176662  10.8013451  82.6018715  40.9452486  10.9757459  81.1344719
  48.9924860  17.9702473  91.9863129  49.7997999  17.4644506  92.0792770
  48.4042120  17.6061320  92.6478195  25.5317807  29.9238634  68.6123228
  24.9505973  29.2134237  68.3407784  26.4127612  29.5921469  68.4389210
  33.8853103  82.4870049  68.6698866  33.3141547  81.9041049  68.1696510
  33.9790231  83.2628452  68.1171513  45.3105450   4.9074388  49.7102022
  46.0967398   4.4039249  49.4990110  45.3844452   5.0848365  50.6479120
  11.5332776  92.1339332  85.7196236  12.0302611  92.6878857  86.3216019
  11.9705468  91.2834274  85.7604313  58.1493139  13.3790994  34.7004986
  58.1790686  13.7022483  35.6010103  57.8447580  14.1275609  34.1873860
  91.6224003  36.4667678  13.9893925  91.8751431  35.9684920  14.7666144
  91.8153095  35.8818293  13.2566822  19.2597848  84.4918000  77.8747940
  19.7861367  83.8078653  78.2888269  19.2572528  85.2088892  78.5088396
  21.4282513   6.4622086  62.1152830  22.0713091   6.5167183  61.4083624
  20.7889223   5.8192939  61.8084431  37.1519494  19.9680400  25.2043629
  37.4103618  19.8539960  26.1189389  36.2677169  20.3318810  25.2488947
  41.6959554  93.0350613  66.2595892  41.9486791  92.7878474  67.1491098
  41.0784036  92.3558103  65.9885311  45.1888657   7.6680267  76.4579773
  45.4397678   7.6623720  75.5342627  45.5534506   8.4842306  76.8002033
 108.1261950  36.2167597  62.9014730 107.7955859  35.6795382  62.1815252
 108.8890117  36.6644645  62.5355434  24.2223668  17.5068188  56.1235380
  24.1503310  16.7718995  56.7325878  25.0829339  17.3988235  55.7185793
  73.2855988  12.1408415  80.6861877  72.3678303  12.3978043  80.7751179
  73.2659721  11.3789916  80.1070213  41.8498421  18.2882452  71.8027020
  41.3817024  18.9685369  71.3186789  42.7752924  18.4924245  71.6682529
  31.2447005 103.4147977  45.8669901  31.8230086 102.7233230  46.1889362
  30.8124477 103.7504773  46.6522980  96.3008183  48.4942065   1.9316630
  96.4405650  47.5508885   2.0144419  96.8173427  48.7466000   1.1663298
   8.0734616 103.9302736  79.7888660   9.0076142 104.0602010  79.9523067
   8.0413753 103.3869045  79.0014935  39.1065931  12.3775232  53.4716272
  39.9379516  12.7531338  53.1818151  38.8153672  11.8422127  52.7334785
  94.1835582 105.4811095  93.1069469  94.8686682 104.8296945  92.9568958
  94.6506047 106.2477165  93.4392357  33.5005075 106.4471172  77.2016144
  33.6934692 106.1886935  78.1028461  34.1734582 106.0117759  76.6783142
  78.7914461  41.5266548   2.4529604  78.6620659  40.8809028   3.1475787
  78.5330814  42.3590718   2.8486399  52.7869940  14.9541128  92.3297882
  52.1767950  14.7141206  93.0271339  52.2476721  14.9845219  91.5395737
  22.9060298 100.3213393  74.9594164  23.2671481 101.0073357  74.3979645
  23.5990125 100.1425885  75.5950689 104.7900903  95.5700671  49.4197035
 105.5786382  95.1310860  49.1007662 105.1160895  96.2472521  50.0124693
  23.0242902 102.2619348  82.2717857  23.3717280 102.4009626  83.1527996
  22.1296722 101.9522881  82.4132252   0.5131370 101.6540830  47.1238756
   1.1298734 100.9231304  47.1636152   0.8130270 102.2577082  47.8035355
  68.8770008  32.2110438  54.9309635  68.3938742  32.2479224  55.7564688
  69.7938538  32.1291924  55.1934910  30.7244330  98.8757586  80.0076008
  31.4969474  98.5945438  80.4978752  30.2103835  98.0766748  79.8916197
  77.3952168  71.9928728   0.6840186  78.1605452  71.4366053   0.8291773
  76.7222065  71.6292058   1.2593703  53.6004156 105.0190125   2.5824217
  53.5663647 104.3327771   3.2488684  54.3864650 104.8200618   2.0737223
   9.7002065  13.3413506  76.4760876   9.9637341  12.9702365  77.3181438
   9.8185021  12.6257777  75.8514309   4.7274381  76.4107763  73.7705278
   4.5365506  75.8002507  73.0584526   5.2232629  77.1161520  73.3547926
  19.0579176  13.8603842  60.7474947  18.7355125  13.3438802  60.0089073
  19.0304458  14.7654080  60.4369926  79.1757220  66.3286362   1.7772440
  78.5400075  65.9570072   2.3887972  79.2307872  65.6866012   1.0694365
   2.1512872  84.9787938  78.3526802   1.3278514  85.3123127  78.7089777
   2.3598653  84.2216908  78.8999653  47.5400209   7.1391511  60.6378698
  48.0144215   7.6614374  61.2847042  46.9496298   6.5932834  61.1571980
  25.1725465  78.5086142  89.5499325  24.2685205  78.6737358  89.8177052
  25.1509648  78.5522925  88.5939693   6.1717349  55.7108461  69.6848011
   5.3251010  55.3033887  69.5019770   6.0943729  56.0309850  70.5835581
   7.4369889  92.3243069  74.5567560   7.8848106  91.9741832  73.7866259
   7.5720531  93.2703959  74.5028687  11.5138036  66.6040241  90.3755665
  10.7909995  67.0551359  90.8117771  11.7996818  67.2126209  89.6942997
  28.3781272  76.3275610  87.5593281  28.6447650  75.8097135  88.3189106
  27.4243527  76.2492739  87.5389385  10.7607823 110.1214416  60.5879450
  11.2847835 109.9551005  61.3715172   9.9408322 110.4860355  60.9210873
  27.7141690   9.4125438  86.5866375  28.0036116   8.6043924  86.1631489
  28.5076094   9.9432606  86.6575241  14.4897294  19.9225867  56.6926193
  14.0707695  20.0166941  55.8371353  13.7734103  19.6988416  57.2868061
  19.6945220 104.0537195  33.6743855  19.2793876 103.5122078  34.3456984
  19.1875487 104.8656361  33.6742926   9.0617210 100.8219426  64.8142433
   8.6212236 101.6271525  65.0859642   9.9074966 101.1144971  64.4746733
 116.1781418  91.1421632  94.3335056 115.4937493  90.7301306  94.8608303
 115.9156858  90.9758293  93.4281445  55.2189845  29.1569815   6.7555575
  54.9146074  28.9780699   5.8658556  55.3068143  30.1094590   6.7916541
  97.0451307 103.4358995  92.8840542  97.7451109 102.7853041  92.9386902
  96.7544948 103.3990716  91.9727898  28.8516068   9.2290288  80.2588272
  29.2712855   9.6281528  81.0209370  28.1774068   8.6585993  80.6280136
  67.9689312  12.7383685  77.8136396  68.0250645  12.1778297  78.5875082
  67.0353842  12.9297817  77.7237415  70.6644344  21.9492936  78.7058210
  70.6638336  21.0137701  78.9083767  71.2099028  22.0244741  77.9228497
  35.8151895 108.6249391  91.2868023  35.1132327 109.2753037  91.2641335
  35.6099540 108.0773171  92.0445728  16.5834313  92.1772837  60.5290937
  16.4526588  91.2708961  60.2505398  17.4540168  92.4049078  60.2027464
   5.5129891  91.9560515  33.3923531   6.2755328  92.0148944  32.8167653
   4.7703010  91.8572246  32.7966404  23.0580455  97.8729223  61.1498737
  22.1114474  98.0149280  61.1540794  23.3639031  98.2731854  61.9637966
  43.3204556  10.1666403  42.0977783  43.6910534  10.4772949  41.2717152
  43.3705807  10.9230220  42.6822519  61.2688160  22.2342062  63.3625698
  60.9598541  21.3642550  63.6154699  60.8179188  22.8313971  63.9594698
  36.2830001 103.2950341  82.9873848  35.8914500 104.0598064  83.4093380
  36.9267970 103.6598664  82.3802185  75.1733065   9.1173881  30.6196618
  75.5215979   9.8666656  31.1028862  75.2846622   9.3535590  29.6987605
  30.2283549   3.8666970  52.3828220  29.3066311   3.6514857  52.2402000
  30.6104994   3.0624765  52.7341413  79.0353441  12.6634777  22.8023291
  78.2628584  13.1983316  22.6194954  78.6935759  11.7747748  22.9004860
  42.3955232 109.6230243  65.0891685  41.4767438 109.5359690  64.8352194
  42.6560765 108.7402334  65.3518915 101.1966914  86.5655480   5.6913046
 101.5313691  86.8973718   6.5244441 100.4371184  87.1163617   5.5018763
  55.4758167   7.6132464  47.2985029  56.1004972   7.9782689  46.6717911
  54.7174931   7.3706585  46.7671585   3.0248702  51.9060977  12.9550795
   3.7313617  52.3323141  12.4698500   2.8202975  52.5151123  13.6646418
  66.0536623  10.3640366  87.5474358  65.5456305  11.0685372  87.9496956
  66.6319609  10.0569630  88.2456493   3.6397582  99.0387665  76.7490911
   2.9392034  98.4031223  76.8953991   3.3535319  99.5389890  75.9848404
  59.0414429   2.6260203  52.5312662  58.9938927   3.4639671  52.0710325
  58.2674599   2.1463789  52.2360849  26.0561830  88.8957106  55.7933474
  25.6919795  89.6219408  56.2994909  26.9954234  89.0765869  55.7567120
 112.3762285 107.6351937  57.0053673 113.1152260 107.4155649  57.5727129
 112.2852241 106.8781339  56.4267397  90.4611813  96.4710437  56.5612888
  90.5549657  96.9166457  57.4032354  91.2947106  96.0173630  56.4362574
  31.3854104 105.8461704  55.3325415  30.7681542 105.1250010  55.2094889
  32.1303016 105.6216609  54.7749043  54.2961103 101.9451158  84.9243546
  54.7805291 102.7705376  84.9087048  53.4304696 102.1689068  84.5825577
 113.9472103   4.3510267  55.3693438 113.0416203   4.4194973  55.0669432
 114.0741062   3.4170267  55.5359983  40.3609735  83.2684051  80.7299423
  41.0678559  83.1901371  80.0893021  39.6741229  83.7518536  80.2708721
  31.9126558  10.3031600  75.9717941  31.2159896  10.3485644  76.6266394
  31.4528394  10.1838994  75.1407814  10.7651103  46.2146282  94.0491772
  10.0791407  46.1687899  94.7151947  10.8939993  45.3065729  93.7752056
   8.7663806  49.0117209   2.6569609   9.2137683  48.2324312   2.9867892
   7.9832328  48.6727820   2.2233252  67.1088362   5.0134754  75.5769348
  67.4812269   4.5760217  74.8113012  66.2813663   4.5585975  75.7338047
  65.3120089  34.1227412  76.1891079  66.1955690  34.4845963  76.1211634
  64.9343872  34.5550609  76.9550943  67.0343304  22.5548840  45.4762220
  66.6653681  23.3409286  45.8790016  67.9547358  22.5605941  45.7390070
  98.2149696  45.2291965  73.9628077  98.9350128  44.7848701  73.5152197
  98.5863018  45.5016518  74.8019218  36.3148719  96.9059323  81.7354965
  36.8759566  97.0509659  80.9736729  36.9072562  96.9689702  82.4847221
  89.1982716  76.5391384   2.5015215  88.7378806  76.3669787   3.3228831
  88.7550277  75.9862195   1.8580584  65.2902079  34.1016769  91.9731045
  64.5755291  34.7369218  92.0170307  64.8802900  33.2645369  92.1907997
  46.2732601   0.2519980  75.2856159  46.2938929   1.1934122  75.4575014
  45.7889605  -0.1158739  76.0247755  25.6586313   5.4751033  84.1712856
  25.7989240   6.1562502  84.8289967  24.9174666   5.7905155  83.6541557
  80.4708260  30.2114592   5.0804095  80.7038230  29.3620406   4.7056632
  81.2949103  30.5552803   5.4252390  28.9863425 108.4147576  78.0429029
  29.3821364 107.5663077  78.2421780  29.7296554 109.0119300  77.9586411
 116.7847406 108.6330073  70.9136772 116.5072166 108.9757054  70.0641060
 116.0839593 108.8861412  71.5145588  60.2778578   8.0696577  71.3968134
  59.9272251   8.5871422  72.1217251  60.7058907   7.3249435  71.8192101
  30.5121255  24.5767522  25.3929782  30.0896001  23.8824272  25.8985615
  30.3645468  24.3316197  24.4795442  81.6504574   9.2926037  68.4242058
  80.8306694   9.6611995  68.7533283  82.2158337   9.2399752  69.1947985
  63.7272596  28.5075188  69.3758392  63.4141779  28.0790210  70.1724577
  63.1435108  28.1890559  68.6873245  95.9341782  43.2175504   1.4684920
  95.1272410  43.2659398   0.9559111  96.1688727  42.2896205   1.4586882
  93.3087653  16.2148176   8.6413054  92.6852006  16.6831027   8.0862288
  94.0291661  16.8325935   8.7662272  63.1975651  38.1482673  72.0486879
  62.4437714  37.7398920  71.6229391  62.9247761  38.2643366  72.9588223
  72.7309275  21.2369967  62.2931147  73.4776020  20.8954406  61.8011284
  72.2866869  21.8216109  61.6790247  96.0784852 109.4650643  69.4247723
  96.1857425 108.5937806  69.0432072  95.9848511 109.3053890  70.3639030
  54.3764591   8.0204475  86.5414238  55.1258755   7.5471330  86.9027805
  54.0779781   8.5797459  87.2585869  44.1602898  42.4444056  83.8077259
  44.3324566  43.0526447  83.0889511  44.8732805  41.8076468  83.7586308
  94.0369034   7.1336585  83.7007427  94.5492458   6.3585079  83.4707737
  94.5737743   7.8706682  83.4095097  48.2256699   3.4192428  75.7435465
  48.9199972   4.0729445  75.6609964  47.5526333   3.8499457  76.2705660
 101.5534865  95.9996556  75.7695007 101.5773641  96.2538301  76.6920280
 102.0647394  95.1913678  75.7304573  34.8572397  24.3510914  37.4099851
  35.7286358  24.0708232  37.6899004  34.3821979  24.5072842  38.2261777
  54.8586035  10.7291698  39.8780489  55.5003929  10.4394162  39.2296791
  54.3013334   9.9643141  40.0218439  30.9584964  65.7189773  13.4197573
  31.1103881  66.1747180  14.2476801  31.2937892  66.3172446  12.7520136
 113.9722358  84.4118439  62.1999598 114.6009385  84.2287694  62.8981352
 113.8611233  85.3623425  62.2208834  69.5212984   4.2502367  63.7082911
  70.4747915   4.2563197  63.6243391  69.3641996   4.1964346  64.6509790
  62.8216028   6.3876361  81.6292095  62.0830917   6.2914073  82.2305107
  63.4978342   5.8119643  81.9863415  64.4514322  22.3136401  85.0585365
  64.0747738  22.5910878  84.2234421  65.1822567  21.7455935  84.8147106
  74.3541956  18.3792198  78.5528708  73.7984753  18.1500411  79.2977762
  75.1398802  18.7575054  78.9476252   3.0528146 105.1309430  73.1418943
   2.1321279 105.3669601  73.0284739   3.4773952 105.9453749  73.4114552
  69.1383076  29.0646315  55.8798265  68.8538218  29.2972040  56.7636919
  69.5524788  29.8597789  55.5445194  22.2029620  75.7515990  83.8435459
  23.0713492  75.3953420  84.0312004  21.9471246  76.1969816  84.6512604
  32.0245296  79.5247017  90.3658962  32.5365478  80.2603518  90.7018852
  32.1977836  78.8117205  90.9806061  11.9986802  99.9529504  47.5364161
  11.4005691  99.2572843  47.2633839  12.8718883  99.5889555  47.3906660
  93.5116350 109.1466127  58.5737848  94.2484366 108.7046063  58.9956713
  93.1602144 109.7253229  59.2504168  77.9277462  15.1446257   0.1440100
  77.7749509  16.0618745  -0.0830026  77.0671243  14.7325478   0.0681738
  66.6709280  17.0107543  67.8815413  65.7375622  16.8399668  67.7554989
  67.0204973  17.0972252  66.9946575  46.4812279   6.3752568  63.6390734
  47.3095512   6.7360342  63.9552212  46.6636276   5.4465884  63.4957647
  32.7186996  77.8799569  66.9075918  32.3848897  78.4587704  66.2221861
  32.8995591  78.4620821  67.6455927  85.5926675  71.8673526  14.2075591
  84.7554082  71.4337490  14.0425734  86.2123603  71.1496745  14.3385272
  85.7554191 102.8818666  44.5967054  86.1236864 103.1081121  45.4507732
  85.4826646 103.7201875  44.2238092  58.0693865  10.6366920  66.4494038
  57.8843784  10.8496428  65.5347157  59.0223026  10.5550158  66.4882946
  82.9206181   4.3500519  44.3095779  82.7908707   5.2223718  44.6816778
  83.8712215   4.2431274  44.2755699  67.4440002  11.1446166  80.0901031
  67.7131224  11.6779745  80.8379936  66.5955687  10.7832170  80.3466034
  78.6736339  95.1028429   2.3906569  78.3737105  95.9521876   2.7145342
  79.5412845  94.9911557   2.7791647  55.3881216  12.2672129  66.6657019
  54.8104048  13.0119252  66.8326712  56.2077570  12.6619458  66.3680172
   7.9306394 102.7321785  90.9915543   7.3000365 102.3112660  90.4072571
   8.6892682 102.9114287  90.4360485  49.7464561  11.4812076  63.2450056
  50.2788115  11.2155104  63.9948320  49.3972349  12.3378789  63.4907484
  37.5967550  17.4494874  83.2173252  37.5051260  16.5132189  83.0405903
  37.1428442  17.8759837  82.4904823  51.4069653   7.4028391  62.4100542
  52.0823622   7.4404937  61.7328167  51.8048286   6.8949002  63.1171179
  11.7107516 106.2534358  71.7861509  11.9700223 107.0719834  72.2092199
  10.7537824 106.2696703  71.7992973  79.7500420  17.9628146  81.0146904
  79.3446350  17.1057594  80.8830166  79.9665976  18.2634723  80.1321125
  16.8006021  99.0646302  80.1500225  17.3910171  98.3725630  79.8522186
  15.9404641  98.6462497  80.1868629 111.3184821  94.5896780  84.7780609
 111.5050089  94.8191749  83.8676929 110.4880082  94.1152214  84.7401333
  81.8179512  14.4577110  74.0098238  81.3523674  13.9081490  74.6402550
  82.3135376  13.8392520  73.4730434  49.0762281  20.0816226  90.2000618
  48.1637478  20.3668070  90.1523018  49.0395641  19.2349267  90.6450272
  89.3412876  21.1507583  61.0034800  89.9363899  21.0308290  61.7435455
  89.9167728  21.3310814  60.2601528  76.3256073   8.9405632  45.0324059
  76.7998838   9.5897961  44.5129967  76.0787106   8.2636631  44.4022608
  45.9155351  80.7583200  76.0388994  46.6146356  80.2059232  75.6891155
  45.5299741  80.2387225  76.7442989  57.0500469  23.8809681  32.0242548
  57.6946545  24.3194985  31.4689088  56.5917110  24.5943403  32.4683905
  90.3412217  49.6463631   9.3199400  89.4218797  49.5384221   9.5636324
  90.8291310  49.3451230  10.0863699  87.7849102  32.1502662  78.9862633
  88.0151176  31.5611076  78.2678413  87.9157257  33.0279946  78.6274958
 101.0366154  24.4205165  63.6678600 100.2955437  24.6337533  64.2349243
 100.9422684  23.4842920  63.4923172   1.8368448  67.7513145  24.9958376
   1.9299424  68.3609258  24.2637591   0.9039462  67.7736805  25.2089839
 108.8478917  61.2383108   7.2635035 109.7823447  61.4316605   7.1883349
 108.7833899  60.6597476   8.0233340  72.8094387  38.6515260  54.7801352
  73.2813168  37.8433132  54.5792437  73.3443832  39.0817046  55.4472256
  12.1186334  95.7334529  62.2478294  11.8639022  95.2120482  61.4865923
  11.5338021  96.4908980  62.2258902  73.2344389  16.5263176  82.8830051
  72.4425554  15.9967387  82.7897263  72.9235077  17.3634672  83.2275867
  40.5979633   9.5086068  54.6992159  41.3062239  10.1336718  54.8537827
  40.3260279   9.6732175  53.7963390 107.3368561  79.2001425  80.5087948
 106.5971171  78.6594521  80.2319050 107.2154390  80.0281869  80.0442219
  39.7377419  35.7738233  89.5191574  39.2325830  36.5808225  89.6181297
  39.2761755  35.1342821  90.0615406  46.2248278  20.7475829  90.2667904
  45.9512949  19.9595153  90.7362175  45.4265404  21.0634065  89.8434448
  18.3573943 108.2110274  72.1531057  18.1488687 108.8024645  72.8762627
  18.9019710 107.5308614  72.5493860  79.7378397   6.1074793  92.4028969
  80.3396893   6.1151832  93.1471729  78.8666248   6.1185825  92.7992439
  10.7692844  90.2428686  78.1971645  11.0621005  90.5225514  79.0644979
   9.8155051  90.3162014  78.2311916  76.6108656  24.0580010  64.6140671
  76.1163473  24.8771858  64.6390867  76.3763952  23.6622310  63.7746525
  46.3601685  15.7555580  74.5574665  46.9725895  15.4434824  75.2236319
  45.8330822  14.9872887  74.3379688  60.6054115   0.5140953  90.0663948
  59.9812126   0.1502537  90.6942654  60.8122873  -0.2164831  89.4835663
   2.0915569  88.9184628  14.8031954   2.5961555  89.5196305  15.3511099
   1.1787856  89.0971003  15.0293879   4.6380025 104.1367786  95.1089954
   4.9906140 103.4718632  95.7004261   5.0192958 103.9257394  94.2567635
  21.9641572  79.4806205  93.3687687  21.1928779  79.1481911  93.8279533
  21.6093713  79.9539339  92.6162148  13.0032664 103.9683591  69.0172386
  12.6590425 103.7705283  69.8882198  12.9537517 103.1368982  68.5455942
  31.3948298   7.8984672  80.2340508  30.9304619   8.5310709  79.6859598
  31.0805774   7.0455194  79.9341249  69.8845434  16.3582444  63.3833742
  70.0492525  16.2197936  62.4506712  70.0467873  17.2917569  63.5192537
  94.7154683  53.4679866   0.1241545  94.7259206  53.4350489   1.0807375
  95.5013055  52.9898523  -0.1405569 109.6965777  70.1249372  58.0706310
 109.9682056  69.8166906  58.9351749 108.7407052  70.0780021  58.0890369
  85.0436687  32.3367858  66.4082384  85.5288792  31.5118408  66.3916159
  85.3474808  32.8090072  65.6330347  23.8171244  27.4112344  67.9467630
  23.9660954  26.6187811  68.4625673  23.2479453  27.1278214  67.2312593
  53.1118917  19.5962358  76.8090200  53.8484335  19.1420197  77.2181940
  52.7836084  18.9793527  76.1548662  54.4182205   5.3858536  82.9392529
  53.8161755   4.8782587  83.4834290  55.1110649   4.7673720  82.7075672
  65.2532625  40.1341057  65.8626318  65.8316946  39.4274426  66.1494684
  65.1948786  40.0254536  64.9134111 114.8828954  57.1942545  13.8183360
 114.3672580  57.8396262  14.3019156 115.2756947  57.6907854  13.1004290
  52.1692514  20.2627015  69.0486288  53.0413818  20.2853036  68.6547804
  52.1233511  21.0609269  69.5748949  62.7165174  16.4080441  89.7089386
  62.7817774  16.8538666  90.5534649  62.1555042  16.9761181  89.1809368
 107.6116263 106.8538879  83.3791351 106.9823515 106.4025988  83.9417934
 107.0719754 107.3045128  82.7295685  43.7876606  19.7098505  80.2124596
  44.4473457  20.4031610  80.1933002  44.1730022  19.0277171  80.7624054
  10.2723199 104.1637324  50.1354504  10.6272298 104.9708205  50.5081177
  10.9216863 103.8940077  49.4859886  61.5050936   0.3833965  74.7615910
  60.6911230   0.7843202  75.0664663  61.2224865  -0.3845764  74.2650175
  54.9188471   1.8595681  60.4849815  54.9253416   1.7353415  61.4340639
  54.0856504   1.4843310  60.2000093  93.7191486 106.8443762  63.8789797
  94.4294857 106.2248137  64.0457010  93.6395931 106.8665799  62.9253483
  71.8400902  62.7771859   7.2364382  72.1430296  61.8749706   7.1341376
  72.0265359  62.9902123   8.1508212   6.8176919  83.0339538  77.6394463
   6.3635665  83.7555014  78.0746126   6.4774114  82.2462284  78.0636263
   0.4154688  93.1150829  83.0922794   0.4949814  93.8499652  83.7004375
  -0.4641551  92.7705812  83.2465935   3.0112105 107.2619327  53.1591892
   2.6503116 106.4118098  52.9076433   3.9248496 107.2276070  52.8757811
  51.9765282  10.9581995  67.5971556  51.4520359  11.4347720  68.2405949
  52.0701361  11.5681279  66.8654060  31.7427468  14.2282379  60.7771826
  32.4395204  14.1813731  60.1225519  31.1139011  14.8515201  60.4134464
  38.5375386  85.8653795  73.8373232  38.7157136  85.0733410  73.3302116
  39.3121415  86.4124381  73.7071371  21.8467760   8.1017888  75.3114462
  21.4084554   7.2578591  75.4204845  22.7602482   7.8762794  75.1355219
  43.3939362  15.0400114  65.5664349  43.7553263  15.5697083  66.2771034
  42.5670099  15.4683149  65.3451061  14.3686229  96.6707908  72.3125935
  14.2698032  96.1137854  73.0847406  15.3139621  96.7160892  72.1693468
  62.1049213  14.8935235  77.8786564  62.5569439  14.9426019  78.7209749
  61.7225933  15.7631266  77.7609825  68.7253189  26.5211034  72.2282505
  68.8669634  25.6188893  72.5149155  68.0356169  26.4570236  71.5676165
  31.3669044  87.8799354  78.9919233  31.3114625  88.7056123  78.5108662
  31.6273957  87.2360384  78.3333063  83.1952858  27.9809499  88.8479137
  83.7069798  27.5994563  88.1345654  83.5595798  27.5876904  89.6409225
  57.4853659  14.5198941  77.8428793  56.7124271  13.9557457  77.8197575
  58.2008934  13.9356518  78.0937004  85.4440117  10.1634336  86.9829750
  84.4913769  10.0822282  87.0291710  85.7555008   9.2659289  86.8659687
  82.0759296  25.9425616  55.5169439  81.1585903  25.8739591  55.7815456
  82.4661922  26.5370631  56.1576414  56.7801189  15.3575671  91.5520096
  56.6883039  16.1833894  92.0272160  57.6151323  15.4380512  91.0910320
  81.4391708  57.6666260  94.9717045  81.2806416  57.6583385  95.9156418
  81.8273830  56.8115091  94.7865105  45.2879047  11.7530298  75.8136797
  45.7712173  11.0132968  76.1816931  44.5109749  11.3583243  75.4176760
  55.6253576   7.8610420  54.9328613  56.2859201   7.7444512  54.2499971
  55.8345509   7.1924382  55.5851173  85.5510998  27.8692150  94.4097233
  86.3977814  27.4302435  94.3281078  85.6684208  28.4829617  95.1348305
  84.7154808  29.6173191  65.5703163  85.2103329  29.5819330  66.3889122
  83.9364243  29.0871334  65.7382774  52.2762299   8.9701432  58.0757904
  51.7247438   8.3072233  57.6602983  52.5592184   8.5663497  58.8962173
  69.3327475   8.0545974  77.8918266  69.6797562   8.8573587  78.2809162
  68.5127926   7.8966522  78.3597565  42.4080831 104.8008018  83.8871193
  42.9009992 105.3208919  84.5217609  42.3260575 103.9391004  84.2957401
  95.3344189  84.9638211  74.6435738  96.1739408  84.6742999  75.0008059
  95.5428778  85.7628356  74.1594791  75.7520217  77.5685368  16.8158392
  76.2143201  77.9918276  16.0924201  75.2290648  76.8842231  16.3981490
  80.7239151  40.5728483  74.9820185  80.7863712  40.8383894  75.8995247
  81.4562321  41.0163498  74.5539379  91.0783577  23.7588906  78.7399817
  90.5173779  24.0701747  79.4503546  91.9209099  24.1856575  78.8956022
  41.9275475   6.8313009  60.2159786  42.1285629   7.1457887  59.3345451
  42.7741671   6.5640402  60.5738020   5.1991874  78.9733254  81.8430328
   5.8757049  79.5199572  82.2427177   5.2355796  78.1512963  82.3320866
  74.4234175  42.5763892   4.1756205  73.8700885  41.7998443   4.2594962
  75.2928657  42.2813223   4.4462351  21.2768394  95.6726121  62.6379204
  22.0916492  95.3115999  62.9871798  20.7959777  94.9103688  62.3154449
 115.2250230 100.8719324  89.8955536 114.5761525 101.2106662  90.5123615
 116.0631286 100.9834199  90.3443050 102.4027556   5.8247577  18.8292651
 103.1666106   5.7147799  19.3955378 102.6550359   5.4111062  18.0037550
  52.7258348  12.4816847  30.8303428  53.3195782  12.1941483  30.1367855
  52.3826122  13.3195090  30.5197263  22.9674941 102.0287161   8.6254644
  23.9098054 101.8605476   8.6279887  22.6305896 101.4934157   7.9070073
  26.4674645  94.9640380  72.0451784  27.1271020  95.6377839  72.2100353
  25.6465798  95.4486655  71.9584990  40.6247950   7.0825601  45.8322763
  41.5596533   7.0126480  45.6389141  40.2051020   7.1260285  44.9730921
  66.8362713   7.7366257  75.1019716  67.0573473   6.8217492  75.2762127
  66.2316751   7.9749614  75.8047438  79.1467333   8.4458476  74.4864178
  79.3378830   8.0766499  73.6242199  79.9731970   8.8386136  74.7673607
  11.7650569  24.4714938  22.9236369  11.1290420  23.9733563  23.4370379
  11.2718166  25.2233682  22.5955634  59.1261959  22.8868556  61.4869928
  59.8675489  22.4672914  61.9235611  58.5884619  23.2271385  62.2020292
  21.9204980 108.2673453  73.2703590  21.5971833 108.7206315  72.4917507
  22.1890765 107.4056565  72.9516268  34.2999101  37.7383494  28.7545180
  34.6331382  37.7128911  27.8575540  33.3545661  37.6198220  28.6622763
  38.9649343   1.5857582  70.7576323  38.4701467   1.2793855  71.5176010
  39.1914201   2.4915394  70.9685707  52.7247888  96.2777542  83.2386017
  52.6209336  95.4010176  82.8687572  53.6593705  96.4653157  83.1514263
  45.3175908  87.1672737  67.9236317  45.0175649  86.3150107  68.2396507
  45.1719457  87.1369349  66.9780636  16.2396747  86.5197455  63.2926464
  15.7608682  85.7120620  63.4787178  15.7851535  87.1904623  63.8023329
 115.0605690  95.1501571  59.7941971 115.7248747  95.4938506  60.3915262
 115.5457389  94.9249517  59.0003920  58.3532381  16.4713824  65.7367802
  58.7267447  15.9757411  65.0080395  57.4972868  16.0696924  65.8858728
  34.3906766  92.3695492  50.4787016  34.7432452  92.2024404  49.6046305
  33.9478570  91.5553843  50.7180309  34.1475612  86.8014275  51.3587523
  34.2182857  86.0643016  50.7522202  35.0026637  86.8421422  51.7869711
  40.4861051 100.1718580  80.8269119  40.0761205 100.4500853  81.6458988
  40.4805165 100.9558927  80.2778339  31.9872832  16.2598479  77.3605299
  32.7874398  15.7659817  77.1814299  31.2953496  15.5985534  77.3727942
  72.9332542  39.0384579  49.8908901  72.1269131  39.5171595  49.6988344
  73.2672262  39.4432640  50.6914091  99.4722909  49.5164262  45.5986552
  99.2425364  50.1135479  46.3106112  99.3925399  50.0469677  44.8059420
  12.7708751  90.6336462  76.3897371  11.9982511  90.3747939  76.8920088
  13.1385070  91.3700902  76.8783426  18.2222158 105.6751700  89.5433140
  17.5915557 104.9923443  89.3147182  17.7434903 106.4946841  89.4190025
   3.6455787  61.8614338   3.6492304   2.9587711  61.5338455   3.0685381
   3.1954349  62.4740855   4.2308287 108.7885844  92.6668715  55.3505850
 108.1315696  92.6565193  54.6545553 108.5174953  91.9683539  55.9462500
   1.5238029 107.5752839  94.1205215   2.2626430 108.0876136  94.4489479
   1.8298656 106.6687538  94.1480637  53.7137586 108.9201262  55.5122185
  53.5893518 109.5127310  54.7708845  53.1079465 109.2414830  56.1800194
  22.5587970 103.9528637  44.1397047  22.0132953 104.6933459  43.8744783
  22.5233441 103.3508753  43.3963442  37.0799190  75.0758730  81.9674873
  36.6735536  75.5327903  81.2310600  37.4035197  75.7758485  82.5345421
  29.1200829  12.8469944  75.4318094  28.7882757  12.2070861  74.8020029
  28.7448668  12.5753915  76.2694693  65.5132008   6.5539742  49.1676664
  66.3196707   6.3650829  48.6879206  65.2685308   7.4357998  48.8870430
  60.0924015   0.5802352  70.0617456  59.8019791   1.0271473  70.8568287
  59.9666739  -0.3497656  70.2502251 100.3932463  98.1304990  37.0638418
 100.6381976  98.0854618  37.9880738 101.0036623  98.7629293  36.6848230
  48.1335211  31.3272452  85.9686852  48.9314318  31.1888409  85.4583740
  48.2377577  30.7621241  86.7341900   8.3902967   2.9724470  76.9312000
   8.1143773   2.5799918  76.1029005   9.3464214   2.9790989  76.8863344
   3.2887250 108.0409477  72.3975945   4.1988164 108.0665885  72.6930857
   3.1247884 108.9178260  72.0505524  26.5646029  35.2676368  90.0264263
  27.2743130  35.8946037  90.1659107  26.9632864  34.4135571  90.1932621
  51.8398553 106.8184420  90.5064487  52.4241334 107.0818826  91.2174034
  52.0827943 105.9114676  90.3204060  70.0349885 105.5800362  66.8465710
  70.9216863 105.9273299  66.9434452  70.1108819 104.6578120  67.0914698
  86.5557259  55.9696081   4.5042090  86.2771100  55.7705283   5.3980593
  87.4665803  55.6777829   4.4666342 100.3168488  18.7921035  58.1218100
 100.3428936  17.9632640  58.5999107 100.0501919  18.5489333  57.2352505
  67.5837278  29.3807316  74.3265295  67.1769571  29.0269852  73.5355616
  67.0607901  29.0243483  75.0446939  70.7870293  28.2493329  52.9698324
  70.5297136  27.7532673  53.7469673  71.7231321  28.0744267  52.8731298
  95.2371788  21.6141057  82.7466297  96.1386395  21.8554425  82.5336742
  95.3174877  21.0285330  83.4995461  76.5737104  23.6547637  41.4250088
  75.7235003  24.0907526  41.4823627  76.8202782  23.7310100  40.5032587
  53.5418129  57.3129320  85.1369572  53.1475401  58.1835985  85.1890755
  54.0864897  57.2492981  85.9214973  79.0605307  38.8388610  84.3158817
  79.4675159  38.0830312  84.7393322  79.7721148  39.2507339  83.8257313
  94.0482044  20.2741957  89.6230793  94.3747139  19.8821485  90.4329681
  94.7175312  20.0683308  88.9705086  57.9044342  22.4461913  58.5829067
  57.7152395  23.3741283  58.7220716  57.5227499  22.2496080  57.7273941
  57.7738333  28.3106995  48.6429977  56.9523144  27.9542685  48.9810753
  57.5140715  29.0965533  48.1621790  47.1321088 109.8522925  75.1715946
  47.7187329 109.1740741  74.8367548  47.2741300 110.5998593  74.5909023
  57.0527697  25.8284998  79.8036623  57.7862740  26.4433217  79.7895432
  57.4335480  25.0085545  80.1181984  64.6924925   0.1628195  76.1398840
  64.1884041  -0.0726771  75.3609943  64.0439415   0.5219839  76.7453671
   0.2757943  91.2776957   3.1058745   0.8837903  91.8257843   3.6020331
   0.7900012  90.5071412   2.8649001 111.9719696  29.8234034  61.3360786
 112.4864769  30.1625752  60.6036377 112.2877979  30.3110790  62.0967722
  53.2656765  48.7624407  87.7991581  53.1636238  47.9675436  88.3225727
  52.3703766  49.0626812  87.6425552  39.3213320  13.5948980  68.5983038
  39.9685669  14.2699456  68.8023329  39.7755456  12.7691483  68.7658119
  82.8677559  12.6012015  72.5331163  83.0439854  11.7172790  72.8553820
  82.3402596  12.4682570  71.7455244  60.4746819  40.1739740  89.8738098
  60.7819128  40.5220413  90.7108879  59.7442484  39.6007276  90.1063824
  73.1063175   4.4307122  37.1403122  72.3924351   4.6099547  37.7522564
  73.8188410   5.0004756  37.4299955  78.4210491  16.3067734  59.1428757
  79.1707563  16.8773532  59.3120337  77.6895142  16.7340744  59.5884085
  55.0251484   7.1940327  68.7305403  54.6866274   8.0892622  68.7446785
  55.7109594   7.2078151  68.0629301  63.4761190  26.2419724  57.4591732
  62.8364182  26.9219613  57.6704216  64.3160677  26.7006540  57.4409723
  39.1733295  99.3919956  63.8235903  38.8028318  99.0474748  63.0110216
  38.4448606  99.3767606  64.4443417  73.1311369  15.5029690  88.8185978
  72.5679445  16.0434330  88.2645702  72.5442171  14.8400748  89.1823673
   1.3712293 101.9650268  75.3058481   0.7704764 102.5878083  74.8966169
   2.2427827 102.3089479  75.1100206  49.2522573   8.6854726  81.5621281
  48.6711121   7.9266477  81.6139221  48.7704659   9.3865377  82.0010090
  61.7660570  47.0655632  64.3473673  62.5124836  46.8783665  64.9166107
  61.2191677  46.2820244  64.4040728 101.0011673   4.9144390  64.6236086
 101.6165829   4.1825283  64.6660042 100.1744843   4.5167404  64.3503571
  42.8881454  23.5489392  80.0400257  42.6015377  24.4297600  79.7986794
  43.7952137  23.5010767  79.7380829  58.1194162   6.5397769  53.6881304
  58.8604975   6.7248893  53.1112814  58.4918308   6.5576237  54.5697355
  37.9492725  75.7186065  12.9924635  37.2429717  75.0834642  13.1106429
  37.7051509  76.2044607  12.2046999  24.2410070 104.1654955  34.0070820
  23.5775786 104.3159037  33.3336806  25.0717145 104.3575560  33.5720277
 109.6598148  13.9385211  55.8064318 109.3784428  13.0746293  56.1076784
 109.8574734  13.8157499  54.8779440  91.4893913  14.5750892  63.5427046
  92.0605183  15.2617633  63.8869762  91.1687851  14.1180503  64.3202353
  41.0051203  25.5429816  91.2890244  40.0562906  25.6631875  91.2502193
  41.1938524  24.9036884  90.6020641  58.6183548  38.2056451  90.7475948
  58.8646460  37.2891450  90.6226921  57.7266026  38.1690097  91.0935211
  67.2244167  24.2012143  56.9502783  67.8633451  24.8346710  56.6235733
  67.5486517  23.9597416  57.8179169  68.7910509  20.4991889  81.8552494
  68.0350208  20.6658173  82.4181747  68.4895420  20.7266665  80.9757137
  59.2413568  48.2344627  73.3109951  59.7567701  48.0740356  72.5205231
  59.8933125  48.3774948  73.9970922  29.4406176   2.4844244  73.2682800
  29.9849153   1.7414004  73.0077314  29.5329714   3.1119978  72.5514460
  68.8325500  28.5794616  41.6441345  69.2877674  29.3193507  41.2421703
  68.4539604  28.9385056  42.4466228  74.5808172  21.1516809  58.6483669
  74.9854946  20.9898114  57.7961540  73.6398411  21.1355639  58.4736156
  96.1338681  99.6860181   3.6307578  96.7783088  99.2155133   3.1020312
  95.2879399  99.3610774   3.3224635  53.0039835  31.1232519  42.4433279
  52.1745872  31.1813951  41.9690323  52.7938318  30.6249285  43.2330990
  71.7075777  30.3101540  66.1879587  70.9311152  30.7805037  66.4914560
  72.4223661  30.9391165  66.2865210  29.6165776  24.1832685  94.8915958
  30.4075003  23.6664701  95.0452042  28.8969135  23.5867572  95.0977325
  37.0142531   9.1969746  89.4821358  36.5933990   8.3375025  89.4616222
  36.2939811   9.8132420  89.6150017  80.0210285  19.1584122  68.2141209
  79.3665695  19.1488159  68.9125681  80.8292484  19.4334459  68.6469698
  54.9743462  17.8460002  62.8074646  55.4130507  18.5362172  63.3048296
  54.1306925  18.2263255  62.5628662 112.3139869 102.6096891  61.5417910
 111.7196142 101.8646966  61.4526892 112.1945416 103.1093197  60.7341194
  47.1578979  36.3456035  84.8968887  46.5596342  36.2869811  85.6417942
  47.7319336  35.5853486  84.9903202  58.0790281   5.0185281  68.9054918
  57.7136421   5.8876550  68.7401342  58.0120373   4.9070060  69.8538113
  40.1460648   2.4403228  59.5522022  40.9361315   2.5933650  59.0339327
  39.4988036   2.1335219  58.9172554 110.5767983  57.7676548  20.7314829
 110.0745887  58.4877364  20.3500323 109.9926776  57.3903222  21.3892416
  75.1307297  12.8141356  66.2776041  74.8809338  13.7377584  66.3050890
  75.2031136  12.5581312  67.1970892  21.9465542  43.4726048  91.7219830
  21.8673825  44.4136238  91.5656471  22.7051783  43.2064915  91.2024593
  61.9143915   6.6089261  25.8898759  61.0589504   6.1797082  25.9048724
  61.7241526   7.5286710  26.0745668  75.2651215  20.0503159  84.8973274
  75.1906157  20.6641936  84.1666889  76.1330271  20.2188110  85.2641773
  88.7031269  38.4747791  35.5721211  87.8070164  38.2151484  35.7861495
  88.6915112  39.4310617  35.6123304  78.2402420  22.8761053  33.8685060
  77.8803396  22.0635056  33.5130048  79.1875505  22.7388549  33.8680863
  81.1040688  31.5470099  76.4462471  80.1521492  31.5607619  76.5456438
  81.4293861  32.0630026  77.1839142  74.5061445  24.8462200  39.7993374
  74.1793346  25.7447505  39.7538304  73.7451315  24.3037939  39.5923018
  22.1185762 105.7502895  80.7256031  22.7356082 105.6023686  81.4422798
  21.5775901 106.4820065  81.0225105  41.3722879 106.2414335  78.7648630
  42.0389443 106.8983476  78.5641861  40.5701953 106.5866615  78.3728313
  55.2856588  22.5549531  48.5496235  55.7478619  22.3652554  47.7331638
  54.3588400  22.5288391  48.3118153  51.2807417  37.8644323  52.3472691
  50.3876829  38.1964898  52.2555161  51.6392136  38.3444023  53.0938339
  82.9542351   1.6012119  64.2360353  82.2824860   2.2829649  64.2220259
  82.5543976   0.8809795  64.7235107  82.5268650  15.3667974  57.6976633
  82.1794319  14.7279978  58.3201218  81.8529797  16.0448360  57.6490402
  16.8538552 108.6519817  56.2330246  16.2304574 107.9780548  55.9620428
  17.7126580 108.2486825  56.1063766  73.5123873  27.4336481  69.7025251
  73.0479670  27.6684785  68.8991547  73.0692959  27.9315090  70.3895712
  67.0613146  32.5479341  57.5863695  67.6702070  33.2479978  57.3510170
  66.3991356  32.5640869  56.8953609  70.7091570  25.6738353  58.0421114
  71.3747072  25.4619741  58.6966276  69.9471664  25.9445214  58.5542917
  73.0908918  19.0679467  75.9952259  73.9135456  19.2227006  75.5309772
  73.2332134  19.4404244  76.8654156  51.3666439  21.9269443  94.4484901
  51.0187387  21.8703914  93.5585403  50.5907726  21.9326663  95.0090408
  57.0465279  24.0622449  92.3653984  57.1675348  24.1614151  93.3097267
  57.0513201  24.9579716  92.0279408  76.7695522  20.5460596  45.8804274
  76.9280624  21.3034272  45.3169584  75.8505392  20.6258011  46.1359453
  61.7655182  47.8494978  68.7082386  61.5217972  47.7097988  69.6232891
  61.0131550  48.3015108  68.3263159  86.7338276   6.0202044  64.3635035
  86.9993782   5.8119488  65.2592421  86.1867619   5.2810180  64.0978861
  58.5272312  41.3247299  94.4906521  58.8384390  42.1956348  94.2438602
  58.0237150  41.4684772  95.2919292  63.7030029  20.7659483  63.3227825
  63.0174732  21.3927269  63.5539341  64.1570282  20.5926275  64.1474342
  72.3769617  42.6751518  62.5044775  73.0047989  43.0278492  63.1350756
  72.9087400  42.4354649  61.7455339  55.2526188   5.0862038  65.4253960
  55.6020451   4.1958803  65.3872156  55.9834862   5.6169635  65.7421923
  26.2852460  96.3794552  53.6813879  26.1801368  95.4493510  53.4811592
  27.0647174  96.4185547  54.2355776 100.6044388  30.3998041  59.3840647
 100.0053215  30.6538010  60.0860453 101.0458183  29.6183777  59.7169161
  13.6752206 110.0023675  89.3159771  14.0889913 109.7829712  90.1507759
  14.0567666 109.3865119  88.6903763  18.7299567 108.7876703  67.0444870
  18.2101089 108.5374934  67.8082943  19.1012317 109.6390496  67.2758818
  95.5768460  66.7853401  10.4261260  95.1464909  67.5251590   9.9975352
  94.8568076  66.2334357  10.7313685  72.4065018   8.8022578  68.3284712
  71.6571474   9.3882746  68.2222414  72.0219231   7.9680467  68.5975790
  66.9705343  31.1855865  67.0033598  66.5978765  32.0479822  66.8199682
  67.4354887  31.2969971  67.8325987  59.6689701  35.5653739  90.7222557
  60.4826307  35.1178360  90.4901028  59.0744019  34.8617578  90.9823513
  52.5245714  15.0110805  74.7511768  52.9390430  14.2934024  75.2301168
  51.6308784  15.0422621  75.0926065  90.6327629  33.0157113  55.1794767
  91.0834026  33.4836149  55.8824873  90.6454754  33.6238861  54.4404268
  74.0267992   3.3636138  46.0678387  73.8303471   3.7372574  46.9269228
  74.9703550   3.4862068  45.9634209  59.6652651  33.4628606  66.7994213
  60.2755928  32.7554035  66.5914965  60.2166080  34.2422700  66.8684959
  87.8667068   0.7956021  69.4956684  88.0533314   1.6388473  69.9083948
  88.7224770   0.3748187  69.4129467  74.2664623   4.9378088  48.4181786
  73.7259912   5.7143468  48.5634899  74.9274778   5.2208680  47.7863836
  88.8841629  13.9104772  42.3080826  89.5435715  13.6066854  42.9318810
  88.2812405  13.1724501  42.2184801  65.9390306  32.9630852  72.0688629
  65.2793217  32.9138732  71.3770580  66.5832663  32.2954345  71.8334055
  58.4366226   7.3240834  93.1937695  58.8786030   7.1416748  94.0229893
  59.0769339   7.0853943  92.5234985  41.7165136   3.8172248  73.9997911
  41.9159174   3.2462016  73.2578993  42.2334671   4.6068227  73.8400126
  76.2531757   6.2343627  32.4230146  75.9251308   6.3612586  33.3132458
  76.6235018   7.0831853  32.1809554  48.2765818  25.8993411  63.9133358
  48.7485313  25.0859857  64.0920830  48.6923838  26.5474391  64.4819403
  64.0990353  19.1406155  51.4482927  63.6339092  19.9742460  51.3779211
  63.7159777  18.5939610  50.7622433  65.6788874   7.3634422  65.5101347
  65.9505367   6.7323089  64.8437166  65.7970572   8.2172012  65.0937653
  85.1082993  39.1879725  48.6413717  85.5164337  38.9360785  47.8129911
  84.7608376  38.3695173  48.9958096  93.8218975   6.3218820  19.5486200
  94.4592381   6.0235757  18.8997340  93.7583828   5.5984050  20.1721406
  11.4874614  92.7123032  11.6204409  10.8373130  92.5632869  12.3069720
  11.8575633  91.8463503  11.4490180  80.0036526  32.7994943  48.2725954
  80.4123878  33.3437157  48.9456415  80.4083157  31.9389677  48.3820391
  84.1103935  35.1945448  65.8212137  84.4781590  34.4984555  65.2767563
  84.8248386  35.8237958  65.9203911  85.7433862  68.9263962   2.1604495
  85.1066464  69.1829584   1.4933829  86.5498704  69.3753610   1.9069914
  88.1304932   8.4549987  59.5775223  88.6106586   7.6340979  59.6860981
  87.2187328   8.1861013  59.4651794  70.7552767  34.9784899  53.7854195
  70.4842949  35.8720446  53.5748053  70.6292295  34.9067044  54.7315645
  66.0210943  20.2254772  65.2533340  65.9654903  20.1684856  66.2072134
  66.3638592  21.1032867  65.0854158  97.3855943  72.8641437   1.6177325
  98.1751222  73.3531414   1.3858752  96.9350261  73.4230016   2.2508959
  23.6710340 108.8697929  69.0037203  22.8733092 108.4278356  68.7129593
  23.8347512 109.5337013  68.3339024  84.4761944  36.2497783  54.0524864
  84.2026043  35.6433916  53.3642435  85.0051498  36.9052792  53.5977840
  81.0430622  41.5226221  88.2879829  80.1623154  41.4107704  87.9302216
  81.1029625  40.8697891  88.9854431  41.3471395 100.9729378  20.6442785
  40.7960063 101.0113411  21.4259458  41.8885976 101.7607086  20.6940436
  64.3546963  19.8665154  69.4936800  64.1839743  19.6657443  70.4138851
  64.3443871  19.0148830  69.0568161  13.6235124 109.9223826  55.0008202
  12.7055150 109.9406927  54.7303009  13.6314183 110.3617169  55.8512068
  54.5188379  25.9422159  56.2947416  54.5774889  26.2057233  55.3764009
  55.0740862  26.5682673  56.7594910  40.3801298  18.6756265  82.9985523
  40.8215380  18.1154752  82.3600960  39.4563341  18.4343398  82.9306412
  95.5229014  95.8192359   6.7769961  96.1509484  96.2354432   7.3673872
  96.0635823  95.4156552   6.0980181  87.6310158  20.9347153  75.3053284
  87.6390457  21.8901920  75.3621769  87.5752258  20.7510352  74.3675756
  90.9016705  58.3047056  60.3855848  91.2036991  57.7134562  61.0751009
  91.3484383  57.9997396  59.5958853  71.9897956  77.7385770  11.0025363
  72.2483319  77.2502361  11.7841391  71.0382885  77.8160034  11.0723261
  45.1952916 103.2733940  78.1740856  44.7930890 103.5766493  78.9880228
  44.6422559 103.6381947  77.4832153  75.9100771  26.9805789  65.0200653
  75.2631426  26.4855552  65.5227137  76.0421228  27.7833080  65.5244637
  60.6346130  10.8788335  64.7202730  61.3121080  10.8655751  64.0442133
  60.7073498  11.7477083  65.1152420  69.7677183  17.7626741  35.2956390
  69.5795727  18.6795247  35.0950956  69.3776560  17.6212549  36.1582422
  58.6964971 107.9338748  24.8941255  58.2790547 108.5174089  24.2605138
  58.9113790 108.4998106  25.6355906  80.9425372  70.5820523   5.5852274
  80.9846133  69.6424006   5.7627539  80.4604978  70.6487213   4.7609572
  12.6282085  58.3156709   2.5598483  12.1850360  58.2844926   1.7119936
  13.2533420  59.0357984   2.4770121  80.4902267  17.4728119  38.0201983
  81.2356472  17.3782074  37.4272180  80.5174923  16.6872442  38.5664320
  57.3874092   4.2219070  43.4439373  56.7430019   4.0119955  42.7679873
  58.2247448   3.9474308  43.0700874  84.2249393  48.8565588  35.4539824
  83.4425163  48.3053017  35.4413581  84.0441704  49.5437145  34.8126030
  77.6962757  15.5154037  54.9180317  77.6431656  15.8629835  54.0277529
  77.2708702  16.1796665  55.4602623  98.8517475  42.4532700  72.0420551
  99.2686462  43.2895756  72.2494602  99.5717335  41.8225908  72.0324802
  43.8814688   2.0130681  61.5231657  44.4994640   2.3987886  60.9022570
  43.8489866   1.0866523  61.2845659  75.2483273  24.2115808  55.2703190
  75.3532934  24.5093584  54.3666935  74.3109035  24.0391827  55.3583336
  31.0917616  16.1007059  85.7900238  31.9256997  16.5634191  85.7083225
  30.4389119  16.7264497  85.4762268 115.5544268  76.4297520  28.7147832
 114.7708475  76.9628560  28.5804772 115.8836638  76.2612139  27.8319287
  37.9814482  34.1193199  90.4981613  37.4136305  34.3295336  91.2395287
  37.6746249  33.2643342  90.1963520  73.8121796  40.0444698  52.6559067
  74.3912077  40.7582235  52.9233217  73.4210348  39.7345471  53.4727240
  64.9835968  49.7686577  30.8278012  65.0874281  49.6705198  29.8813248
  65.7399511  49.3152142  31.2000179  11.9733697  99.8263978  79.7352982
  11.2987882 100.5018627  79.8054504  11.7179805  99.1651296  80.3785133
  75.7959509  39.7186947  61.0814571  76.6574240  39.8183203  60.6762791
  75.4127789  40.5952215  61.0481119  95.2981281  47.4223328  94.9404526
  95.6620216  46.7721939  94.3395138  94.4479561  47.6480293  94.5629597
  66.5144920  42.5449562  74.1241264  67.3581123  42.0929909  74.1080904
  66.5911245  43.1696606  74.8453140  55.4068756   0.1938799  35.1994967
  54.4542265   0.2187507  35.2893448  55.7268906   0.7911040  35.8756208
  34.5355773   6.9978058  70.9806204  33.8333941   6.3730454  70.7993937
  34.3119454   7.3684645  71.8343401 111.5336227  36.1489511  90.5363750
 111.9811535  35.6301165  89.8679733 111.7473984  35.7127118  91.3611317
  64.3753529  15.0000393  45.5384541  63.8653803  15.4660380  46.2010241
  64.5560408  15.6589651  44.8680782   0.4788841  99.2013512   3.1427817
   1.1806644  98.7212430   2.7032046   0.0518335  98.5476886   3.6964755
  73.7354422  30.2540398  79.9141550  72.8565264  30.4593277  80.2328968
  74.0128708  29.5053363  80.4420853  63.5147572  11.4974761  72.8180075
  63.3897018  10.7437885  72.2413397  63.8474846  11.1225355  73.6334467
  97.8204346  25.6625271  57.0934582  98.0311966  24.7689223  56.8227625
  96.8961525  25.7692003  56.8685913  84.6729946  16.9537914  83.4506512
  84.6765804  17.8532386  83.7780857  85.1421738  17.0002902  82.6176167
  97.2631550  36.7497802  77.1434832  96.5830612  37.1896601  77.6535845
  97.4954605  37.3793221  76.4608860  33.8682729  89.6311771  50.4259300
  34.7118312  89.3251072  50.0928211  33.5645801  88.9239227  50.9949589
 111.9087887  22.6788592  35.8392119 112.4582195  22.8820348  36.5962291
 111.8795586  23.4942722  35.3387332  88.2825947   6.3748550  73.7003279
  88.9251518   5.6868672  73.8736057  88.7642002   7.0310241  73.1966114
  57.1277094  41.5583944  50.3863382  57.7735090  41.1815643  50.9839773
  56.6350174  42.1772432  50.9253311  59.6854734   4.7794110  90.7513332
  58.8334322   4.5276231  90.3951550  60.1239157   5.2285695  90.0286579
  69.5632410  42.8420639  70.7784081  69.7137070  42.5664043  71.6826200
  69.5258951  42.0245838  70.2818584  71.1077690  12.8286827  54.7896099
  71.1577129  12.9602444  55.7364082  70.2317953  13.1323171  54.5514870
  67.3571777  11.4921725  59.0405321  66.6103077  12.0537937  59.2479038
  67.7452374  11.8881345  58.2602406  67.8423262  15.0010967  64.4622612
  68.4155750  15.7020593  64.1519880  66.9907856  15.1975679  64.0717411
  69.5358229  14.0498662  72.3351049  69.0101433  13.3480072  71.9513273
  69.9992323  13.6324000  73.0611992  60.8884239  20.3124595  69.7859192
  59.9976969  20.1290321  69.4872808  60.9448242  19.8916912  70.6438255
  80.6581306  12.6705670  75.5273581  81.3716030  12.1251786  75.8586216
  79.9750710  12.6025558  76.1944675  19.0505963  94.9819635  73.0173254
  19.2058784  94.2856323  72.3791695  18.7860566  94.5220660  73.8140345
  54.1920042   4.0674454  35.8740807  54.8153114   4.7377726  35.5941129
  54.0964985   4.2076901  36.8161225  38.3579087  11.7285252  72.5325394
  38.5319924  11.9324148  73.4514284  37.5672698  12.2255421  72.3225451
  61.7619324  10.3499162  58.0502224  62.4136066  10.0078690  57.4382162
  62.0847273  10.0908720  58.9133215  46.4604807  24.3031740  86.2654686
  45.8750725  24.1526842  85.5232525  47.0285225  25.0192142  85.9811401
  78.0027914   1.5646943  66.1313295  77.6801491   2.3803848  66.5144539
  78.8216019   1.8098891  65.7004499  80.5658245  24.2809772  83.3993053
  80.3945923  23.3418846  83.4701252  80.5647850  24.5935202  84.3040466
  21.6483813  96.3134073  40.8941174  22.0116073  96.9966494  40.3306627
  22.3161250  95.6276130  40.8998728  62.7825737   0.9956019  77.9742241
  61.9255018   0.9865856  77.5481033  62.6820374   0.4126914  78.7267828
  66.4472294  10.5492306  69.5767307  66.6277981  10.3818870  70.5017281
  65.6174755  10.1020932  69.4099617  54.8670483  30.0140834  55.6613445
  53.9751196  30.2887440  55.4486084  54.8961973  30.0150704  56.6180992
  76.2871075  30.7461047  56.4252234  76.1367416  29.8209715  56.6195154
  77.1958685  30.7835650  56.1269283  86.6909313   7.7619153  86.6836166
  86.4178944   6.8450326  86.7153645  87.6397324   7.7336854  86.8069744
  65.1447201  18.0277336  74.2397833  65.6333733  18.5768139  74.8529387
  65.7028198  17.2614348  74.1073227  17.4539310 101.9039481  63.0597591
  18.2164842 101.7569428  63.6193466  16.7750150 101.3374906  63.4264088
  71.0139418   3.1305018  76.4971733  70.4605579   3.8414025  76.1737204
  70.8378220   3.0987525  77.4374962 104.6458310  88.2278930   7.3872714
 105.1411981  88.0311523   6.5922026 104.2251128  89.0682565   7.2055487
  60.3050470  30.1046729  52.3971558  61.2511730  30.2493238  52.4095917
  60.1991510  29.1899228  52.6584053  87.4964333  34.4208694  85.0806522
  88.2479954  34.4129705  84.4879246  86.9691849  33.6696053  84.8089027
  98.9893341  10.0022042  52.4095345  99.5105553   9.3486416  52.8758144
  98.3997536   9.4887739  51.8572521  71.4615583  26.7208648  74.9451876
  71.6592979  26.0908341  74.2522240  70.6803989  26.3695717  75.3725147
  72.2635555  13.1231534  67.9187155  71.8689537  13.6234045  68.6330462
  72.6773739  12.3754835  68.3499670  64.4680834  22.6330829  69.8060131
  65.3696918  22.7231002  70.1146030  64.3294621  21.6880202  69.7437716
  63.7521362  16.2598944  35.2344370  64.3976831  16.6696155  34.6585608
  63.9821815  15.3307629  35.2293658  86.9572830  41.9782352  57.5417757
  86.0028934  42.0180416  57.4802542  87.1973515  42.7551031  58.0468273
  85.3477573   9.2582029  67.9159784  85.0837326   9.6953702  67.1064043
  84.8161697   8.4626335  67.9429197  98.1679791  50.7303388  12.7086977
  98.9302415  50.3653885  12.2592501  97.6960582  49.9659179  13.0391173
  52.0009899  10.6283283  86.4758110  51.3975334  10.9827054  87.1288681
  52.8713465  10.8242679  86.8226814  62.2402477   5.0820762  54.9089193
  61.7230844   4.6819341  55.6079626  62.1909046   6.0221046  55.0825357
  90.6280708  43.8892984  61.6537189  91.3859558  43.3422327  61.4474297
  90.8930206  44.3827105  62.4299765  84.2542267  14.0914798  68.2770300
  85.0832653  13.8709199  67.8524351  84.4956303  14.3017387  69.1791058
  46.2824869  36.1178184  94.0566158  45.5742216  36.7613649  94.0776634
  45.8389044  35.2715206  94.1135788 116.2155247  44.0959263  76.0725164
 115.6163025  44.8274946  75.9242535 116.7497635  44.0593433  75.2791214
  77.1333885  28.7759042  79.8787785  76.8764639  28.9991379  78.9841318
  76.5279388  28.0803227  80.1353455  68.2465076  35.1069689  69.0688562
  68.0161762  34.3049335  68.5999012  67.5692797  35.1951551  69.7395372
  58.2022190  41.4679193  59.5827866  58.2797194  42.2816801  60.0807953
  58.5642910  40.7972908  60.1619196  65.4496717  30.0202584  55.1671505
  65.5310583  29.1224909  55.4890537  64.5404911  30.2583027  55.3486919
  78.9406586  54.7362947  56.3428068  79.0687799  55.6543064  56.5817213
  79.5466423  54.5910788  55.6162214  68.4957695  14.8169899  60.3617334
  69.2998123  15.3334951  60.4162073  67.9782200  15.2503693  59.6830893
  75.1510286  59.0095901  52.6416254  74.9514341  59.2584372  53.5441065
  74.8112774  59.7318602  52.1132994  92.3655957  67.9796658   3.3177714
  91.6475219  67.5258230   2.8765921  91.9681567  68.7799261   3.6610751
   4.3462718  72.2772406  25.5084757   4.2976726  71.3806830  25.8402209
   5.0836051  72.6668464  25.9783415  67.6495838  18.5424078  48.8975143
  67.9820013  19.1072810  48.1999111  66.8148136  18.2146132  48.5629416
   5.4222549  95.1355849  31.9364409   4.5998824  94.7740136  32.2668890
   6.0423911  95.0166713  32.6558356  73.3149338  13.3441699  72.0150089
  72.8742361  13.0368686  72.8072119  72.6381111  13.8200903  71.5337181
  92.8818512  45.0023556  42.6030636  93.0499458  45.3805208  43.4661818
  92.0258999  45.3495502  42.3520184  83.0805779  36.6439319  30.0756502
  83.0024529  36.1926198  29.2351484  82.2069931  36.5833020  30.4621768
 110.1012993  29.2536330  59.0365601 110.2344894  30.1862550  58.8671160
 110.7369709  29.0411878  59.7199488  90.9949780  27.0092058  65.4263973
  91.8111229  27.4435949  65.6742668  91.0594845  26.9017196  64.4774389
  72.7073717  20.6526279  72.7790356  72.6609898  20.5295396  71.8309164
  73.3413982  19.9992800  73.0746460 102.4031925  52.6808262  60.5184078
 102.6688671  52.9492474  61.3979530 102.2914600  51.7322302  60.5809927
  59.7077036  23.3123827  91.7677975  59.9660969  22.5367260  92.2656155
  58.7632370  23.3824849  91.9067192  95.8358258  97.0072232  11.1029486
  95.0649280  97.5280486  11.3281016  95.5850905  96.1067591  11.3091712
  65.5200386  39.4366670  79.7510767  64.9585056  38.7436199  80.0983524
  64.9377155  40.1899576  79.6526432  67.8180361  34.8244953  76.8383121
  68.7631893  34.7158432  76.7329168  67.7264833  35.5967259  77.3964405
  66.3439846  31.6836977  77.6135969  66.4368057  32.2764587  76.8677759
  65.4427147  31.3663721  77.5566196  58.7944269  40.1633596  83.4231186
  58.9785910  39.2254949  83.3708858  57.9841375  40.2204895  83.9294720
  66.4566946  54.4864750  77.1510315  66.2408018  55.3913736  76.9256926
  66.7196321  54.0891171  76.3208485  63.5902739  16.6082048  82.7155972
  64.1006517  15.8325946  82.4828339  62.7323675  16.2644863  82.9647636
  90.7569218  30.6180859  91.6475582  91.2201309  30.9116030  90.8630085
  91.0613251  29.7208667  91.7838287  31.6737617  83.6078559  15.0905470
  31.3323749  82.8566848  15.5757479  32.2562659  83.2247053  14.4347147
   3.3275456  56.0543299  86.7973042   4.1382069  55.6766796  87.1385479
   3.2422108  56.8910980  87.2542191  56.3555098  31.8595099  63.1600618
  56.3941622  32.6542997  62.6280355  55.4314947  31.7728615  63.3944082
  51.8314171  30.5221248  48.3457565  52.5759840  30.0512195  48.7200642
  52.2062683  31.3380456  48.0141068  72.4994230  48.9778805  78.0395603
  73.2819176  48.5094023  77.7489281  72.6322794  49.8764563  77.7376509
  61.5775728  49.8773193  64.1887522  61.4005613  48.9371777  64.2209291
  61.1760807  50.1687574  63.3701563  62.8937483  50.0550270  66.8200779
  63.3982611  49.8440790  66.0344553  62.0655680  49.5890379  66.7051792
  61.0883999   4.3511081  61.0318279  60.8918953   5.2821040  61.1360645
  60.2491522   3.9121857  61.1705351  63.9417076  57.9555941  85.9323978
  63.1103373  58.2151747  85.5353260  64.3606091  57.4037313  85.2719498
  97.0228499 100.8670197   0.7759337  97.3817462 101.3183127   1.5399794
  96.8874663 101.5602980   0.1299719  40.8310699  26.4099145  82.0215893
  40.5522490  27.1580195  82.5496292  40.1493359  26.3193083  81.3558102
  67.5788450   3.5541466  50.8152580  66.8093252   3.3705604  50.2763987
  68.0438423   2.7187482  50.8612871  85.5340290  33.6443806  64.0819788
  84.8319435  33.5770035  63.4348583  85.9241486  34.5039892  63.9235020
  64.4060278  31.7177749  89.1474915  64.8558998  32.3443842  88.5807419
  63.5672998  32.1339560  89.3463898 108.8991356  21.9767833  77.7972746
 108.7697124  21.1746383  78.3032799 109.5172310  21.7290950  77.1096468
  99.4136238  34.7702670  66.3261366  99.5993137  34.3663645  67.1738482
  98.8571453  35.5205393  66.5350628  75.4140282  41.5249157  63.9526844
  75.7069540  41.6627216  63.0518913  75.7943392  40.6826401  64.2020130
 110.0954741 100.5180798  22.2699408 109.9726838 100.4500876  21.3230853
 109.3393105 100.0647460  22.6426844 109.2720509  35.3411818  77.6484537
 108.5625076  35.2668738  77.0102882 108.9195061  34.9458313  78.4457207
  86.9184113  38.2821774  87.7499580  86.6823578  39.2096519  87.7325058
  86.5209675  37.9489732  88.5544682  80.3708553  21.3237500  73.8719225
  80.2114010  20.8409810  73.0609131  80.3993607  22.2418118  73.6025095
  93.8186646  56.7799950  60.7103586  93.0875206  56.4901257  61.2559175
  93.4591007  56.8091488  59.8237371  86.8718738  78.5302316  24.3440394
  86.2784404  77.9180728  23.9089159  87.7470416  78.2347856  24.0929942
  90.7531166  24.7239423  83.6548615  91.4477730  25.3607297  83.8227558
  89.9580002  25.2513981  83.5785866  58.8030100  43.0022860  77.6831388
  58.2329607  42.2402477  77.5802851  59.6608353  42.6330996  77.8930664
  92.4695206  27.0185137  58.1763268  91.8062305  27.7077556  58.2112837
  92.6101589  26.8686461  57.2414494  22.1508956  14.8434556  76.8194818
  22.5659513  14.7190142  77.6729870  22.8717566  14.7877264  76.1921978
  71.2238550  40.8225155  73.0170822  71.1250067  40.6385422  73.9512205
  71.5633249  40.0075960  72.6470852  79.6340084  66.5487146  84.4738674
  80.5000973  66.1437368  84.4279289  79.8095894  67.4896574  84.4797039
  77.9977512  24.2342138  74.7217798  77.7305031  24.6066737  73.8814926
  78.8086605  23.7638927  74.5282412  71.2939215  14.8373568  39.9094176
  70.6189251  15.4425120  40.2166700  71.7295551  14.5390463  40.7078314
 110.4280567  44.2629623  58.7934208 109.9905396  44.9520350  59.2934132
 110.7911205  44.7138929  58.0311394  66.4735746  30.3515935  81.4147186
  66.0004044  31.1831737  81.3861370  67.3972845  30.6020451  81.4309120
  62.5643110  26.5913081  67.8181982  62.0551014  26.0686445  68.4376812
  61.9107294  26.9694805  67.2299433  64.9977303   2.6611802  50.9297657
  64.3863678   3.0676681  51.5439606  64.4733191   2.4906188  50.1473761
  83.6937237  45.5020380  72.4869967  83.1602764  46.2077332  72.8525877
  84.1310978  45.1149178  73.2453394  59.0014791  26.8072486  63.1584024
  59.6588516  26.2654829  62.7218390  58.8806629  26.3946700  64.0136290
  68.4064627  23.9607954  73.1667423  68.5548067  23.8707924  74.1080856
  69.0853930  23.4191132  72.7644157  88.1649303  57.2138214  69.6537971
  88.6487007  56.7118740  70.3097248  88.1470203  56.6463041  68.8831902
  65.8671188  26.3491297  45.4780579  65.9993744  27.2243452  45.8423948
  66.2260771  25.7576013  46.1394787  94.5417213  30.7895613  65.6308317
  95.1912403  30.4806685  66.2624550  94.2376614  31.6237426  65.9884882
  71.8364620  30.0749040  85.8086872  72.7820539  29.9373198  85.7525158
  71.6868401  30.3427386  86.7153931  82.6103306  21.6520452  61.9714975
  83.2576847  21.5502000  61.2737942  81.8064022  21.2804127  61.6084290
  77.7644873  41.8993711  90.9913635  77.5271416  41.1704874  90.4181004
  78.5316372  41.5868664  91.4710045   3.4548516  34.9050856  71.0467100
   3.0073590  35.6561971  70.6570768   3.9505238  35.2743101  71.7776108
  64.2544174  46.4496374  90.3213120  64.2022133  47.3605108  90.6108189
  64.8366833  46.0300159  90.9546471  59.4874763  15.1781499  37.0417452
  60.3373241  15.1563227  37.4816513  58.8839674  15.5163598  37.7032757
 102.7135944  41.1934853  74.1708660 101.9648743  41.1304140  73.5778475
 103.2411385  41.9086981  73.8153458  89.0606976  31.5939236  58.8619041
  89.0279102  32.4351740  59.3173790  89.3001652  30.9631276  59.5408583
  86.8821812  40.1496315  91.0358047  87.5738716  40.1935482  90.3756046
  86.4493656  39.3113780  90.8738422 116.3731402  88.0408035   7.3684077
 115.5468530  88.0409561   6.8852000 116.3057822  87.2896062   7.9578070
  70.5557489  40.1121569  48.9466095  70.6307316  39.4554901  48.2542229
  69.7631788  40.6020212  48.7273073  64.8441315   7.5564033  45.5432558
  64.2334557   7.1966267  46.1865807  64.9318647   6.8672538  44.8847675
 112.7879715  54.5526505  59.8471498 112.2663689  55.3091764  59.5791578
 113.4925842  54.5065022  59.2009115  95.9453362  96.8442117  15.7296137
  96.2927216  96.2702475  16.4123396  96.3535994  97.6931010  15.8997397
  81.0895729  55.5515289  22.4312520  80.8264256  56.3198519  22.9378748
  80.3387833  54.9602461  22.4854732  51.3513947  14.9548984  67.9211330
  50.6322813  15.0172937  67.2924709  51.3381863  15.7926059  68.3840609
  57.8418255  36.4791775  53.4493446  57.9936457  36.7939377  54.3404722
  56.9082212  36.2693429  53.4252453  62.6649809  30.8196497  58.1568670
  62.7707624  31.5640736  58.7492132  62.0977831  31.1475635  57.4590206
  17.2665942  96.2992869   1.3554816  17.8837455  96.2489472   2.0854239
  17.4356998  97.1531592   0.9573130   2.7599568  29.1392994  90.0193596
   3.2539410  28.6069179  90.6428719   2.3335881  29.8055768  90.5583477
  61.5772676  14.6870041  70.9677601  62.0155954  15.0692534  70.2075100
  61.9788933  15.1222801  71.7197323 107.9172897  38.1101036  59.0601397
 107.4090767  38.6376309  59.6763134 107.9641914  37.2450948  59.4673204
  95.2423477  48.1422091  61.6954231  95.6214619  49.0069485  61.8526888
  95.7834625  47.5457668  62.2128057  67.7461290  35.4933667  53.7943554
  67.6729345  36.4456415  53.8579559  67.0478058  35.2392340  53.1910372
  80.4930782  17.6480567  60.0955343  80.7767010  16.9186759  60.6467104
  81.2382221  17.8162432  59.5187235  84.9987125  24.2408299  45.9916019
  85.3094673  24.5114160  45.1276350  85.5653858  23.5075235  46.2311220
  98.3104134  55.3082895  39.6689701  97.9746342  55.5448675  38.8043809
  98.0828094  54.3840075  39.7696209  98.9598674 106.8681775  11.4109473
  98.5321587 106.9436990  10.5579619  98.8292569 107.7232180  11.8209223
  59.4054413  13.5557389  68.8578987  60.0823402  13.7041295  69.5182180
  58.6144543  13.9409339  69.2349911  60.4168463  31.1022615  62.6517296
  59.7380066  30.8913398  63.2927608  60.6188154  32.0242000  62.8113174
  86.1728382  38.5002446  74.5277405  86.3544655  37.5859714  74.3101406
  85.7445049  38.4623814  75.3829145  85.0862789  38.7125421  42.3135900
  84.1821003  38.5819793  42.5993299  85.1407337  39.6463013  42.1102190
   7.7645171  95.3417311  20.6666522   7.3578513  96.1353789  21.0144667
   8.7037719  95.4812060  20.7874159  71.9755793  50.4206705  74.3701363
  72.3408604  51.1586618  74.8581600  71.5059233  50.8249187  73.6405897
  61.3051683 104.4019084  89.7570610  60.3762799 104.6133666  89.6638489
  61.5044194 103.8573210  88.9955139  99.5784664  28.8274574  48.5082817
 100.3720951  29.0376472  49.0004396  99.6710014  29.3103552  47.6870155
  84.2760372  37.3971987  38.2784867  84.3250656  36.8853354  37.4711299
  83.3610630  37.3277092  38.5509396  92.0928764  24.3332148  86.9502068
  92.6252079  24.1197968  86.1838436  91.4309025  24.9408412  86.6203308
  58.0108595  38.1451511  55.8054066  57.5471878  37.5396609  56.3838768
  57.3207569  38.5509753  55.2807188  33.4074908 104.8479610  53.7865734
  34.3172055 105.0745856  53.9796734  33.2510835 105.2080380  52.9135847
  62.5028992  31.0447407  85.5722046  63.3078814  31.2062216  85.0801086
  62.7163410  30.3086853  86.1457062  91.0577202  28.2605839  87.1061039
  91.8260002  28.7016153  86.7435169  90.4017162  28.3120060  86.4109612
  61.6885614  28.2533336  57.9497957  60.7424879  28.3976221  57.9309464
  62.0651102  29.1333580  57.9494238  88.5338688  13.1855428  74.7211266
  88.3228874  13.5459614  75.5824137  87.7221394  12.7702165  74.4298887
  64.7119904  48.1766748  77.2752571  63.9650393  47.8644085  77.7859211
  65.4784203  47.8729677  77.7616549 111.0772532 101.9331895   2.6239447
 112.0151204 101.8449651   2.4540858 110.6581706 101.6201316   1.8223242
  65.6292343  45.9630394  73.5007668  65.6295443  45.6082869  72.6117373
  64.7268152  45.8554411  73.8012600  67.3755121  30.7550216  71.3093901
  68.0785227  30.1191759  71.4424610  66.5706682  30.2463031  71.4077187
  65.5426216  22.3416448  50.8988047  65.7264757  23.1952047  51.2910604
  65.0418997  22.5440812  50.1085281  57.1453142   7.3283654  66.7280817
  57.8222513   6.8660432  66.2338734  57.6072788   7.6944768  67.4822569
  67.6118612  39.4997954  78.0475616  66.7504644  39.4407225  78.4607744
  67.8457451  40.4256964  78.1126738  78.2500267  23.0055761  82.1044350
  78.7806463  22.2091436  82.1236706  78.6122751  23.5173154  81.3811588
  52.4931335  40.0079250  92.3904324  52.9680014  39.2550302  92.7424049
  52.6039696  39.9390292  91.4421749  69.5578718  41.7395353  89.8641205
  70.4331732  41.4879084  90.1586723  69.4592905  41.3119221  89.0134335
  88.7183762   9.2028558  28.6787248  88.5261536   9.5375991  27.8028083
  89.6192646   8.8845640  28.6211205  98.5918063  78.9130197   7.6611571
  99.3166417  78.5902916   8.1965880  97.8724259  78.3080850   7.8422122
  84.7835636  58.6071777  81.7537689  84.2576981  59.0085602  81.0619640
  84.1467476  58.1538773  82.3062325  55.5766344  25.3940582  52.9751539
  55.5092430  24.8868251  52.1661997  54.7488785  25.8718252  53.0279446
  57.9111004  40.9609556  56.9734859  58.1700373  40.0488710  56.8420172
  57.8716993  41.0640764  57.9242992  86.6614437  50.2565908  77.9906225
  87.3872757  49.7587442  77.6144075  86.8002701  51.1522102  77.6826763
  63.0187082  23.7170076  52.7196932  63.9096737  24.0133333  52.9056978
  62.7593040  24.2113376  51.9421434  92.5290966  57.5301456  94.7675514
  92.0532036  57.4427271  93.9416504  93.1040764  56.7653656  94.7947884
  59.4301271  23.5899854  64.6996832  58.6833906  24.1805911  64.6006918
  59.4494867  23.3828855  65.6340122  47.9374599  47.6826668  91.0527611
  48.3404207  48.3385754  90.4838657  47.4694967  47.1010065  90.4536533
  89.4406414  24.2869854  56.5161657  88.6296654  23.8795590  56.2119341
  89.1940689  24.7371864  57.3240995  69.8415279  19.8939705  89.4049835
  69.3929291  19.0493679  89.4454670  69.2335653  20.5080581  89.8166943
  11.3263858  71.7853032   7.9863505  11.8604625  71.2659262   7.3853163
  11.1274780  72.5852524   7.4997859  63.7559748   5.0794423  61.0841894
  64.0544510   4.9375302  60.1858521  62.9303932   4.5983952  61.1410856
 104.5549488  80.8327579  79.1214514 104.8525333  81.4159012  79.8197460
 103.6027050  80.8118248  79.2164230  75.9099340  42.8242970  71.7394304
  75.6560135  42.0359373  72.2192717  75.2627659  43.4806395  71.9975233
  69.4841433  37.4788761  47.6766443  69.3438911  36.6312981  47.2545433
  69.5252466  37.2770405  48.6114168  80.4922581  34.5894980  65.0368214
  81.4350796  34.4284749  64.9994278  80.0986385  33.7179136  64.9964476
  55.2035999  30.0300026  69.7350931  55.4898787  30.5964041  69.0185261
  54.2489338  30.0204897  69.6661139  87.1119976  63.6930656  21.8456364
  87.1080685  64.1339588  22.6952410  86.1995792  63.4419489  21.7018914
  71.2050962  34.6761489  83.0528259  71.5888691  34.8829746  82.2006607
  71.5558672  33.8124752  83.2702065  64.8342752  12.3565996  59.8132896
  64.9749088  12.5757611  60.7343912  64.4997358  11.4598978  59.8288250
  79.5485258  84.8219776  84.3307018  79.5023298  85.7596397  84.5174503
  80.2808189  84.7350883  83.7204361  50.5104733  25.9608483  66.1528730
  49.8312283  25.5110836  66.6554308  51.2579346  25.3632140  66.1720800
 106.8410683  35.1502728  86.9065571 107.1588707  34.4810748  86.3004208
 107.0299816  34.7956514  87.7753448  54.1982079  22.9545975  76.6374111
  54.0534544  22.1708107  76.1073589  53.3306074  23.1805634  76.9727325
  68.5839224  19.0137374  56.1854744  68.9628887  18.2208693  56.5649128
  68.4192085  18.7862420  55.2704048  83.5329437  37.7599359  75.3680182
  83.5808277  38.0196643  74.4479752  82.6531219  37.3966432  75.4688549
  91.1455917  32.8386879  60.8355904  91.4931202  32.8188014  59.9439287
  91.7618656  32.3120832  61.3446426  23.8769782  86.1278592   4.0710120
  23.0835689  86.6210614   3.8625197  24.4763149  86.7803465   4.4333605
  95.3984070  44.8633194  66.6030550  96.2907600  45.2034044  66.6684818
  95.1686287  44.9697065  65.6799555  58.6668921  43.6031389  61.4310741
  58.9784956  44.4590616  61.7252302  58.8695049  43.0122614  62.1563625
 113.1944370  49.2840385  75.0015640 112.4256897  48.8774490  75.4014874
 113.8444996  49.3094397  75.7037067  90.0875282  35.5028653  49.4617653
  89.5952892  35.8583498  48.7217951  90.0276661  36.1792922  50.1363707
  90.4350471  71.8341541  83.1666946  89.9919319  72.1432495  83.9568424
  91.3529873  72.0713234  83.2985401  53.6981297  37.9446054  65.1859808
  53.4941626  38.8646126  65.0180006  52.9374599  37.4664879  64.8557997
  99.0943909  25.7910442  72.5930882  98.7660122  25.7962132  73.4921837
  99.4452190  26.6718102  72.4611664  83.4160042  31.2529373  63.2864285
  83.3226490  31.1342740  64.2316437  82.6083755  30.8937931  62.9190254
  97.0108223  18.0366492  63.1045675  96.6913986  18.0715692  64.0062237
  97.9643440  18.0472887  63.1876850  88.5962009  39.5570159  73.4155369
  88.7950802  40.3007507  73.9843416  87.6620960  39.3963313  73.5491848
   0.9186978  42.9877901  67.9012680   0.1186318  42.4668789  67.8321600
   0.6104607  43.8811016  68.0536366  59.7789431  55.0115776  79.1370058
  58.9249849  54.5800304  79.1095304  60.4077244  54.3091202  78.9714289
  58.3637476  44.2915678  75.0636530  57.5995111  44.8223925  75.2881432
  58.7312078  44.0314722  75.9083748 101.4000225  17.1212184  52.0169973
 101.2165260  17.8948069  52.5500250 101.3156223  16.3862884  52.6244402
  19.0442115 105.4912206  67.3766899  18.9783031 105.6617179  68.3162737
  18.2350331 105.8486806  67.0110607  96.2909794  35.5937362  80.3254509
  96.3342190  34.8220038  79.7608328  96.3808441  35.2465487  81.2129307
 105.4060268   8.6628091  54.6910334 105.6527138   7.9791433  54.0681505
 106.1047077   8.6542040  55.3452492  94.8465157  33.1004953  70.1707888
  94.2937660  33.4328413  70.8780670  94.6723747  32.1594429  70.1527357
 106.9489098  50.1224709  77.2529507 106.6639805  50.9657526  77.6049852
 106.1564350  49.7402000  76.8760204  61.2525940  10.7211769  93.9986801
  61.4009619  10.7569766  93.0537319  60.4069614  11.1515498  94.1248322
  97.4679011  79.7004877  15.6997923  97.5575179  80.6286298  15.4835562
  97.5724763  79.2483435  14.8626093  90.7391834  32.4713564  40.9218884
  91.4620590  32.0725322  41.4062595  90.9216404  32.2638750  40.0054312
  94.4442749  41.1988449  50.5445957  94.7662735  42.0071411  50.9436083
  94.2497253  41.4398146  49.6388865   7.1265919   5.9753322   0.5037455
   6.3082392   6.4388799   0.3258280   6.8615133   5.0661372   0.6427722
  67.3967552  38.5976362  51.2735271  67.0391273  39.4610929  51.0667038
  67.3261690  38.5309815  52.2257900  43.4796506 102.7754216  46.1882257
  44.1131669 103.4610801  46.3998079  42.6507073 103.0977868  46.5420008
  73.6323208  40.0053857   4.6398119  73.5519689  40.2566539   5.5599455
  73.0385965  39.2609583   4.5420985   7.5138408 109.7177295  22.0571232
   6.9052726 110.4327924  21.8712258   7.4582511 109.5962093  23.0049491
  98.4336376  15.7404721  61.1336803  97.9696369  16.4453864  60.6819773
  98.9445591  16.1850059  61.8101263  75.2601910  29.9760556  42.9399920
  74.5120144  29.4881058  43.2840395  74.9220085  30.8589411  42.7903795
  96.5645790  68.6224461  95.3221512  96.4489365  68.5540342  94.3744278
  95.7305717  68.3267736  95.6871700  71.7594576  47.7055216  80.2105808
  71.9024706  48.3106041  79.4828033  71.1224747  47.0743895  79.8756886
  72.8309631  34.7312689  78.7050343  73.4132195  34.0415764  79.0236712
  72.6970053  35.3006458  79.4627285  90.9442252  83.3472668  27.5387053
  90.4149169  82.6949440  27.9975562  90.3173560  84.0195595  27.2717051
  73.4179163  94.6122837  71.4591217  72.6377153  95.1313877  71.6541815
  73.8783789  95.1151562  70.7873106  65.4132700   6.8649560  71.9460487
  64.9141979   6.7677194  72.7570391  64.8235226   6.5472037  71.2623358
  13.2112771  77.2959744  92.2565842  13.5251409  78.1879698  92.4051285
  12.6026660  77.1331011  92.9772091  24.7387374  82.4596606   7.7830367
  24.3288005  83.3213602   7.8582816  25.3693164  82.4307571   8.5026030
  89.0145111  29.7343087  42.3671007  89.6543121  29.8687887  43.0662489
  89.0154648  28.7884402  42.2202492  78.3612585  36.6557908  76.9664764
  77.5878000  36.3870144  77.4622059  78.3060408  37.6109004  76.9356918
  92.2517586  50.7424736  61.4502907  92.0672989  50.6343555  62.3833084
  92.7347183  51.5670872  61.3956118  69.5793533  57.1236134  74.7449017
  69.5865488  56.6845083  73.8943911  68.7814331  57.6522493  74.7347832
 102.2732353  51.1639452  68.9195633 102.3640823  52.0748234  69.1993475
 102.8323460  50.6718254  69.5207644 103.7139434  89.0910660   0.4754023
 102.9775924  89.1452275  -0.1337667 103.5652703  88.2786403   0.9592299
 100.6307572  76.9210087   8.1888537 101.2958306  77.5846873   8.3717207
 101.1121482  76.0936676   8.1870417 113.0197716  21.9768476  56.9203663
 113.2738400  21.4547372  57.6813412 113.6042786  21.6823602  56.2218952
   3.2448906  28.8699508  62.3564529   3.0068058  28.2146645  63.0123091
   3.8916344  28.4314609  61.8035603  72.1254873  38.4731603  78.6557674
  71.5545845  39.0378785  79.1767168  72.8160238  39.0562057  78.3404064
  50.2624130  62.3958254  90.0072098  50.3244305  62.5183296  90.9545040
  51.0557652  62.8039837  89.6604633  42.8979635  22.2157550  85.1741695
  42.0311785  22.5994897  85.3070831  43.0653238  22.3207521  84.2375851
 108.0600036   8.9762353   9.3271975 107.4385178   8.8428401   8.6115222
 108.2582867   8.0935382   9.6398787  80.2034855  62.2155190  49.9651814
  80.4084396  61.8966866  50.8441448  80.8396244  62.9135370  49.8092175
  54.2252350  64.3114042  76.6928387  53.3339119  64.2545462  76.3485479
  54.4306707  63.4198284  76.9741201  91.3645267  17.8088796  69.1020250
  91.9612408  17.2865391  69.6380472  91.0995388  17.2200000  68.3954573
  20.5644668  80.3415142  10.7663016  20.3894008  80.0835787   9.8612837
  19.9949325  79.7782503  11.2903265  84.9019718  25.1802707  64.6782637
  84.2188549  24.7242785  64.1866732  84.4239044  25.7275796  65.3012705
  75.1794052  36.6832137  57.4742079  75.1090288  36.2329769  58.3159733
  74.8867416  37.5764346  57.6551485  26.8455947  91.7316542   9.6504931
  26.9250167  90.7816444   9.5644145  27.7492774  92.0458542   9.6799807
  69.6659565  46.1407518  79.1867304  68.8704586  46.0872555  79.7164106
  69.3541956  46.1075401  78.2823324  85.1494503  59.6809006  66.1254072
  85.4562283  58.8113832  65.8684063  85.9503651  60.1779985  66.2916946
  43.2748938  46.1878633  91.5448380  42.9283047  45.2958727  91.5661907
  44.2221260  46.0749435  91.4659023 111.8711948  69.9609327  82.5819016
 111.3184643  70.0374508  81.8041706 112.3795605  69.1629553  82.4368763
  76.0548687  57.8925848  90.0550365  76.6066599  58.0514526  89.2891884
  75.2626181  57.4894810  89.6999550  85.9284973  40.8119583  87.7782536
  84.9985123  40.5885553  87.7400589  85.9634209  41.7354202  87.5288105
  89.2971230  15.7114172  38.0391598  88.6091614  16.3342607  37.8046060
  89.8746586  15.6938624  37.2760296  93.6789703  36.4468145  56.4445496
  92.9194736  36.0226464  56.8438911  93.6509895  37.3457909  56.7720985
  96.0561085  36.5000415  84.8296356  95.3869057  37.1840572  84.8524189
  96.4882278  36.5592551  85.6816959  74.0893841  37.7532649  43.8877249
  74.4690323  38.4647250  44.4034052  73.5439014  37.2714639  44.5094490
  55.5133992 101.6050946  91.1325741  55.1904183 101.0243123  90.4436588
  56.3229257 101.9716202  90.7768345   1.0914368  44.4416046  48.2994890
   0.3114170  44.6558046  48.8112593   0.9877056  43.5154533  48.0810499
  60.3986597  42.0496702  73.2501268  59.7664547  41.9369221  73.9599419
  60.4467154  41.1893463  72.8332806  81.6387653  56.4164448  85.3334808
  81.1091232  57.1751547  85.0883865  81.6418648  56.4256382  86.2906361
  79.7849721  96.9047271  -0.2033754  79.4753570  97.7107917   0.2096896
  80.3152102  96.4788113   0.4701762  95.0663280  28.9920735  36.6861773
  95.6134510  29.7650075  36.5466738  94.4736576  28.9793420  35.9346342
 104.6083260  50.8923388  60.9980774 103.7654877  50.4473972  60.9093237
 104.9143887  50.6533289  61.8729687 104.1476822  44.9312830  48.2978344
 104.0562916  45.5420971  49.0291262 103.2520294  44.6558189  48.1024885
  90.9598351  43.9479685  79.0296030  91.7818832  43.8953590  78.5420704
  90.4634285  43.1803799  78.7456608  81.1197853  53.2712126  57.1414566
  81.6802883  54.0110350  57.3754072  80.2393818  53.6437178  57.0928478
  70.9399652  57.6920366  79.8483515  70.3163958  57.2799540  79.2503738
  70.4662848  57.7624989  80.6771469  87.3182487  51.8546963  50.9518003
  87.7280712  51.0398626  50.6614065  88.0506134  52.4066353  51.2261057
 113.7245482  88.8555489   3.0481581 113.8007993  89.5503364   2.3941855
 112.8018683  88.8664041   3.3026747  83.3124924  35.3741550  89.0128613
  83.0706406  34.9580145  89.8402500  84.2589760  35.2467513  88.9483547
  82.4176025  51.4525652  53.4269190  82.8489113  52.2356844  53.0849743
  82.6829147  51.4149380  54.3458462  53.6164839   5.1833391   0.2514700
  53.3065397   5.4443692   1.1186652  53.2343371   4.3169975   0.1112895
  78.6669874  37.5659537  55.9808731  79.2568111  37.2086549  56.6447067
  77.8856945  37.0154524  56.0334063  84.7231197   6.5433538  49.6675634
  85.1479149   5.7559741  50.0078773  84.5470524   6.3422745  48.7484312
  82.0729512  94.0404974   0.8162646  81.8572921  93.5904179   1.6330580
  82.0592612  94.9700652   1.0441927  84.2536449  56.9367933  73.1146336
  85.0874329  56.5716553  73.4107685  84.3240547  56.9513273  72.1601343
 103.9424867 106.2422047   7.3346095 104.1704959 106.6972743   8.1452612
 103.4978026 106.9042121   6.8052439  70.8830118  50.8863783  43.0488205
  71.1297941  51.8053865  42.9451323  71.4447594  50.5656719  43.7543869
  27.6426948  70.4787980   3.1641631  28.0465091  70.7380389   2.3359446
  28.3761848  70.4008160   3.7741999  61.0397434  50.9176064  90.2232838
  61.5469217  51.7193270  90.0958252  60.6952238  50.7114553  89.3543530
  85.9198856  39.1660738  80.6843090  86.5490627  39.8856354  80.7352829
  85.0655460  39.5966601  80.6536579  75.1631546  61.7704678  75.9125996
  75.5493021  60.9687567  76.2652826  75.7375193  62.4700403  76.2239504
  11.4256061  68.2662605   2.3980097  11.6970885  69.1841446   2.4020247
  10.5170978  68.2865153   2.0972781  77.3007965  29.6377873  67.2008657
  77.8053522  30.1529193  66.5713453  77.8856468  28.9213085  67.4475145
  73.3709192  58.5733604  76.5997839  72.8715229  59.2822695  77.0051098
  72.7109814  57.9240227  76.3567400  91.4744282   8.2457477  80.8820152
  91.7248440   7.3525417  81.1180401  91.1015701   8.6100215  81.6848278
  61.0976839  39.6354651  63.9666080  60.6306410  38.9165831  64.3924141
  62.0192289  39.4767666  64.1710567  84.7956085  45.4932213  60.2504063
  84.9408817  44.5492792  60.3144693  85.6561565  45.8795738  60.4129791
  86.9865990  56.8904638  74.7431374  87.6133728  56.7523193  75.4532814
  86.5517235  57.7139902  74.9643230  44.8937208   6.8669223  -0.1788087
  45.0971777   6.5646028   0.7063155  43.9437468   6.9843339  -0.1793523
  80.7827854  53.8509321  69.8332977  81.4869595  54.0923452  70.4350424
  81.0784245  54.1670275  68.9795351  83.7370682  58.8949203  85.1737022
  82.8854942  58.9769936  84.7443867  83.5808754  59.1838551  86.0727787
  97.2291183  52.0298433  84.9224091  96.3799667  52.0548201  84.4813251
  97.0883465  51.4634752  85.6811142  81.5536404  67.8481150  66.4999628
  81.6452789  67.5724983  65.5878973  81.1102581  67.1157598  66.9280958
   2.2451348  41.9536352  79.5168161   3.1420273  41.6578341  79.3608665
   1.7594857  41.1525393  79.7133493  75.2485275  42.6975727  33.7823749
  74.7800827  41.9716930  34.1945577  74.5634651  43.2154655  33.3596373
  91.1607647  33.7797213  28.3642054  91.3980198  33.2392168  27.6106811
  90.2541637  34.0378523  28.1978512  89.4919014  50.8525610  39.8991537
  90.3310490  51.1275196  40.2685642  89.2718792  51.5379381  39.2682195
  60.8837461  57.5534868  47.7286530  60.6548500  58.1439638  48.4464121
  60.0430012  57.2194052  47.4159670  77.2828579  37.9925942  82.5747776
  77.9573202  38.4817910  83.0459690  77.7515936  37.5720119  81.8539238
  75.8777475  41.8464041  69.2774057  75.9220457  42.3596048  68.4706211
  76.0010290  42.4883223  69.9766684  68.9295340  46.4986086  76.6521883
  69.3642950  47.2830153  76.3176346  68.0092382  46.6159105  76.4165449
  40.3948576  29.8869371   1.7974810  40.7628519  29.0848874   2.1683459
  40.9887917  30.1145314   1.0821681 114.4375420  96.4368916  48.2662535
 114.0542507  96.9793797  47.5770330 114.4059372  96.9866657  49.0491867
  98.3652020  34.6279836  51.2000179  98.1945610  33.8439178  50.6781387
  97.7424335  35.2756262  50.8699274  79.9578571  65.2366018  65.8352280
  80.4852390  64.5119858  65.4990244  79.2515850  64.8127317  66.3228178
  90.4737949  59.1203403  68.8927269  89.5478153  58.8778782  68.8943720
  90.5022049  59.9605227  69.3504572  80.1572990  66.8241882  54.8127031
  79.9300003  67.7383709  54.6429062  79.3873358  66.4636421  55.2524710
  76.1088037  57.0565319  28.4312987  76.0698652  57.3685789  29.3353701
  76.0530710  57.8514194  27.9009461  78.5438251  27.1796799  74.2033243
  79.0991831  27.6094389  74.8537970  79.1544294  26.8689275  73.5348701
  79.2960215  31.5858483  60.7138586  80.0545025  32.0218062  60.3254271
  78.6383200  31.5846133  60.0184011  78.5941601  35.3315759  53.7445736
  78.1330252  34.4977021  53.8353634  78.0440187  35.9614420  54.2102385
  77.1077204  45.8454180  82.0189381  77.5225258  46.6928339  82.1803379
  76.2841225  46.0613203  81.5815544  78.2780313  50.4004097  53.8583040
  78.2008410  51.3162994  53.5910559  79.1193104  50.3535271  54.3124914
  75.4293013  56.5806246  62.4049425  75.1433849  56.8142748  63.2880592
  76.0258722  55.8432055  62.5335884  84.1777706  71.3910389  80.3932095
  85.0425529  71.7945957  80.4675674  84.2171288  70.6315041  80.9744167
 100.0453663  52.0472002  84.9277878 100.3742695  52.4697542  85.7211971
  99.1004658  52.1985960  84.9499035 113.8289070  77.2641373  88.2999516
 114.1708088  76.9307089  87.4703979 114.1467476  76.6442823  88.9564610
  90.1858425  59.7686625  76.0680199  90.4212856  59.2062998  76.8059540
  90.1231098  59.1716862  75.3224182 110.6960869  60.2543831  53.3776236
 110.5416012  59.3140984  53.2869053 111.1348152  60.3445005  54.2235708
  85.3435135  62.2597599  69.4983196  84.6294117  62.2374105  68.8613033
  85.7635403  61.4034557  69.4174051  80.8225346  72.7354097  75.7007885
  81.4384842  72.0283222  75.5087852  80.4850292  72.5289583  76.5723991
  58.2500839  64.2718887  47.9988813  58.0265236  63.3457613  48.0913067
  59.0824509  64.3647623  48.4623241 100.1423454  23.8394690  92.0640278
  99.5952034  24.5819759  92.3200512 100.4172707  23.4474874  92.8928852
  79.9187374  65.0253630  77.9675627  79.4505978  64.3387079  78.4425211
  80.8400440  64.7727823  78.0277872  93.3872604  81.8590450  87.1212864
  93.2634068  82.3374939  87.9410362  93.2600021  82.5173664  86.4381599
  92.3363781  31.3161707  93.8965702  92.3652554  30.4068089  94.1939831
  91.7309952  31.3065839  93.1551933  84.8661900  39.2839503  63.8349009
  84.1437626  38.9236665  64.3492174  85.5728531  39.4078660  64.4685507
  55.8878691   1.1536121  22.8940539  55.3103239   1.5583610  22.2468714
  56.7247755   1.0553502  22.4400000  89.8229885  44.9540663  81.3849354
  89.1987896  45.5022097  80.9093761  90.1029110  44.2994785  80.7450962
  83.5472584  55.3798866  65.4864836  84.1723156  54.6804476  65.6770754
  82.7671051  55.1477242  65.9901619  64.4573099  16.8578052   1.6352515
  64.9853689  16.1882543   1.2004046  64.6740896  16.7684602   2.5632910
  20.8507771  33.4840417  84.3293190  21.8022293  33.4884381  84.4339848
  20.7120842  33.6304379  83.3936024  41.6722662  36.3134527  16.4601569
  41.9741518  35.9289598  15.6371932  40.7335980  36.1272477  16.4814047
  90.3258514  41.7026472  54.4235134  89.5434570  42.1043062  54.0456724
  90.9536076  42.4217272  54.4947910   4.8245681  92.7287708   5.0032477
   4.9254573  93.6563168   4.7894339   5.7156814  92.3798905   4.9824767
   2.5266117  32.5074792  71.1059666   2.9296536  33.3713722  71.0194683
   1.6834015  32.5909042  70.6607008 107.3112601 100.1351558  19.7797350
 106.9151229 100.1128016  18.9086394 106.5768546 100.2936469  20.3728346
  33.4386379   0.3587531   2.0503859  33.6618120  -0.0617791   2.8807978
  32.8220541  -0.2439976   1.6347746  96.6866493  38.6688900  66.1850643
  97.5083733  38.7043548  65.6954288  96.4266014  39.5848441  66.2832212
  68.0802822  52.6676416  88.4002399  68.5712337  53.1470633  87.7328873
  68.5046768  51.8106031  88.4402943  50.9920580  24.0497064   5.0019125
  50.3327353  24.2833947   4.3485217  50.7201273  24.5143508   5.7933669
 109.2274284  52.2081852  72.7176523 109.9383163  52.3701763  72.0974636
 108.7512398  51.4649773  72.3473597  76.7070532  73.3187819  71.4566851
  76.7211819  72.5488520  72.0252228  75.8244181  73.6750793  71.5578747
  78.7373590  67.9619551  51.9138718  79.2131710  67.1442842  52.0596266
  78.8598967  68.4579325  52.7233315  63.1553268  33.4404469  74.8925209
  63.9846659  33.4184313  75.3699493  62.9307842  34.3697357  74.8452234
 101.5533161  53.8886452  47.2566271 101.7452240  53.1667662  47.8552008
 101.3696575  54.6328163  47.8299618  95.3827781  94.5344578  20.5412726
  94.8136014  94.0980779  21.1751894  96.2157935  94.0674196  20.6060557
   5.4285664  58.9940166  37.1872687   5.3533692  58.1634140  36.7175055
   5.2109474  59.6591091  36.5341735  93.2046604  42.4017334  92.0268917
  92.2944546  42.1398830  91.8883514  93.5461044  42.5563765  91.1461353
   7.6471752  49.6060085  87.5645161   8.1132550  48.9797020  88.1183529
   7.8294319  49.3170071  86.6703701  70.3553581  51.1646605  81.1443329
  70.8170986  50.4677868  81.6105843  70.0380898  51.7458773  81.8355370
 103.3915615  31.2479544  76.9403458 103.6369324  31.9122314  76.2963247
 104.1302204  31.2195373  77.5484514  47.9083872  42.1621275  90.3843594
  48.1992817  41.3715696  89.9297905  47.1285629  42.4411106  89.9044895
  71.3988924  44.9089861  69.4006920  71.7830086  44.0906763  69.7154284
  70.4874897  44.8729944  69.6910000  75.1177645  37.3263144  81.0846329
  75.7107735  37.5856757  81.7898369  74.5838118  38.1040311  80.9225082
  96.7657280  48.7532520  25.2507186  96.9735432  49.6085358  25.6269336
  96.1081600  48.3853197  25.8410192 113.3525372  33.3821917  39.8009348
 113.6371613  34.2463350  40.0983810 113.5405827  32.8012252  40.5380583
 107.9468918  16.5657485  93.6095715 108.6153507  17.2044599  93.8574314
 107.7049065  16.8070400  92.7154446 107.2815990  77.1891785  83.6834335
 106.3996506  76.8185234  83.7153721 107.8527451  76.4725208  83.9598751
  84.5214558  66.5145159  93.6470222  84.7960186  65.5976725  93.6623859
  85.2238560  66.9824839  94.0985394  93.9330482  69.5317030  74.6429205
  93.5136032  70.2059889  74.1084766  94.7223186  69.9526930  74.9835825
  88.6739826  68.9380360  72.7830172  89.5581150  69.2874193  72.8946924
  88.8006687  67.9952240  72.6767921 105.6537342  48.2677174  55.6737518
 105.9259605  49.1832066  55.6104231 105.0432301  48.1485033  54.9462175
 108.1135368  87.9745102  25.1681709 108.8126373  88.2573509  24.5786881
 107.3749733  88.5447884  24.9548101  81.7030716  49.4104481  63.3479881
  82.2175026  49.1225290  64.1021013  82.3357391  49.4602919  62.6314163
  77.7840710  56.9245625  76.4479828  77.1367884  57.3228359  77.0299006
  77.3030949  56.7488432  75.6392670  63.9729118  64.2693901  50.3511620
  63.8373041  64.8603010  51.0918808  63.7340689  64.7888851  49.5834923
  54.1430092  49.9032497  91.1671352  55.0652695  50.0273848  90.9429550
  54.0811348  48.9838457  91.4261723  36.7226250  20.9370040  10.7220034
  36.8392403  20.2790021  11.4073233  35.7741577  21.0467290  10.6542067
  75.0480032  34.8017979  92.3505116  75.5317974  35.3685999  92.9512691
  75.3778553  33.9220190  92.5333118 108.8980484  44.5612860  77.4494457
 108.4159946  45.3018475  77.8174496 109.2261505  44.8826170  76.6096115
  95.5829239  34.7077060  29.2063355  94.9631214  35.2156019  29.7298908
  95.9700012  34.0895987  29.8262930 101.7595482  45.1033545  76.1735678
 100.8783817  45.4697609  76.2479591 101.6503143  44.1740322  76.3752127
  74.2535925  47.0151091  94.7938824  74.6538019  46.6848326  95.5982304
  73.3131123  46.8993330  94.9292564 106.6275901  92.0921312   1.8157343
 106.3203162  92.8792535   1.3660006 107.1245593  91.6151343   1.1511092
  87.4547863  40.0624466  65.3854990  87.8693962  40.3727627  66.1905003
  87.8202915  39.1883063  65.2494192  96.3123530  65.2442597   7.8023581
  95.9033460  66.0666834   8.0717330  97.2239417  65.4767106   7.6256995
  69.4025040  50.8872986  85.7714939  69.7401381  50.6315899  86.6298962
  69.9206114  51.6548491  85.5292797 107.0800209  56.3908863  67.6075697
 106.3371277  56.0323477  67.1219969 106.7774677  57.2470093  67.9104662
   5.8957703  24.5534324  19.4427161   5.9618599  25.4326772  19.0701727
   5.6127865  24.0041971  18.7116293 103.3074760  46.3572025  74.4663477
 102.7505684  46.0898972  75.1975346 104.0970421  46.7046499  74.8811913
   1.3839764  62.6982498  68.2007694   0.7671685  63.3200645  67.8146029
   1.0719818  61.8406677  67.9119110  75.2118301  35.1564574  59.9017143
  75.2905989  35.9429216  60.4416275  75.2674675  34.4317722  60.5245829
  81.6539097  39.3629074  71.8401051  81.7185211  39.9115157  71.0583878
  82.0816708  39.8738170  72.5272894 107.7245331  60.7606411  74.7331667
 107.3344803  61.0791111  73.9191198 107.0411682  60.8865452  75.3914928
  86.7618179  33.9580083  60.2332163  86.1620426  33.7206149  60.9404230
  86.6221905  33.2867336  59.5652866  94.4271946  60.6085587  44.2404699
  95.1275158  59.9590874  44.3034267  94.8060226  61.3199902  43.7241459
  68.7861156  43.6447096  87.1075344  68.6271763  42.7884674  87.5047970
  68.0820274  44.1991663  87.4437904  24.6854747  94.4984971  12.4604659
  24.5761741  93.7425051  11.8836169  25.4430831  94.9633084  12.1051936
 112.4093723  55.7207823  29.6099401 111.8410301  55.2374315  29.0102816
 112.0700359  55.5138016  30.4807115  75.1889944  58.5773754  34.7964287
  74.3169355  58.9339924  34.9654627  75.1383734  57.6692820  35.0948238
  93.0793953  60.2347040  52.9908848  92.9856777  61.0822773  53.4257126
  93.7499046  60.3807068  52.3235559  80.8949852  27.1533060  90.5921555
  81.4434814  26.9107294  89.8461342  80.9212494  26.3886881  91.1674023
  91.4103889  11.2665963  68.2889318  90.9533024  10.6340885  67.7346468
  92.2760296  11.3533330  67.8897190  69.8957872  10.5723405  79.0960169
  68.9388037  10.5857801  79.0808630  70.1411581  11.4154339  79.4770908
  44.9085760  25.1688409  92.2051620  44.2876625  25.8368754  92.4957275
  45.6823778  25.6627798  91.9340801 109.7140283  93.6802398   3.5224490
 109.9705953  93.0609976   4.2057852 110.2339190  94.4636975   3.7017207
 104.8541451  71.4222670  87.6849079 105.7950783  71.2493181  87.6540756
 104.5975780  71.5155792  86.7674732 111.8536854  50.8904552  70.4913807
 112.7833176  51.0657406  70.6372643 111.6485977  50.1721144  71.0898399
  77.9223108  48.0440664  85.7993984  78.0656815  47.1148252  85.6200123
  78.7569523  48.3512354  86.1533165  94.1743851  52.5956154  61.2525368
  94.6698093  51.9124460  60.8008051  94.8237228  53.2698393  61.4525509
 115.0074291  35.9290862  84.5523548 114.9630070  35.5275035  85.4201031
 114.1160870  35.8597040  84.2104053  99.2201042  56.6919899  73.8509750
  98.7387371  55.8705854  73.7519121  99.0090370  57.1900272  73.0612659
  72.8507710  76.1813831  87.0034599  72.2636652  76.6106558  86.3811588
  73.6625624  76.0481596  86.5141010  76.8041468  43.4376574  31.2061000
  76.0038900  43.0785036  31.5892887  77.4007416  42.6909447  31.1538696
  81.3894176  49.8401022  73.1925297  80.9355736  49.8548841  74.0351677
  80.7069397  50.0323486  72.5494957   2.0949138  96.4693747   7.9607539
   2.3107017  96.4550601   8.8932089   2.9156745  96.2465297   7.5215296
  66.2652445  35.7093835  48.7347412  65.8225155  35.0860286  49.3106318
  66.6130781  36.3766670  49.3263292  73.1130743  64.1054296  48.3007812
  72.4590015  64.3494463  47.6458931  72.9514170  64.6995306  49.0336847
  93.7145424  38.5583091  76.3595581  93.5001183  37.9156232  77.0357323
  93.7181568  38.0563426  75.5445433  80.7326698  28.5351372  59.4874811
  81.1759186  28.7312222  60.3129005  81.4423943  28.3480716  58.8730478
  77.9561996  21.1337614  90.8076477  77.8155470  20.5303431  91.5372658
  77.4515247  20.7586956  90.0859451  81.3447475  55.6720734  92.0498466
  81.7913055  55.6354332  92.8956985  81.3646698  54.7703838  91.7292309
  77.1328926  44.3390608  59.4097853  76.5849829  44.6191597  60.1429749
  78.0252743  44.3617916  59.7552824  62.4653912  59.5795488  81.5729809
  61.9830704  58.7704039  81.4030170  63.0894470  59.3465090  82.2603512
 102.2696209  27.3947215  52.0057392 102.1630096  26.5028429  51.6749573
 101.9116497  27.3654938  52.8930044  86.1212635  53.5196924  55.5368042
  86.2585449  52.6085663  55.2775145  85.5190659  53.4693241  56.2791395
  75.6112862  42.3379040  46.1983252  75.3107023  42.7686691  45.3981256
  76.3711357  42.8500223  46.4750862  76.8808985  33.3013105  78.8923168
  76.5845919  34.1582870  79.1989517  76.1220789  32.9334688  78.4394169
  89.3813038  25.5320406  21.7820811  88.9663506  25.7436824  20.9458685
  89.1788960  24.6071005  21.9225931  96.5403652  55.7094240  30.7691789
  96.8268776  56.5295124  30.3671908  96.3062382  55.9509373  31.6653299
  70.0233555  35.5523229  74.0890694  69.9156809  35.6877065  75.0305128
  70.5220413  34.7382426  74.0196514  85.8008480  38.2842922  52.9191160
  86.2829971  38.7721086  52.2514296  85.4008102  38.9595962  53.4669876
 110.7950878  51.7039919  81.9067860 110.2761555  52.0721054  81.1916351
 111.0226440  52.4582148  82.4504757  94.2915154  78.9460897  82.8988171
  93.5569859  78.6481237  82.3622417  93.9404678  78.9783049  83.7887478
 113.6651582  93.7356387   2.8126864 114.4645041  94.1241465   2.4572424
 113.0585736  94.4712220   2.8975634  74.8692799  35.7375789  72.0179176
  75.5705357  35.1845789  71.6734457  74.4941521  36.1583495  71.2443161
  75.5531359  43.5769558  65.9312487  75.3909779  42.6605129  65.7074785
  74.9046898  44.0656281  65.4243422  47.5518179  24.9031234  76.8402433
  47.5767374  24.1728210  76.2219620  48.4720182  25.1050234  77.0096540
  94.5100975  32.4553180  63.1232977  93.6000633  32.1691608  63.0446720
  94.9284458  31.7795014  63.6566734  79.1711521  69.4691372  82.2488976
  78.6251974  69.3997335  81.4657402  78.6425781  69.0784264  82.9447365
  98.7292671  37.4255323  80.0076866  98.4953022  38.1357098  79.4100761
  97.9230595  37.2433591  80.4904556  67.9175901  37.8290153  75.7400608
  68.7152386  37.4585342  76.1178637  67.7014065  38.5655499  76.3119125
  96.5789127  54.2472744  80.9503937  96.0250854  53.5658312  81.3313675
  96.0365868  55.0357628  80.9706020  90.8313084  75.8160162  69.4502211
  91.3652897  75.6839848  70.2335882  91.2882519  76.5005255  68.9614582
   4.8323769  50.4184771  42.0131111   5.6432957  50.8888149  42.2065830
   4.4929165  50.8408785  41.2240791  91.4793301  52.0596457  82.6590061
  91.6461658  51.7158079  83.5366058  90.9040737  52.8112936  82.8016186
 105.4304600  87.0524120  89.7651386 105.5922222  86.2133217  90.1963997
 106.2878418  87.3214531  89.4353962  84.1534328  46.6262245  77.5005531
  84.1328907  46.5190458  78.4515142  84.8128605  45.9994125  77.2030735
 105.6712246  81.9858646  81.3535500 106.1566257  82.6393414  80.8499813
 105.5184078  82.4022102  82.2018051  60.2573473   7.0598411   5.1892905
  59.4505484   7.5248765   4.9678378  60.3368647   7.1566963   6.1382536
  91.5290928  58.6987448  83.0381680  92.4569798  58.7340546  83.2705688
  91.1697292  59.5251322  83.3609295  85.4284477  60.9753561  84.4721413
  84.9405289  60.2377415  84.8383331  85.2891922  60.9092903  83.5274315
  94.4444752  75.4612541  85.2535343  94.1496086  75.5438948  84.3466377
  94.9717045  76.2454081  85.4063702  39.3013127  22.0594024  13.4502272
  39.0558750  21.2438249  13.0133872  38.4944088  22.5740194  13.4676127
  76.5305948  39.3909311  65.4393625  76.8306541  38.5117531  65.2086210
  76.2966061  39.3287921  66.3654423  94.9903774  72.0034885  77.7431822
  94.0615082  72.1947241  77.6133156  95.4457855  72.6523829  77.2067451
   1.1599869  80.4516602  84.4477654   1.7057843  79.7144604  84.7214031
   1.7766899  81.0794735  84.0712547   5.8029217  77.3748970  67.7481937
   6.2819428  77.9628992  67.1642208   5.1891941  77.9449987  68.2113886
  99.8560715  52.3531103  62.8782320  99.0019226  52.5708294  63.2514095
 100.4426193  53.0330229  63.2097435  12.9214520  62.6585054  66.9336843
  12.6147599  62.7092791  66.0283709  13.6378044  62.0241165  66.9086599
  96.4090347  86.9099903  73.2440615  96.5060902  86.6385078  72.3313141
  97.1580791  86.5167427  73.6918497  74.7448826  48.6977816  92.3166656
  74.6323299  48.7058210  93.2671928  75.6781816  48.8643265  92.1845722
  87.3754978  62.0617485  74.1367626  87.6369858  61.9683313  75.0528049
  87.4947643  62.9924154  73.9473534 100.5847549  87.1187592  38.1191182
 101.2646961  86.9742775  37.4610639 100.7660675  87.9935360  38.4627914
 109.4002533  46.5308666  89.5958042 109.3928146  47.3981142  90.0008488
 108.6962032  46.5629768  88.9481163   0.2530426  76.1851645  73.0989695
  -0.5665928  76.3342285  72.6275826   0.9062905  76.0614443  72.4103451
  91.0883999  41.4912319  71.9933701  91.7847633  41.1819410  72.5727129
  90.2820683  41.3418341  72.4870872  55.6810999  61.1698961  79.7693920
  55.3288889  61.2075996  80.6586361  56.2689257  61.9231892  79.7124672
  16.1899895  94.9154854  88.5301304  16.1421723  94.8321438  89.4824982
  15.5194229  95.5629253  88.3123970 115.8037376  84.6256351  74.2061615
 115.9416389  85.4716015  74.6322489 116.2836075  84.6922016  73.3806181
  87.6311493  48.7990427  94.6795464  87.2591496  48.9464474  95.5490971
  87.1391392  48.0554056  94.3314648  88.8082695  56.4359903  72.4323082
  88.1785583  56.6506863  73.1204939  89.0056896  55.5093813  72.5688887
  84.4492054  75.6136894  75.3369951  85.3486061  75.4191923  75.0734138
  84.4613171  76.5440893  75.5615902 107.3986149  66.0406065  57.8585243
 106.7264271  66.6199684  58.2173204 107.4855137  66.3116789  56.9446325
  90.3622055  78.0673265  72.9424381  90.1572037  78.9593410  72.6622248
  91.0639286  77.7870083  72.3548651  92.8799248  99.4179344  76.0060358
  92.7840137  98.5170269  76.3148975  93.6854744  99.4094181  75.4890728
 106.1827070   5.2792453   7.4045043 105.6885130   4.6853637   7.9695849
 105.7563765   5.2074622   6.5504984 109.2436028  82.1316242  38.3582330
 109.2704105  81.2217522  38.0621815 108.3718681  82.2336388  38.7401938
  94.0669346  56.8924332  78.6372948  94.8489666  56.7881107  78.0952835
  94.0292835  56.0915089  79.1601086  75.5413055  65.1739168  41.7111969
  76.3244963  65.7199144  41.7799759  74.8453140  65.7833385  41.4653730
 106.4680004  82.1737671  39.1550469 106.0586643  82.4281502  38.3280277
 106.0242939  82.7058506  39.8155379 107.6997280  76.5194559  60.4266882
 107.1072102  76.1667538  61.0905886 107.2182941  77.2510290  60.0403500
  19.3862290  64.1818857  44.0280199  18.6514706  64.7943735  43.9930916
  19.3452687  63.8086510  44.9084997 114.8277855  60.8801174  56.3836813
 114.0653038  60.9523392  55.8095360 114.7246742  61.5965557  57.0100355
  97.9118616   3.4504651   0.3019290  97.0153029   3.7818908   0.3526644
  98.4596808   4.2108297   0.4967837  78.6130285  65.8071184  93.1497955
  78.4200430  64.8735380  93.2359028  78.6567688  65.9565306  92.2053432
  94.3007183  59.6644115  57.3534775  95.1106739  59.1648102  57.4564648
  93.9617443  59.7572756  58.2438135  87.9724693  67.0144129  86.5352821
  88.2508469  66.8967915  87.4435234  87.9937267  66.1331606  86.1622238
 108.0688667  59.6849012  70.3972387 107.4858570  60.3832531  70.0995302
 108.6788654  60.1198483  70.9930229  93.9602184  53.1409025  87.5857067
  93.3250618  53.4656239  88.2239532  94.7218513  53.7103367  87.6947498
  85.6948280  34.6533632  82.1849155  85.9676170  33.7999177  81.8480968
  85.0075912  34.9397492  81.5833187  98.0008125  54.6385622  72.9042387
  97.9089451  54.0293407  73.6367941  97.1839809  54.5479918  72.4135208
  92.4151707  52.0149374  95.3619385  92.3700714  51.1750460  95.8188725
  93.1738186  51.9327831  94.7840691   2.3125500  48.3869553  85.1986217
   2.4564118  47.5958061  84.6793747   3.0531735  48.9534235  84.9822521
  81.6706562  63.1997871  64.6683741  82.5529003  62.9159546  64.4289589
  81.0908222  62.6478577  64.1435957 105.8133602  55.7773972  44.1490555
 104.8966599  55.6633234  44.3998241 106.3077831  55.3461313  44.8460388
  69.1490919  33.7366914   3.8050799  69.8916704  34.3383550   3.7519698
  69.1302950  33.4597158   4.7211413 102.5659275  40.7515526  64.1605330
 103.3152676  40.2673531  63.8137293 101.8772125  40.6268692  63.5075712
 100.2615452  69.5642614  93.0001640 100.6968975  68.7683105  92.6949406
  99.5238209  69.6785259  92.4010468 110.2196407  69.4695234  73.1561804
 111.0994053  69.2578077  73.4683132 109.7457981  68.6386824  73.1936789
  99.7985363  73.7706995  84.5792866 100.7245922  73.8337517  84.8131180
  99.3762493  74.4659805  85.0837612 109.1185570 105.9120083  85.6999302
 108.4948635 105.7527447  84.9915028 108.5842037 106.2523746  86.4174652
 114.4081974  51.7975950  70.8088779 114.8566628  51.7605019  71.6537094
 114.9797726  52.3320055  70.2575684 114.4049072  98.0801392  86.1827374
 115.1415825  97.6259518  86.5917015 113.7078476  97.4249458  86.1501217
  78.5771799  56.7990112  70.3588867  77.8784180  57.1238756  69.7910643
  79.3330002  57.3462677  70.1456261  86.1946678  40.1041365  50.9664154
  86.0773182  39.8604536  50.0482225  85.3398991  40.4399920  51.2362146
 103.2214546  41.1829519  78.7685061 103.8495827  40.8331490  79.4004345
 102.7812481  41.8927050  79.2361546  94.3773651  79.3061733  58.4344816
  95.0831127  79.7688484  58.8862324  93.6136723  79.8737383  58.5387754
  71.4484007  23.2402324   2.6538043  72.3936827  23.3615588   2.7429728
  71.0972483  24.1288280   2.5962214  19.0410275  80.0546932  82.8848457
  18.7682766  79.2454100  82.4525356  18.2973904  80.6472874  82.7750015
  81.0201836  28.1801844  82.2525787  81.2290382  28.4944010  83.1322765
  81.5574360  27.3953533  82.1447372  75.3719664  70.2677631  74.3666840
  75.4512739  70.9502029  73.7001896  74.6234608  69.7424793  74.0837479
 113.8951492  75.3079224  56.7825317 113.0500126  75.3005314  57.2318983
 113.7457561  75.8386993  56.0001040  89.4192410  51.5505743  79.3977022
  89.0175724  51.3284874  80.2376842  90.3056622  51.8327332  79.6232462
  72.0525599  98.2914162  90.0147057  71.8005753  98.7619114  89.2201138
  72.4874258  97.5001717  89.6968174  32.5587780  32.5859212   3.1161456
  33.2619221  33.0223512   2.6351599  31.9543631  32.2860956   2.4371581
   2.0140023  82.3626518  66.4255762   2.0797962  81.8613338  65.6128168
   1.1006874  82.6473141  66.4581251 110.6366253  37.8801894  78.7353277
 110.7119942  36.9334078  78.8543081 111.5047169  38.2189417  78.9541674
 103.0661201  54.2788601  62.7548027 104.0079498  54.2062044  62.9094219
 102.9674816  55.0880623  62.2531176  83.3850098  54.1687298  84.6193790
  82.7953243  54.9044991  84.7841454  83.2483864  53.5812092  85.3626156
  29.9512083   3.3966970   0.4068617  29.3032105   3.1961679   1.0822253
  29.9914295   2.6046848  -0.1291700  83.5987568  59.3153048  79.4237518
  84.4203281  58.9706326  79.0738106  82.9193211  58.9009666  78.8918591
  94.6436882  36.1130071  88.3956146  93.9183617  35.7082629  88.8713360
  95.3792381  36.0802150  89.0072632  83.9917755  65.1068544  36.4014077
  84.8739243  64.7809267  36.2230372  83.4146214  64.5061874  35.9299016
   7.3178429  54.5431995  62.6096725   6.4012856  54.3417358  62.4210835
   7.5050206  55.3212547  62.0844793  92.3819733  66.5761471  80.3234768
  92.9337406  65.9099770  80.7333565  92.9885674  67.1019316  79.8021078
  80.3215122  96.4542103  95.5156136  80.5048370  95.8588791  94.7888374
  81.1625576  96.5537548  95.9616661 103.0517101  36.1540699  80.1400852
 102.4052525  36.7527103  79.7659826 102.5321770  35.4360604  80.5017185
 102.3926258  77.8082848  82.5120449 102.3189163  76.9074059  82.1970558
 103.2658195  78.0875683  82.2367859  25.1946968  61.2189007  32.3678088
  24.6830696  61.4666414  33.1379390  25.1151223  61.9673824  31.7764783
  20.9314329  18.7464284  11.2095694  20.2063067  18.1236934  11.1583476
  21.4616472  18.4367894  11.9438891  94.2245579  63.5792446  60.0691891
  94.9035740  63.8412619  59.4474936  93.4207821  63.9676714  59.7237730
 109.5148468  86.8077755  72.2595501 108.7689018  87.0862198  71.7282581
 109.9816132  87.6188660  72.4607944  79.7816896  62.3519325  79.2594385
  79.0726995  62.2260284  79.8900795  80.4899597  61.7939520  79.5807648
  42.1683867  17.9698943   1.1089854  42.9077036  17.4642610   1.4465861
  41.8205530  17.4372052   0.3937964 109.9191761  62.4531317  87.7956009
 109.3676281  62.2521544  87.0395374 109.3870354  63.0421877  88.3304501
 110.8315468  56.7842960  69.3560457 110.3891563  56.9854832  68.5313940
 111.5436077  56.1945772  69.1081953 100.5278952  16.3140439   4.0719275
 100.9348089  15.6684636   3.4941058 101.0800440  16.3173723   4.8538165
 110.9919453 106.2097168  54.6096420 110.7141972 107.0643234  54.2798948
 110.2072620 105.6644821  54.5527506  83.9817905  49.3984127  70.3734207
  83.2895565  48.8215876  70.6964016  84.2082310  49.0429163  69.5140123
  88.3567333  64.8860741  67.6757479  88.1717873  64.4317007  66.8538189
  88.0463409  65.7798195  67.5304508  17.0109505  59.8753023  85.0580883
  17.6251358  60.0745583  84.3514824  17.2617478  60.4670763  85.7674122
 112.7028751  50.6178427  64.0655613 113.4588814  51.1642408  63.8507795
 113.0037022  50.0657177  64.7872877  97.4839306  40.7471609  47.3885155
  97.0619583  40.0651836  47.9110956  98.3789062  40.7878351  47.7255535
 104.4862747  64.2619419  39.7740436 105.1537991  64.9454594  39.8326731
 104.6966076  63.7902403  38.9681339 113.2031631  87.1557522  37.2925377
 112.9159260  87.9644966  36.8686676 112.7726269  86.4594173  36.7965579
  96.3465309  75.6109142  82.0715523  96.9163895  75.6987333  82.8356075
  95.4787159  75.8590841  82.3902130 104.9851894  64.2456961  65.0420856
 105.4991150  63.4406805  65.1058960 104.1045666  63.9900541  65.3166199
  99.8656750  69.3243790  57.1010494 100.1586437  70.2127647  57.3039484
  98.9781761  69.4367599  56.7605352 100.2596474  71.1370659  89.8329735
 100.9011936  71.1879587  89.1244125  99.7926044  71.9716597  89.7935963
  91.2057114  55.0769281  43.0803013  92.0119572  54.7448778  43.4751892
  91.3847351  55.0838184  42.1400166 105.5944633  52.6304054  77.8041935
 104.7856426  52.7422047  77.3046446 105.3630447  52.8901243  78.6959457
 103.7300491  71.0224056  57.7010202 102.8487396  71.3716888  57.8333902
 103.5972404  70.2254629  57.1877241  92.7617073  80.3812599  78.8158941
  92.9475021  81.0101414  78.1186056  93.6237049  80.1293659  79.1471815
  97.9431504  98.5229598   1.4730315  97.2486705  97.9264127   1.1936335
  97.6905936  99.3716059   1.1093764  93.1529236  49.0367794  54.8224783
  94.1086674  48.9983130  54.7862720  92.9020119  49.5096874  54.0289831
  79.8674822  46.1863708  68.2239342  79.9874496  45.6510353  69.0083170
  79.1240644  45.7866240  67.7725315  74.6750593  31.6069484  68.9368582
  74.9641275  31.5945888  68.0244350  75.0732040  30.8277178  69.3248177
 111.7136955  66.7004538  53.6324024 111.2230873  67.1210909  54.3385172
 111.0799694  66.6111326  52.9206133 106.8435192  71.5682602  45.6605244
 106.3408756  71.6251850  44.8479080 106.5039539  70.7875252  46.0979939
 113.3492374  54.1719437  85.8182716 114.2552757  53.9578676  85.5957794
 113.3240414  54.1422367  86.7746830  21.8794215  88.0621301   3.8486342
  21.9627441  88.9759932   3.5763411  21.6070426  88.1091581   4.7650580
  46.8991835  20.8331823  24.1558890  46.5259344  20.0147628  24.4831614
  47.8293974  20.6414556  24.0368132   4.9519390  41.0792732  78.9765882
   5.7708592  41.2457037  79.4433975   5.2155155  40.5889463  78.1979084
   9.8359532  74.1179657  73.0917835  10.5180306  74.5665312  72.5919962
   9.4081158  74.8136520  73.5909891  99.6967030 103.0618095  91.6590023
  99.0267849 102.7854919  91.0336208 100.4218578 103.3671379  91.1138916
 106.2542725  53.6725140  86.9846249 107.1924686  53.5293150  86.8600464
 105.8535385  53.3504391  86.1772156  70.6510353  51.1505222  68.3320141
  71.0427570  51.6657114  67.6267767  71.3262033  51.1200333  69.0098429
  -0.1621204  26.7600012  52.2626591  -0.4062420  26.3713574  51.4226627
   0.7881398  26.6544223  52.3082781  56.2266207  76.4401436  94.1100597
  57.0584726  76.0077715  94.3032074  55.5837011  75.7310200  94.1045761
   0.3949589  38.6654496  78.2827902   0.1677365  39.1145921  79.0969563
   0.2017254  37.7440190  78.4555864  83.6484718  47.9453802  58.8927603
  84.5906544  48.0178261  58.7401819  83.5398388  47.0964718  59.3214560
  56.0872442  29.0381192  16.4738040  55.9904463  28.1768560  16.8800978
  56.9673426  29.0279149  16.0975699  97.4580193  77.9102707  68.2259464
  98.2826138  78.0487585  67.7600145  96.8446541  77.6264477  67.5481129
  87.2509575  53.5565138  42.8537226  87.9757404  53.1988668  43.3665752
  87.1212864  54.4376612  43.2044315  15.1556343  50.6078815  51.1790419
  15.0293583  51.5561152  51.1452436  14.6287102  50.3225422  51.9254780
 105.9898281  64.6297073  71.6050339 106.6708660  64.0007496  71.8434286
 106.2193108  64.9064589  70.7179165 109.9794102  71.1213636  75.2876282
 109.8731709  70.7952976  76.1812878 110.0552845  70.3317070  74.7519875
 116.2317848  75.0567245  58.6271095 115.6194592  74.5366335  59.1474867
 115.7545280  75.2527571  57.8208733  37.9157508 101.8011533  14.4019846
  38.2385886 101.7666541  13.5015349  38.5671676 101.3162862  14.9087290
 109.1087914  72.8660917  89.4212341 108.2559395  73.1433249  89.7559166
 109.7327423  73.4669971  89.8284531 114.0035343  77.4435091  32.6174569
 113.1751919  77.5659704  33.0812407 113.7698650  76.9371414  31.8394971
 104.4659042  91.4431953  55.7450485 104.1019154  91.0628891  56.5444946
 103.8846207  92.1761513  55.5422926  65.0925636  64.7694492  93.6172867
  64.3921137  65.3687954  93.8749409  65.6286144  65.2757788  93.0069542
 109.1991425  55.3343678  81.1658573 109.1068649  54.7211742  80.4366684
 110.1431847  55.3902626  81.3138008  40.0909484   1.9050635  81.1003971
  40.0130523   1.8854655  82.0542240  40.7652629   2.5623549  80.9286118
  54.9890310  39.7526597  17.6250224  55.6445677  40.1328420  17.0402388
  55.3437407  38.8943147  17.8566603 105.4363441 104.4932747  75.2785301
 106.3236618 104.6395969  75.6063843 105.4961681 104.6680737  74.3393326
  96.2660217  62.5819969  89.7342873  96.7937279  61.7863798  89.6653175
  95.4634476  62.2998047  90.1730061 107.6774979  83.5344791  49.6155071
 106.8560410  83.3931541  49.1449213 107.7669048  84.4864273  49.6607304
   0.6713051  88.6353683  94.8316860  -0.0894314  89.2144489  94.7850609
   1.3889832  89.1528797  94.4664860 100.7833290  62.5126886  67.3387766
 100.7219410  63.4420919  67.5593996  99.9278069  62.2977161  66.9671679
 114.7279358  85.8495998  24.3407583 114.3089294  84.9997330  24.4763708
 115.5398750  85.6450462  23.8769150 111.3561249  65.2125502  62.7353621
 110.5187988  65.0766087  62.2919178 111.3450432  66.1350584  62.9904842
 108.6876678  93.6746883  75.9418201 108.3985996  93.1716347  75.1805019
 108.9003849  93.0126667  76.5996313  98.3577347  83.4799862  56.1517143
  97.9958630  83.5633945  57.0339394  98.7470722  84.3354702  55.9706593
 110.2253151  62.3576069  44.1641712 110.1430416  61.6152525  44.7628117
 111.1676216  62.4472284  44.0218449 109.3304729  90.8657742  82.3507309
 108.9839649  91.5871048  81.8255138 109.3295670  90.1150894  81.7568493
 106.9780636  80.5572224  69.5980215 107.4295807  81.3761425  69.3937206
 106.7917633  80.1669407  68.7440872 105.6852627  63.4816694  50.1308393
 104.7641659  63.5761213  49.8881388 106.1675930  63.7398815  49.3453979
 104.5381069  93.8987637  28.3075738 103.7449741  94.2920780  27.9436040
 104.3006134  92.9854965  28.4680748 101.5532684  59.9495459  49.8652744
 101.5855408  58.9931154  49.8860502 101.5767574  60.2100420  50.7860470
 108.4014893  85.5437469  76.3156652 107.9446983  85.8022690  75.5151987
 109.0147114  84.8652935  76.0330153  31.0583538  77.4609804  39.4189262
  30.4939980  76.7575836  39.0980387  31.7347664  77.0126343  39.9265480
  94.2194462  60.6812191  60.0226355  93.7223148  60.5420542  60.8286953
  94.2227173  61.6310596  59.9042177   1.7536587 103.5392094  35.5313659
   1.9560761 104.2435837  36.1470962   2.5798744 103.3730412  35.0775099
 109.5179844  52.6515293  79.5082426 109.1615391  52.0036125  78.9004707
 110.2620792  53.0330086  79.0423822  65.5732042  47.4924707   9.3422846
  66.2370665  47.2376298   8.7015204  64.7394926  47.3286771   8.9014582
  96.7942047  54.4947863  95.2567291  97.3764229  54.5364571  94.4981003
  97.3553848  54.7107840  96.0014820  30.1189388  20.9471167  90.8159637
  30.1427043  20.1726950  91.3780499  30.7151092  20.7392539  90.0965023
 101.3430500  63.3762789  70.4070282 100.5954456  63.8438702  70.0346279
 101.8257999  64.0448666  70.8930063 102.6681995  67.0938492  65.0677299
 102.5622845  67.0924187  66.0190535 103.4675217  67.5982809  64.9164963
  -0.0264221  69.2134857  64.5427418   0.6174321  68.5054350  64.5239973
   0.0122399  69.5487165  65.4384851  63.4524138  28.8309812   4.8332076
  64.0707285  28.6056470   4.1381220  63.9902765  28.8882207   5.6229262
  11.3704646  24.9499930  55.2692175  11.7815078  24.9537028  54.4047737
  12.0726264  25.2010382  55.8693790  83.8343430  64.7460794  66.0690928
  82.9846287  65.0510693  65.7509851  83.7074757  63.8115263  66.2326574
 111.0841769 104.1676675   4.0127997 111.0733766 103.3900462   3.4547476
 110.2592915 104.1267072   4.4966559  38.1148571  84.5970154  79.7841787
  37.5017971  84.6375656  80.5181694  37.7966065  83.8721943  79.2460489
  69.5534086  53.6616802  71.7046213  69.3639851  53.5400677  70.7742643
  69.2557907  54.5512104  71.8953657  59.5286257  32.0961618   5.1549010
  58.7229139  31.9321489   5.6449751  60.1032431  31.3668870   5.3877310
   5.9446568  72.4572515  52.5641870   5.6543679  73.2508373  53.0138350
   5.1446480  71.9469309  52.4385023  98.2791233  89.1855812  75.7736540
  97.5622463  89.7288322  76.1010599  98.3699131  88.4905148  76.4254808
  20.8204807 105.8080684   2.1516566  21.3895858 105.0894557   1.8760733
  20.1488269 105.8560763   1.4713625  99.8638725  85.1949406  79.2467260
 100.7349396  84.8072433  79.1620827  99.2902088  84.6038246  78.7591648
 113.6885834  80.8197975  48.4192991 113.0505466  80.7633114  49.1306067
 113.8845158  79.9088001  48.2003975  74.4070036  24.8327636  10.7115893
  75.0520594  25.1875448  10.0998072  73.9189131  24.1889095  10.1983122
  77.6690466  36.7484140   9.0144209  77.4623854  37.6124238   9.3708090
  77.6583655  36.1669206   9.7746806 110.2732563  95.3594303  72.6856852
 109.5912838  95.8684540  73.1238937 111.0890293  95.8046341  72.9149199
 115.4700279  80.0094891  92.1216869 114.5274639  80.1761818  92.1256161
 115.7690430  80.3448105  91.2764740  98.0106926  83.2699680  72.0776892
  97.3641109  82.6335621  71.7724800  97.8435802  84.0521622  71.5518808
   4.5476479  74.4563437  71.7895079   4.7514386  74.5393085  70.8579445
   5.3032154  74.0004158  72.1602964  89.2977905  82.3122597  83.2432079
  88.8948822  81.4563084  83.3889580  90.1463795  82.1132946  82.8475571
  11.1938996  78.2866287  49.6624565  11.2548298  78.7995768  48.8566017
  10.3394360  77.8584290  49.6097803  16.4913983 104.6332359  73.6041784
  17.3968262 104.9193764  73.4835005  16.5000958 104.1539097  74.4326735
  93.8512707  90.2112484  34.9836254  94.2665672  91.0069561  35.3162146
  94.5149231  89.8118114  34.4212699  97.2961426  90.5178928  82.8447628
  96.9005299  89.7039223  82.5330448  98.1020355  90.2409172  83.2807064
  21.7159504 100.9283733  68.2266474  21.1529583 101.4734364  68.7763453
  21.1085362 100.3714848  67.7396631  69.5467550  42.5091600   4.5230441
  69.3859179  41.5740251   4.3970065  69.4567473  42.8876733   3.6484770
 101.8352222 108.8704491  62.2255898 102.0107460 109.7640991  62.5202417
 102.6257896 108.3825684  62.4562550  84.0849669  15.0025796   5.5434851
  83.4856779  14.3058872   5.8112769  84.7329218  15.0446080   6.2467818
  92.3024750  77.4905252  64.7230291  92.1763420  76.8371201  64.0350008
  92.6122379  78.2690048  64.2601538  86.3840485  81.6562843  92.8469276
  86.5444851  80.8362675  92.3799515  85.9342289  82.2108650  92.2094822
 115.7446766  42.0800304  89.8992825 116.3867569  41.6176558  90.4379654
 114.9179363  41.6298485  90.0727081 113.4198284  85.3968620  40.3276062
 112.8190899  86.1419964  40.3164530 113.0644131  84.7928810  39.6755981
  44.2198337   5.3000105  64.7594929  44.6318210   4.4803465  65.0327015
  44.9437583   5.8351744  64.4342661   1.7173142  83.7003326  63.1632185
   1.2141842  83.8403511  62.3610401   1.4572090  84.4203281  63.7378359
   7.2889084  38.5341692  38.1656218   8.0832428  38.5601902  38.6990929
   6.9802136  37.6311350  38.2395649 112.6013565  71.0494423  68.6919069
 111.7041874  70.7327032  68.7967777 112.9163456  70.6180429  67.8976107
 101.4599514  84.9617195  73.8041544 101.3371658  85.7155037  73.2271099
 100.8778000  84.2903614  73.4483385  -0.1448780  65.7551241  62.7430105
   0.3871483  65.3911304  62.0354176   0.4697842  66.2731409  63.2626963
  21.1043495  68.3865833  66.1586142  20.2942890  67.9040146  65.9938049
  21.7956013  67.8160858  65.8225632  78.2409000  95.5607414  20.0685000
  77.4055672  95.1108742  19.9417055  78.2521009  95.7874775  20.9983921
  23.5125870  79.2376041  65.3339672  23.1761689  78.7226439  64.6005678
  22.9681153  78.9793348  66.0776615 112.0580292 107.6917458  24.8806071
 111.8176365 107.2359753  24.0739393 112.6030731 108.4227276  24.5893717
  94.6298504  54.5484400  72.1517563  94.4195080  53.7196493  72.5819826
  93.8796139  54.7200203  71.5826082 113.9538956  76.2895727  74.1481829
 113.5290718  77.1472883  74.1572380 114.6043587  76.3370562  74.8488092
  14.7102988   6.0647906  93.0601311  14.4831527   6.4714373  93.8963604
  14.3436301   5.1823367  93.1154919   1.5792698  95.1741886  66.3863897
   1.1560768  95.2637291  67.2402811   1.5335411  94.2377567  66.1934328
 102.1276665 105.8292866  95.5532169 102.7968216 106.1301708  94.9384403
 101.3026333 106.1394501  95.1799202 106.0035229  84.9873161  46.0412073
 105.2044201  84.9508381  45.5155325 106.3772011  84.1089344  45.9702396
  10.6689877  41.3198328  50.0216770  10.2275700  40.5684519  49.6256828
  10.7464070  41.0912991  50.9479618 106.6079807  77.5904799  92.7035809
 107.3683453  78.0862999  92.3998642 106.8820572  77.2223377  93.5435772
  97.8006649  85.8085155  70.8161163  97.3977089  85.3589153  70.0733376
  98.2505894  86.5583515  70.4268217 109.9299717  72.6258707  52.3947525
 110.1801014  73.0615139  51.5799618 110.4892635  71.8500137  52.4329996
 112.6671505  98.7848663  77.5237131 113.1505966  99.5559120  77.2270823
 111.9765759  98.6694241  76.8710184  83.9836121 101.1042595  79.7597265
  84.0173912 101.9803524  80.1438427  84.8542213 100.7394314  79.9184036
 107.2459126  95.5163956  94.2910671 107.4935436  96.3598251  93.9122200
 106.3049793  95.4481125  94.1291809  96.3769341  87.6115799  61.9137716
  95.6809998  87.0317078  61.6044855  96.1761665  87.7545643  62.8386927
  98.3370399  94.6545506  56.0931301  98.2659531  93.7499428  55.7883930
  98.7995434  95.1088715  55.3889179   2.9174656  81.2943649  70.1610851
   2.6085991  80.5712795  69.6152115   2.2045655  81.4478588  70.7811213
 111.6598320  69.8561907  95.6647873 112.5998592  69.9110222  95.4927826
 111.2683010  69.6945715  94.8064137  88.8557243  74.4476557  47.1974564
  88.7844753  73.9900827  46.3597298  88.6474133  73.7816334  47.8526306
  86.2654591  75.8574915  64.5397997  85.8282852  75.1194763  64.9645948
  86.6201973  75.4916143  63.7295389  34.2745812  23.0517148  10.6290774
  34.0669567  23.9188098  10.9773116  33.4364922  22.7131318  10.3141169
  15.5087609  68.3937550  39.6739554  14.8507447  68.1905174  40.3387403
  16.0071224  67.5826073  39.5743942 115.4884243  50.7282829  73.1097507
 114.6169853  50.4314613  73.3718967 116.0566521  50.4748154  73.8371420
 116.6342229   3.3342207  74.4109631 116.3666028   2.4197329  74.3197012
 117.2979182   3.3218611  75.1005936 115.7415771  79.1841602  60.0344801
 114.9329472  79.1693830  60.5464697 115.4630947  78.9830112  59.1410542
  11.9200844  83.4560394  84.0693855  11.4447254  84.1693687  83.6434555
  11.8712658  83.6597919  85.0033760 115.4337883  60.0907898  16.6244113
 115.3806782  61.0458088  16.6611469 114.6959400  59.8309183  16.0728002
 100.1248169 104.0223217  59.5530605  99.9805069 104.9651146  59.4721127
  99.3787670 103.7088490  60.0642967  44.5405639   0.8538474  64.1341114
  43.8498843   0.2055586  64.2717171  44.3702472   1.2032641  63.2593918
 103.4710979  56.9350290  27.2605205 103.7040710  57.2152042  28.1456494
 102.6450729  56.4635181  27.3681760  36.3783593  50.8743143  60.1235867
  35.6691212  51.5069962  60.2373409  36.0302300  50.2331018  59.5040035
  67.4372275  43.4859323   2.1519141  66.9949801  42.8526449   2.7172427
  67.2137148  44.3381166   2.5261645  16.0713047  77.6948977  90.7557583
  15.5491204  77.0818853  90.2382946  16.7637390  77.1560478  91.1383915
  31.9507373   0.3512228  49.6264410  32.1575988   0.3505743  50.5610228
  32.0587409  -0.5607854  49.3565941   8.8541550  63.4622526  52.6796389
   8.9047188  63.3836889  53.6322689   8.0465168  63.9512968  52.5221872
  87.7022249  21.2667894  20.4150919  86.8543989  20.9318542  20.1231341
  87.5096590  22.1391773  20.7587294 110.0991154  73.0336666  58.0663824
 110.2305698  72.1709204  57.6731634 109.1557407  73.0856800  58.2199192
 108.3889198  82.3019886  62.5042725 109.0907383  81.7897224  62.9058504
 108.1108475  81.7790794  61.7522907  81.6477203 105.5830574  62.5202370
  81.2753582 105.2266979  61.7136526  80.8871746 105.8247089  63.0488253
  11.3571019  93.9760590  49.3204498  11.8226952  94.3332005  50.0766945
  10.5446858  93.6237335  49.6838570   5.1605839  34.7029829  68.4748268
   4.8283810  34.8729873  69.3562889   4.4335694  34.9332213  67.8963280
 110.4902935  87.7824879  77.0088768 110.0058556  88.5661221  77.2686052
 109.8480034  87.0748520  77.0632362  79.7505665 101.0014343  93.6700916
  80.4342461 101.1717510  94.3180180  80.0401402 100.2082920  93.2191944
   4.9514050  89.9965000  39.8631215   5.0234551  89.3800068  39.1344428
   4.1278118  90.4581833  39.7057152  82.7434046  37.0092248   3.5098700
  82.2289164  36.4847135   4.1233878  83.6535914  36.8091821   3.7284331
  99.8654556  76.1921883  87.1867943 100.0824261  76.4687061  86.2964630
  99.4917774  76.9728374  87.5956821  90.3208065  90.7515240  73.3232307
  89.8129654  90.5442142  72.5387907  90.9272861  91.4365196  73.0418348
 100.8590031 103.8430595  79.5483923 100.3958988 104.6064758  79.2034721
 101.0227585 104.0570831  80.4668808  17.7953667  74.4675064  82.2710514
  17.8395218  74.1668701  83.1787491  18.6467785  74.8749924  82.1120262
  62.0870174  15.1749838  64.7650528  62.4766029  15.9573210  64.3746758
  62.8332961  14.6094264  64.9636745  20.2293152  98.9487839  22.9626942
  19.8515362  99.5216370  23.6300445  21.1640591  99.1547203  22.9715323
  90.1253891 102.9777241  56.2737083  89.7768211 103.6559582  56.8522644
  89.9519825 102.1571064  56.7349672  94.8926163  80.9047222  75.4541636
  94.2162514  81.2886906  76.0121393  94.4061089  80.4448223  74.7700310
 106.4065742  92.4110413  53.9503765 106.1098576  92.1342087  53.0834484
 105.8405685  91.9372845  54.5598269 109.4812775  51.0230160  77.4123478
 109.7280598  51.0736465  76.4888954 108.7397957  50.4179144  77.4292850
  36.9340480 108.5427295   1.8796591  37.0418895 109.1081248   2.6444678
  36.4144958 107.8048049   2.1986727   4.4127220  83.5618210  83.7144661
   4.0074772  84.4181442  83.5776424   3.7929863  82.9399014  83.3331871
  14.8443074  88.3503628  70.4338932  14.5067162  89.2238331  70.6321430
  14.0747113  87.8534317  70.1563883  49.3671764   3.4706820  86.7462349
  50.2814353   3.7062396  86.5885353  49.3460048   3.1925620  87.6618958
  53.8758070  43.8027715   3.3168654  53.0843813  44.3200921   3.1676535
  54.5630438  44.2755746   2.8474001 100.5663776  67.8331089  79.2947960
 100.9149837  68.5435295  79.8333216  99.6483612  68.0660152  79.1560888
 108.9972687  65.5505610  55.0038242 108.9200401  66.4723396  55.2499819
 108.6192799  65.5046940  54.1256142 101.7236519 108.0391026  80.6908894
 102.4164677 107.6756096  81.2423420 100.9381199 107.5529766  80.9416008
  83.1232548  62.9655886  75.7785845  83.8597202  62.5690460  75.3131866
  82.6122570  62.2213316  76.0967159  48.9051420  35.6188630  14.9379210
  49.8204405  35.7663965  14.6997790  48.5737116  35.0286626  14.2611174
  64.2783434  49.9441289   9.5230059  64.5512945  49.0492486   9.3207125
  64.1086657  49.9356221  10.4650168   6.4128060  43.3378935  89.8216343
   6.9301457  43.1286764  89.0439320   6.8547768  42.8766727  90.5344963
  93.7620068  53.1453466  21.4285231  93.2186699  53.8952017  21.1861801
  93.2303810  52.6577282  22.0576763  93.2287979  72.3780012  67.8630447
  94.1762161  72.4027395  67.7288103  92.9117393  71.7469740  67.2168970
 112.4613762  89.1583538  67.6580524 112.7533436  88.7256432  68.4603930
 112.5281620  88.4824944  66.9835186  51.8187297 108.7378131  17.8768496
  51.8812240 107.9542599  17.3306231  52.6326526 109.2126284  17.7085833
  72.5700903  49.0277529  70.5355787  72.8626966  49.4596004  69.7330093
  72.9946709  48.1701279  70.5145597 104.8293304  85.8664131  57.6659250
 104.2851162  85.3291416  58.2416010 104.6002388  85.5783939  56.7823029
  99.8760319  94.5731735  91.2244987  99.4305515  94.3919754  92.0521069
 100.0782585  95.5080605  91.2610149 103.6396790  95.0950432  24.3642521
 102.7172756  95.3488350  24.3327713 103.7875843  94.8423004  25.2755570
  90.5056667  88.1678486  52.9338646  90.3891563  88.0249691  51.9945860
  91.3801575  88.5492611  53.0114508 116.3852787  47.8296328  44.4831038
 117.1250248  47.2223234  44.4696474 116.5663815  48.4435034  43.7713528
  72.5556087  46.3412857  66.9513273  72.3320293  45.9861660  67.8116369
  73.3541012  46.8474102  67.1012735  86.4006424  75.3447199  78.0590725
  86.7369461  76.1943674  77.7740717  85.4508686  75.4198694  77.9667711
  14.5459408  81.2941837  79.0220165  14.6479077  80.4049587  79.3613005
  15.2328438  81.3784695  78.3607435  89.7058010  95.7143974  74.9051428
  90.0511837  95.4947376  74.0398741  90.0605106  96.5838051  75.0909853
 104.0203857  88.6489677  71.3859081 103.7393665  89.3817425  70.8379221
 103.9884472  88.9917564  72.2790480 103.3170337   9.6216906  92.9199886
 102.7228755   8.9466036  92.5921822 103.8536424   9.1720427  93.5727596
  11.9648213  82.1469307  78.7139177  11.4662785  81.7278290  79.4153643
  12.8799576  81.9701767  78.9318895  22.5947726   3.1039370  72.7024031
  22.4098266   3.4843958  73.5610485  22.0718635   2.3025645  72.6778507
  98.3040237  68.2653284  81.9666004  98.7144184  68.2166862  81.1032104
  97.4883175  68.7434721  81.8174744 105.9868813  78.7363863  75.4796076
 106.4046955  79.1283512  74.7127771 105.5226803  77.9732466  75.1355696
   7.4349350  99.5400715  69.8786497   7.9750008  99.9386692  70.5610609
   7.8005451  99.8728180  69.0589905   2.9186863  72.8520775  68.2542038
   2.1166844  72.9000044  67.7338839   3.3045239  72.0073462  68.0222845
 117.0104790  46.0959959  88.1951618 116.7249203  45.7241678  87.3606300
 116.6998863  47.0011282  88.1728745  38.5153813 103.8826942  42.1774817
  39.2495961 104.4967175  42.1654558  38.0034203 104.1365337  42.9453945
  87.3636992  33.1609010  25.8557753  86.7284090  33.8027238  25.5384402
  88.0740244  33.1898927  25.2148108   5.2334941  20.6262339  73.3241224
   5.4772151  19.9679411  73.9748812   4.2906821  20.5096091  73.2069492
  93.1801891  70.1174068  79.4610691  92.6665401  69.4791174  78.9661121
  94.0680504  70.0313139  79.1138935  55.3813804  99.5493804  11.9420199
  55.9355224  98.9023982  11.5054755  55.4514468 100.3323041  11.3957934
 110.9160233  80.9702873  84.7234440 111.0135174  80.7878494  85.6580257
 110.0185585  80.7066059  84.5202827  83.4581852  78.4544373  87.3177052
  83.1092834  79.3134308  87.5556660  83.8656425  78.5900259  86.4622307
  15.7287068  77.2466421  86.9601154  16.4238018  77.9033566  86.9176579
  15.4286141  77.1566963  86.0556316 112.7448273  83.0050659  86.2753868
 112.5419140  82.1466541  86.6471195 111.9902706  83.5486603  86.5020370
  21.3978810  93.4520435  33.7133360  20.9738774  94.0606976  34.3183064
  20.7202668  93.2420826  33.0706954  96.9404984  82.4648094  90.8103466
  97.6712608  81.9012642  90.5560970  96.8946648  83.1244373  90.1182365
  17.2769589  72.6879978  78.2728815  18.1917614  72.7056408  78.5540485
  16.8946308  73.4795189  78.6517715   4.6192879  75.4216814  79.1656923
   4.3301148  76.3249302  79.2951250   4.9647278  75.1563168  80.0180340
  91.9829273  89.0977097  82.5847912  92.4709129  88.7364864  81.8447781
  91.6585445  88.3299351  83.0554676  96.6625690  78.1696224  42.8021765
  97.3998165  78.6286736  43.2046413  96.7134666  78.4014606  41.8748713
  92.6916409  79.1145611  70.8496952  93.1237602  79.5057869  70.0904560
  92.1178246  79.8053503  71.1810207  92.5040340 108.9931870  40.5697727
  92.8862095 108.6416245  41.3738775  91.6244793 108.6168861  40.5381775
  86.4860821  94.4767094  53.8258791  86.8135166  94.4966793  54.7251081
  86.1564827  95.3619766  53.6712790  15.4108090  76.4517069  29.6174598
  15.7805867  75.5897570  29.8086095  15.4501385  76.5230560  28.6637330
 104.9851799  50.5970049  73.0293274 104.2886639  50.1193190  72.5788689
 104.5883942  51.4365911  73.2614660  75.7175207  59.5298004  93.8180065
  76.6264486  59.8294878  93.8016415  75.4269695  59.5963717  92.9084015
  83.2704449  79.7879839  84.4723988  82.8552532  80.1469421  85.2566147
  84.0047264  80.3770924  84.2991638  87.0494366  95.6140995  66.0652637
  86.7683411  95.2855682  66.9192457  87.5117970  94.8774052  65.6655836
   8.6260170  54.3868923  70.2708578   8.0352825  53.9213085  70.8628845
   8.0450291  54.8322248  69.6541166  19.0558380  92.4220562  78.3922195
  18.6174244  92.4649906  79.2420292  18.3504624  92.2556019  77.7669477
 107.9537201  69.5473433  90.0170612 108.0705547  69.1573763  90.8833790
 108.4662342  70.3552246  90.0469685  67.6088698  30.8815145   6.9833331
  66.7499716  30.9183740   7.4042468  67.7847941  29.9463605   6.8795352
  68.6167383  87.2604561  68.2207155  69.5241022  87.4841690  68.4277916
  68.6401033  86.3242912  68.0225515  32.6412243  57.4271297  49.1238165
  32.7034325  56.6596842  48.5551453  32.4166722  58.1456995  48.5326624
 110.8884525  70.8796597  38.8736463 109.9927807  70.5639076  38.7539816
 111.0907173  71.3405371  38.0594540  91.5500450  68.9207077  70.9049988
  92.2326469  69.2573643  70.3245306  90.9573746  68.4421015  70.3254175
 112.0048684  16.4837874  53.2781124 112.8833884  16.8632830  53.2982492
 112.0550031  15.7990015  52.6111889 101.1293125 106.8088245  43.7418127
 100.4329872 107.4401379  43.9229536 100.8631802 106.3864708  42.9251003
 111.2006187  99.0105915  54.2300892 111.7733765  98.2550240  54.3616295
 111.7769527  99.7682953  54.3299246   7.4672360  73.2009363  62.6942539
   7.2508091  72.8227806  61.8419695   7.6526017  74.1213179  62.5078058
  74.0074409  15.8857859  68.8334942  74.4460071  15.3331412  69.4803905
  73.4712566  16.4841498  69.3537855 103.9990997  93.7378502  34.1778588
 103.1746578  94.0233994  34.5715380 104.6012306  93.6541080  34.9172235
 101.2526894  88.2907295  56.6883612 101.8342304  87.7610970  56.1429024
 101.1644077  89.1166210  56.2126160  81.8839073  45.8204603  83.8778114
  81.5740776  45.3049946  84.6224785  81.7226410  46.7291403  84.1318321
 109.6834469  73.8700151  86.4277935 109.5294476  73.5308790  85.5460358
 109.0703964  74.6000481  86.5140915 110.5520916  75.0065136  41.7994165
 110.5193806  74.0520334  41.7351484 111.1232281  75.2755785  41.0799408
 116.1482525  88.5929108  52.4685478 115.6165123  88.1088257  51.8367624
 116.6137600  89.2426014  51.9418287  94.6797371  96.8628311  59.7699261
  95.0735664  96.3871956  59.0385580  94.0392685  96.2525368  60.1354027
 108.3493137  65.9492445  80.9704304 108.0065727  66.8230867  80.7829285
 108.7285137  66.0235262  81.8461704 115.4165840  80.6591988  63.0250025
 115.8730507  81.1709118  62.3571539 114.6775436  80.2653599  62.5613880
 112.9052639  85.8915329  50.6858873 112.6379108  86.7386913  51.0423565
 112.8886414  86.0150051  49.7368288   6.9557709  94.0321445  89.4239807
   7.5487561  94.0050316  90.1748943   7.4870438  93.7279701  88.6881447
  83.8183498  71.1651325  77.6319695  83.9885998  71.0804510  78.5700941
  84.4788647  71.7855740  77.3237276  88.8342381 101.7963123  68.5223198
  87.9015160 101.6416931  68.6718512  89.1815376 102.0192528  69.3859768
  88.0559731  85.6665516  91.6197205  88.7133503  86.3606644  91.5718079
  87.9448509  85.5061817  92.5568199   5.2769417  61.0160637  59.1198730
   4.6067471  60.3872252  58.8522339   6.1035866  60.6118488  58.8562202
 114.9540520  89.3815327  41.1741114 115.4649734  88.5768032  41.0869122
 115.4193687  89.8898602  41.8384361   2.2166771  99.9239826  36.5641856
   1.4866871 100.5430031  36.5520978   2.0048374  99.2904186  35.8786511
  43.0515350  14.5394839  93.0440903  42.9229987  15.4835452  92.9520893
  43.1550086  14.4024981  93.9857674  89.4071102  63.4142303  80.3953171
  89.7509670  62.5704861  80.1019096  89.7626400  64.0476274  79.7719049
  13.4376282  87.0479298  81.2725449  13.5488838  86.2570095  80.7450008
  14.1563744  87.6193142  81.0020733 100.5964375  51.9058895  80.5035973
 100.2408981  51.2727213  79.8799658 100.1881695  52.7367878  80.2603722
  40.2103484  16.7618121  67.2752380  40.3274501  16.3670958  68.1393671
  39.7982562  17.6074828  67.4520540   2.1065468 102.0214939  79.2066574
   1.7202420 101.6500473  79.9997759   2.0132965 102.9679108  79.3154192
   1.6688294  57.2545910  49.8601532   2.4900479  56.7673969  49.7932196
   1.9387383  58.1699562  49.9341774  51.9434149  27.3878145   7.7577929
  51.8533308  26.8348645   8.5339121  52.7792341  27.1251344   7.3722605
  13.3032555 109.7603512  64.8057032  12.8163380 109.0343857  65.1957178
  13.4529728 110.3658199  65.5318069 102.0740032  56.1012554  93.6445332
 102.9296303  55.7390308  93.4144878 101.9149971  55.7921648  94.5363903
   7.5664276 106.0560131  45.0746918   8.3907933 105.9950066  44.5920658
   7.1516651 106.8514252  44.7407389  16.2226642  25.7151068  87.9654312
  16.7542232  25.0429572  87.5389385  16.6765178  26.5360392  87.7748394
  92.1934032  91.6463566  62.6173973  91.7839813  90.8337688  62.9145527
  93.0076885  91.3655281  62.1998787 115.6955624  52.9327059  64.6923161
 115.6116772  53.8374186  64.3911552 116.5595627  52.8959990  65.1026487
  16.2766517   4.8632754  84.8988056  16.3433421   4.7759951  83.9479256
  16.9998801   4.3365515  85.2389812  63.7696994   7.2564066  67.3286867
  62.9280532   7.2030486  66.8759108  64.4209731   7.2275961  66.6277981
  28.5843719   3.5594023  91.8640232  28.6342395   3.3554686  90.9301281
  28.1458152   4.4094409  91.9004726   8.2043595  74.7113323  21.9590473
   7.7406925  74.0161085  22.4258542   7.6897187  74.8505449  21.1640692
  76.0878992  99.0285397  53.8121414  75.9520292  98.2189274  53.3198977
  75.7649374  98.8313389  54.6913719  51.8893684   2.8473986  47.1901751
  51.6118873   2.2329367  47.8696489  51.0728992   3.2147826  46.8515778
  10.6289810  73.6858034  82.9471493  10.4740090  74.3018007  82.2310734
  11.5531487  73.4504986  82.8648758  95.6970215  93.6749935  89.1271591
  94.8129749  94.0311432  89.0385151  95.7863235  93.0697346  88.3910084
  18.9819092  81.1053085  56.8874216  19.9003453  81.0352898  56.6270304
  18.4921784  80.9764862  56.0751438  97.4474144  69.7359991  56.0756350
  96.9383144  70.1753807  56.7568111  96.8170452  69.1654110  55.6359911
  43.5476459   6.9074381  70.3740025  42.9758704   6.7077673  71.1152411
  43.6842788   7.8534640  70.4249477  15.4670269  67.6882028   4.6391348
  16.2694437  67.4558591   4.1718249  14.8865730  66.9388818   4.5055918
 105.2178258   8.9757861  68.2393885 105.9974593   9.3855895  67.8645945
 105.5022162   8.0935133  68.4779930  22.4345143  44.9752473  36.7129759
  22.3272116  45.8180951  36.2721400  23.3625919  44.7661161  36.6072897
  35.9811652   7.9922427  74.1780853  36.5792239   8.1628645  73.4504604
  35.1184905   8.2334555  73.8406610  85.6682587  92.2098637  69.3492079
  85.3385639  92.0750904  68.4607458  84.8939037  92.1318150  69.9064445
  87.7433586  84.3539047  72.7502966  87.7860641  83.4388828  73.0280399
  87.3977661  84.3175983  71.8584013  99.8583586  32.4560117   1.2789874
  99.2309935  32.7417325   1.9430785  99.5392115  31.5972280   1.0017447
  57.9683650   3.8835944  72.0924425  58.7243045   4.3097342  72.4964142
  57.2949565   4.5634211  72.0679426  91.4636612  72.3797131  79.0762329
  91.7688847  72.5856256  78.1926775  91.9955730  71.6306353  79.3448925
 110.4681206  84.1920376  78.7364435 110.0114727  84.1656494  77.8956079
 111.2988567  83.7458801  78.5719347  56.1253626  16.3737296  12.9483370
  56.7037756  16.9101333  13.4905009  56.6606695  16.1335182  12.1920447
  17.2310127  18.4487189  85.6350040  17.1926463  17.6182879  86.1095047
  16.3271964  18.6127699  85.3658772   2.7492375 103.2010174  51.4929628
   2.1121544 103.0327129  52.1872473   3.4216446 103.7394714  51.9102859
  64.1363096 106.4958954  85.1872253  64.3050671 105.5584621  85.2819729
  63.2945776 106.6328621  85.6219196   1.8182129 108.9848328  67.3407745
   1.1702580 108.5817051  66.7629623   1.3636441 109.7350311  67.7239037
  73.3695871  56.3834428   6.0825114  73.2024653  55.8033132   6.8253092
  74.3143065  56.5357732   6.1053900  24.6327937  25.4767550  90.2874565
  24.6721805  24.8928679  91.0449314  25.5459178  25.7049120  90.1131821
 105.9011269  90.3556061  76.2834311 105.6613922  89.4514084  76.0805178
 105.0640869  90.8124638  76.3664436  14.5095391  69.3527699  78.8278961
  14.8744625  70.1514006  78.4467840  14.1768688  69.6257305  79.6829176
  48.7632925  21.8782186  30.2145152  47.9983313  21.3598584  30.4642539
  49.5044691  21.4144468  30.6041483  27.2977126   7.9493178  64.7204971
  27.8216232   7.1671904  64.8937893  27.1353782   8.3253802  65.5856323
  91.2169933  85.6779003  68.9179945  92.1653748  85.5486393  68.9082336
  91.0484791  86.2704659  68.1853962  70.0264246  61.4188718   3.8403849
  69.4942934  61.2790632   4.6236662  69.5170481  61.0260534   3.1315283
  82.4523544  98.9868069  81.3678837  82.7520370  99.5090771  80.6238079
  83.2497597  98.5903263  81.7188644  12.2379154  83.5862541  72.6068878
  11.5202565  83.5625553  73.2398510  11.9940895  82.9401779  71.9440460
  95.6782436  80.9267521  68.5380650  94.7948551  81.0523129  68.1915331
  96.2404633  80.9184647  67.7634192  40.6703246  11.1789454  69.0484285
  40.3481925  10.4530371  68.5140848  41.4679588  11.4673747  68.6047983
  89.4088936  98.1166649  66.0493469  89.9913597  97.3607540  66.1240196
  88.5805225  97.7509975  65.7389975  10.9600395  76.6325235  60.8905220
  11.2134404  76.6830158  59.9688530  10.0053257  76.5658140  60.8731318
  10.6047100  54.0265131  81.7913532  11.1535019  54.7693062  82.0429897
  11.0041470  53.2745886  82.2287273  87.6585102  84.1046906  81.6480637
  88.2585907  83.3815002  81.8300724  87.9199600  84.7926807  82.2600651
 100.2264023  76.0216904  74.0089750 100.4831791  75.3496552  73.3775711
 100.9203529  76.6787624  73.9549255  25.1008457  62.5302887  43.1226063
  25.4289765  63.1996775  42.5222063  24.2826504  62.8931665  43.4618711
  99.6936417  98.2985497  83.0607986  98.8776302  98.2514286  82.5626755
  99.4661713  97.9578686  83.9259148 100.6652546  86.2661743  94.5541859
  99.8571014  86.7613029  94.4201374 101.2532234  86.8814468  94.9923325
  56.7882407  20.2398909  81.6926193  56.5781081  20.3149260  80.7617855
  57.7220691  20.0305022  81.7112255 115.4217608  73.4657716  19.6703105
 115.6343920  72.9744005  18.8768439 114.5736200  73.1187772  19.9468474
  13.2035775  79.6805573  53.2158756  12.2729916  79.6554470  52.9931307
  13.2206864  79.8872948  54.1503286 109.9377823  77.4271107  80.6203365
 109.7790432  78.3422422  80.3888893 110.1126575  76.9954300  79.7840929
  29.2546333   2.6696623  56.7820215  28.6139167   2.8745688  56.1010456
  28.8250125   2.9227866  57.5990772  83.3662796  92.2144604  70.9855604
  83.7867832  93.0656910  71.1072826  83.9604568  91.5917206  71.4043617
   3.9662594  83.9809513  65.0528383   3.4012551  84.3109989  64.3542147
   3.3875508  83.4463501  65.5964661 104.2584229  97.4079227  27.8512788
 104.9705982  97.3897362  27.2119784 103.6951256  96.6748333  27.6032424
  83.6000633  90.2936172  66.4684677  83.5097408  89.5510101  65.8712912
  82.8429413  90.8474827  66.2781334  89.1831858  42.1761655  19.6006827
  88.9979250  43.0581712  19.9231200  89.5707018  41.7237329  20.3499369
   9.5235199  71.3550997  63.7997007  10.1117462  71.4817476  63.0552673
   8.7428040  71.8621922  63.5770369  16.5497459  10.8890666  80.6051826
  15.6045116  10.7695426  80.6972218  16.9323028  10.2033652  81.1526394
  20.4971278  91.1760102  35.7706408  19.9944843  91.9821845  35.6537489
  20.4939140  91.0267149  36.7161231  40.1042426   4.4520033  78.9802408
  40.1827014   3.6524428  78.4598780  39.2641509   4.3633402  79.4303799
 108.1911677   7.5181139  70.9648800 107.9875058   8.3912886  71.3000250
 108.8743752   7.6658953  70.3109550   8.2861198   5.2674521  71.4073181
   8.8864673   5.2896822  70.6621218   8.0693305   6.1858786  71.5677118
  51.9650233   4.5669116  87.4743652  52.0873321   5.0501288  88.2915497
  51.9444812   3.6476744  87.7404594  99.8522282  81.5401936  57.3804665
  99.5160770  82.1166897  56.6942501 100.8004189  81.5394688  57.2494698
   9.6194023  72.1204185  27.0502543   9.1378922  72.9425240  26.9579434
   9.1573853  71.5068007  26.4790750  62.3134691  33.4511804   0.3914027
  63.1948740  33.0889844   0.4818301  62.4514658  34.3915033   0.2774386
  14.4451648  77.4448287  43.9625072  15.3669292  77.4666583  43.7054014
  14.2325765  76.5128957  44.0129137  47.7574730  15.3329229  79.9033928
  47.8419447  15.9531474  79.1792250  46.8160200  15.1758444  79.9756289
  92.2096062  12.8701162  36.2911224  93.1159782  13.1746352  36.3358712
  92.2744751  11.9165397  36.3432312  20.3474456  97.8673505  60.1345778
  20.4220420  98.7258517  59.7178745  19.4567281  97.8475617  60.4845333
  52.5320005   1.5122303  57.2398853  53.0661345   1.2997295  58.0052471
  51.6300058   1.4653295  57.5568008  33.3770352  97.2205221  22.9910159
  32.6133329  96.6803943  22.7879047  34.1046077  96.6000318  23.0341220
  10.2484733  76.8234335  42.9897785   9.3187171  76.9219409  43.1949186
  10.6985885  77.0493065  43.8037872  24.4471341  87.1793329  49.1474485
  24.6638375  86.4102136  49.6744442  23.5079843  87.0986997  48.9809179
  27.1455794  97.7129661  25.3780723  27.6773912  98.4361040  25.7104540
  26.2435084  98.0234515  25.4561424 102.7587616  68.0221902  56.9623852
 102.1662795  67.7881681  57.6768303 102.1890532  68.4017908  56.2933826
  34.7016764   1.1402992  47.4557209  34.7407675   1.2940961  46.5117693
  33.8024282   0.8533491  47.6146030   4.7435552  81.0121571  39.7950506
   4.3311339  81.1111938  40.6531477   4.0164119  80.8320056  39.1991949
  36.7033225  99.3505334  47.8721714  37.5214654  99.7539209  47.5820780
  36.1892778 100.0775002  48.2236099  38.9054203   5.4739368  54.7749281
  38.8060904   4.8586589  55.5014229  39.7885966   5.8278120  54.8798084
 110.8487951  70.6109225  30.0258732 110.0817954  71.0631310  30.3772306
 110.4930388  69.8299276  29.6019411  60.2400875  18.0440998  39.5110774
  59.2896080  18.0460465  39.3978667  60.4107141  18.7660062  40.1160336
 107.5958311  70.1460277  62.2364187 106.9681298  69.4653045  62.4789906
 108.4525573  69.7432100  62.3778152  43.5673982  93.8283860  92.9712296
  44.2897492  94.0950929  92.4026299  42.7910214  94.2214214  92.5724792
  28.3444071  11.9019437  61.4895582  27.9896307  11.0182559  61.3923025
  28.4288812  12.2261488  60.5929041  81.1463928  39.8158050  82.2641563
  81.6652012  39.7427392  81.4630795  81.7615128  40.1469374  82.9185295
  25.8639270 103.6198597  78.6633539  25.0235110 103.6862563  78.2100105
  26.1322480 104.5277589  78.8046169 107.4892139   7.7923244  30.2757883
 107.5814438   8.5015309  29.6395874 108.1279469   7.9982692  30.9583187
  48.8282281  74.8752963  84.7925377  48.3737069  75.5264126  84.2580318
  48.5412866  74.0331065  84.4395351  84.5879459   6.0066122  56.2206030
  84.9865818   5.1389712  56.2878275  85.2837372   6.5634656  55.8712959
 107.1996342 105.4610755  28.8008976 107.9130494 104.8326134  28.6899662
 106.8626224 105.2881401  29.6799588  99.0743219  77.9841243  65.1420259
  99.0421497  77.0395576  65.2936411  99.2115199  78.3616315  66.0108709
  12.1001988  93.3789848  52.4649763  11.1694652  93.5986113  52.5065899
  12.4248248  93.5430800  53.3503723  14.1030437 100.3972672  82.8313732
  14.0439159  99.8775827  83.6330414  13.5674602 101.1708372  83.0073643
 100.1020622  21.8172812  35.4296970 100.1978016  20.9179497  35.1162124
  99.5952892  21.7366028  36.2377191  86.3421935  51.9104694   4.2585330
  85.5968875  51.5017338   3.8184313  86.0190076  52.1162040   5.1357131
  93.7141895  33.5976624  59.6921968  94.5960617  33.2424378  59.8033237
  93.6364651  34.2637777  60.3751850  21.3943130  43.7587606  43.8906240
  21.3147527  42.8923666  43.4915447  21.3602000  44.3667041  43.1520605
  43.9822817   0.5156914  85.4905128  43.6352491   0.8339383  84.6571350
  44.7894096   0.0582705  85.2548409  67.7094460   2.6824093  41.6416931
  67.8911114   2.6928088  42.5814390  66.8685865   3.1315425  41.5553141
 108.3423077 109.9770384  56.2378263 108.1563722 110.7297305  56.7991781
 107.7610909 109.2882988  56.5604019  70.5333519  12.8909624  80.7257557
  70.4113054  12.9386568  81.6739464  70.3679943  13.7820792  80.4178619
  25.4716092  55.0044309  40.9467745  25.6679374  55.6787693  41.5971279
  26.1427098  55.1181280  40.2737761  36.0251218  81.7994462  57.2857714
  36.9498473  81.7941581  57.5329304  35.9746057  81.2083851  56.5345526
  61.2114286  23.1677151  25.5862284  60.5558300  22.9883957  24.9122357
  61.1952162  24.1192436  25.6889915  47.3225194 109.3995479  82.6835918
  47.1050912 108.7181770  82.0474339  47.0723992 110.2173191  82.2535706
  29.9232322  74.8695790  60.7679415  30.0277120  74.0017067  60.3779221
  29.3567687  75.3402959  60.1565695  28.6104947  82.3251878  48.1536102
  28.4238559  82.2111069  47.2217369  28.4820872  83.2606160  48.3108330
  94.3618584   7.1119267  46.1593151  93.5477829   6.6448766  46.3474083
  94.0811062   7.9167551  45.7238102  62.4222040   2.5028035  48.7771463
  62.9473877   3.1250912  48.2739830  61.7565823   3.0417594  49.2045927
  18.9787274 103.9102315  81.6740131  19.7894412 104.0124457  82.1725368
  18.7500697 102.9862927  81.7754269  37.2224313  77.9398858  41.6533566
  37.5499564  77.0674669  41.8720865  38.0055982  78.4380375  41.4194202
   3.1127101  86.8634068  60.5485678   4.0615398  86.9874274  60.5725861
   2.8104955  87.4596344  59.8634338  46.3201028 109.0923524  44.0905237
  45.4415876 109.4720753  44.0744305  46.5157300 108.9023240  43.1729984
  14.4017964 100.5260020  54.6517563  14.6149474  99.6471821  54.3379498
  14.1124278 100.3943031  55.5546141  64.6878290   4.0179753  56.1539602
  64.5940161   3.1654605  56.5789890  63.8360882   4.1780081  55.7475615
  45.5585289  23.6641335  31.2257791  44.6737766  23.3159161  31.1153531
  45.8015442  23.9809370  30.3558302  75.5982351  33.1415486  48.2482529
  75.4187965  32.9999685  47.3187447  75.1832485  33.9808631  48.4471750
  15.8489400  97.2329389  41.6014051  15.0376731  96.9607519  42.0303440
  16.4638024  97.3763691  42.3208523 107.8343105  10.1207888  71.1917496
 107.5964069  10.3193867  72.0973921 107.8500080  10.9728479  70.7558775
  60.3280020  20.2963233  41.0855865  60.2032804  21.1687875  40.7121086
  60.7665682  20.4541373  41.9216442  83.8916969   0.2225912  61.9221878
  83.2884312  -0.4599547  62.2161865  83.7642956   0.9389731  62.5441170
 109.8480117  98.0079638  85.2817154 110.4486620  98.4304511  85.8956814
 110.4090750  97.7052783  84.5676994  79.8021173   7.1019065  81.4911175
  80.3841400   6.4359581  81.1250687  78.9404154   6.6853648  81.5051174
  31.6827470 104.0437417  18.1996679  31.9696313 104.9340611  17.9965389
  32.4950105 103.5471534  18.2989383  61.8912506  18.0599785  53.6049080
  61.8840313  18.3839381  52.7042246  62.7759695  18.2461345  53.9193153
  71.1198187  32.6006460  67.5576258  71.6544819  32.4388504  68.3349228
  71.0513353  33.5541153  67.5082493  21.0038930  80.9315025  49.7754049
  21.9475776  81.0773741  49.8418617  20.6644755  81.7351257  49.3814278
  77.2143412  10.4950702  75.1879454  76.4416933  10.0356817  74.8589897
  77.9431438   9.9042642  74.9981403  65.9940958   9.3942565  72.6649284
  66.1389303   9.1527289  73.5797596  65.7107258   8.5822088  72.2447920
  21.5221912 104.5941632  27.2684216  21.3121110 104.1865503  28.1086302
  21.9903499 105.3958558  27.5015450 103.3468628   6.4303362  70.0323200
 104.1966724   6.4094406  69.5922947 103.5605812   6.4995086  70.9627867
  89.6360082  49.9464379   1.6280703  89.3865508  49.0560906   1.8756346
  90.3046197  50.1941658   2.2666792   7.2240907 105.2213793  73.1016302
   7.9657680 104.8208587  73.5552073   6.7303639 104.4807749  72.7495384
  76.6298819  20.5986452  39.0038919  76.9878006  19.9800181  38.3671594
  76.9016027  21.4580607  38.6817098  29.9179441 104.6216833  90.9606647
  29.5483905 103.8613926  91.4096832  30.1963788 104.2849182  90.1090240
  68.5125017  11.4159799  51.8782902  67.6714325  11.0267365  52.1177053
  69.1563416  10.9317160  52.3951960  25.2503568  88.0190073  42.4134874
  24.6064216  88.0120765  43.1216764  24.9881679  87.2954856  41.8442726
  81.9007397  36.5697861  39.4855356  81.7037296  35.6956315  39.1489768
  81.0432148  36.9617510  39.6506310  52.3888588   4.0218577  84.2684841
  52.3342705   3.0662245  84.2726707  52.4235868   4.2638326  85.1939392
  93.9864540  29.4899082  34.1490531  93.7139797  28.6088157  33.8927937
  93.1737518  29.9951601  34.1706228  39.6656656   2.3835590  64.9186420
  40.5123186   2.5991970  65.3096771  39.8368812   2.3551387  63.9773083
  57.5110036 109.7146400  23.0577612  56.8086988 110.3143656  23.3094025
  58.0181104 110.1994465  22.4065828  56.9881630  12.8197801  64.5021677
  57.8885841  13.0788708  64.3063641  56.4651060  13.2340324  63.8158464
  59.5976782   3.6310109  29.1609025  59.0230513   3.2186466  29.8058772
  59.5910931   3.0304262  28.4155917  24.8862868 105.1678162  55.2169561
  24.2666322 104.6226959  55.7018280  25.1191932 104.6426343  54.4513369
  79.4928408  31.5214252  53.3798265  80.1607132  31.3306475  52.7212000
  78.6622190  31.4193940  52.9151869  63.2253504  33.2532191  62.4721050
  64.0870333  33.4296918  62.0944929  63.4105778  32.7610779  63.2719278
  43.2081967 106.7200570  87.3412323  43.3734494 106.9917523  88.2440662
  42.9662686 107.5279515  86.8884563 101.5759789  99.0761601  47.5297117
 101.9037949  98.6518191  48.3226204 101.7631709  98.4515869  46.8289280
  41.7569733   0.0705243  70.5179167  41.7821312   0.6407773  71.2862968
  40.8282185  -0.1265232  70.3961897  67.6581383  25.4098415  67.9531813
  67.7460194  25.1651692  68.8744020  66.7161608  25.3789949  67.7859831
  64.8831558  34.1729069  25.7754254  65.4726458  34.5084023  25.1000166
  65.3663683  34.2877865  26.5936780  42.6097345   7.7718848  35.4017091
  42.6648569   7.5011373  34.4852543  43.2874441   7.2604501  35.8437228
  73.0873680   6.2692708  28.0297256  73.6252451   6.7423326  27.3948026
  73.5000372   6.4491814  28.8744545   5.5355817  86.2242280  27.0855904
   4.9703055  86.3633405  27.8454185   4.9749309  86.4109646  26.3325739
  43.8902569   4.5806769  68.8814974  43.4711933   4.7450233  68.0367422
  43.8201380   5.4126894  69.3495464  79.3406725   3.4886098  54.7271490
  79.8480844   4.0036809  55.3544188  79.8193932   3.5757473  53.9028549
  14.7652799 105.1200031  76.5117311  15.0329524 106.0231580  76.3417530
  15.5869323 104.6483343  76.6482639  80.0698376  20.3147364  61.5252209
  80.0625515  19.6155047  60.8715773  80.0456715  19.8572195  62.3656559
  41.2911016  94.8553096  57.1433973  40.7580453  95.4443645  56.6094494
  41.9448930  94.5078324  56.5367270   0.6520921  92.7449833  74.8548460
   0.8857041  91.8784606  74.5219851   0.9421664  93.3500015  74.1721773
 112.4623882 106.5072512  82.4610138 112.2721159 107.3881724  82.1385098
 113.3876049 106.3719099  82.2563362 116.1807954  95.0604390  57.0996857
 117.0013963  94.5788776  57.2042894 115.8546674  94.7940563  56.2400818
  22.7565604  97.5065576  67.5071287  22.1946460  97.4338876  66.7356348
  22.1543056  97.4459981  68.2486486  93.8287627 100.6935601  40.6897831
  93.2707845 101.3661914  40.2993250  94.5940255 100.6545316  40.1161289
   6.6407710  99.7175776  64.0420771   6.0468370 100.2966844  64.5196819
   7.5150615 100.0479900  64.2486668  71.6538048  37.3932505  39.6424294
  72.0876694  37.0426440  38.8645697  71.8338585  38.3329344  39.6140432
  15.2781707  92.7634489  68.4279966  15.0443679  92.1240770  69.1008759
  15.7625180  93.4411596  68.8995361  16.0009032 100.3755098  68.2297707
  15.1869184 100.8711170  68.1401157  16.2125283 100.4290908  69.1617441
  77.3686361  14.1804159  82.9092216  76.4202690  14.2112899  82.7831936
  77.4882174  14.2822313  83.8534451  33.9096194  98.3778619  63.0188751
  33.6050492  97.6585626  63.5721207  33.8089877  98.0514466  62.1246958
  92.0992184  11.2639832  84.7079372  92.7856827  11.0835111  85.3501415
  91.4706707  11.8127334  85.1770210  52.7705270 102.4720501  32.0888829
  53.2163411 102.5384223  32.9333162  53.2287007 103.0964916  31.5264082
  83.4103584   8.7208050  34.0360212  82.9560852   8.9011657  33.2130170
  83.7089539   9.5787174  34.3377829  85.1687050  16.4587057  70.9739447
  85.6779385  16.4387798  70.1636839  85.1180744  15.5428529  71.2475920
  75.5527353  18.6680710  26.2537742  76.3899851  18.4844959  25.8277011
  75.4456091  17.9583967  26.8871140  82.6873302  26.4679337  52.8722095
  82.4004650  26.0320735  53.6746836  82.0002556  27.1086907  52.6889277
  79.9190331  37.2120976  43.5831118  79.0770102  37.5618553  43.8744879
  80.0802422  36.4648175  44.1591454  85.5362892  26.2759972  61.2694740
  85.7076454  27.2176194  61.2841988  84.6316910  26.1924267  61.5710592
  56.9297010  99.0507745  50.1617002  57.0627004  99.9809824  50.3440619
  55.9883481  98.9172207  50.2723074  67.1733284   8.0426377  80.1137924
  66.4677525   8.5981750  80.4451275  67.8527451   8.0918097  80.7862568
  83.0581570  12.2416997  50.8890724  83.0632782  12.4719858  51.8181467
  83.7322426  12.7991819  50.5004120  15.2313119 101.4296954  76.5406895
  15.9335595 101.5118789  75.8954573  15.6794721 101.4493017  77.3862648
  45.9514600  88.9793598  54.4303131  46.5759545  88.2670628  54.5676756
  45.3554040  88.6490070  53.7581396 102.9455376  12.7547967  74.2177773
 102.5377846  12.0664668  73.6922503 103.6780357  13.0618322  73.6835384
  77.6542282  13.8710403  58.3083677  77.8633165  14.8024952  58.2383394
  77.2591734  13.6501753  57.4649334  68.2382661 102.3143362  84.5615578
  67.7727109 103.0926948  84.8675823  67.6281243 101.8928122  83.9563465
  36.9138127  88.0555116  29.9916339  36.1950236  87.6204216  29.5330811
  36.5085107  88.4254061  30.7759452  96.5281963   7.5830555  26.6404390
  96.1482716   7.7345693  25.7750297  95.7891369   7.3039979  27.1809530
  56.3632202  29.7958708  88.2824039  55.6406593  30.1918840  87.7952576
  56.9524813  29.4607806  87.6065922  93.0862427   7.3754215  62.6747417
  92.3671341   6.9555658  63.1467867  93.6081409   7.7959371  63.3581352
  34.1326362 108.6485065  49.8189831  34.4082957 108.4900188  48.9161444
  34.7004205 109.3571037  50.1218843  46.6697007 103.5480528  12.8850615
  46.0123044 102.9070180  13.1554842  46.1914617 104.3758189  12.8368795
  91.5414238  29.6933985  28.1109095  90.9896088  28.9575839  27.8457570
  91.7029858  29.5478988  29.0430903  89.5905685  13.4668589  54.2479515
  89.6514225  12.9529679  53.4426880  89.1945744  12.8704512  54.8833418
  44.5659715 105.3271227  52.2401142  44.8485356 104.4551109  52.5157690
  45.3730756 105.8405458  52.2052622  46.3385945  85.1921546  49.0041924
  46.1155301  85.8762537  49.6354437  46.2088567  85.6033074  48.1495857
  94.1403675  26.6519737  60.6505728  94.1677666  26.8662786  59.7180700
  93.5253620  25.9209299  60.7103539  56.4753914  14.9479175  47.7053261
  56.4955044  14.6758199  46.7878342  55.5440474  14.9904466  47.9221725
  90.4228497   0.9868945  73.7204456  90.7853127   1.2298939  72.8685045
  90.9861469   1.4293388  74.3554020  19.2043620  95.9246444  91.6427422
  19.3561297  95.0848662  92.0763016  19.2921382  95.7316123  90.7093239
 109.4790936  22.8965640  82.3182678 109.6279240  22.1139741  81.7875767
 110.3040886  23.3795118  82.2694588  69.5772457  28.3498287  86.9502354
  70.3862000  28.1121802  86.4970875  69.7803736  29.1784596  87.3842144
  79.9426317  22.8924251  46.5023041  80.4399395  22.4064970  47.1601677
  79.1299105  23.1339502  46.9465828  85.7761735  15.1313792   7.6042895
  86.4042062  14.4807635   7.9181437  85.3548402  15.4601322   8.3984046
  16.7386466  83.2588970  74.3501711  15.8568746  83.6217295  74.2661381
  17.0254785  83.1152307  73.4483290  55.8649683  31.8223882  53.6857176
  55.9109974  31.2696052  54.4658136  56.6844034  31.6506290  53.2217646
  15.0823480 102.9160362  65.5464983  14.7480374 102.8020005  66.4361429
  16.0235530 103.0486928  65.6594896  34.6520835  90.7558595  95.1029205
  34.0279990  91.4691376  95.2370262  35.2055198  91.0543620  94.3812370
  21.5274554 107.7563869  67.7398777  20.6328326 108.0776668  67.6273441
  21.8830281 107.7218746  66.8518400  91.8175983  21.7270279  75.3575897
  92.6253986  22.2168326  75.5118179  91.1770630  22.1309996  75.9430408
  68.6375523  14.1098130  66.9410801  68.5958433  14.7254097  66.2092781
  67.7585506  13.7338257  66.9881773  87.5471592   1.3215502  73.5399294
  88.4836102   1.4366905  73.3785868  87.3373604   1.9736193  74.2085266
  78.5778379   0.7619195  55.0060177  78.3958960   0.4125668  55.8784151
  79.0185499   1.5958360  55.1690769  15.2757115  37.7771378  53.1670856
  15.6607670  36.9953203  52.7712011  16.0257668  38.3336687  53.3766603
   4.8425240  47.5003624  76.9692135   4.0187020  47.1658087  77.3236418
   5.3997368  46.7264175  76.8869972 101.1310387  14.3365037  66.5327835
 100.3348351  14.0893245  66.0624695 101.0689735  15.2871621  66.6256857
  10.7538110 109.8555391  40.6617546  10.6075603 108.9245681  40.4940224
  11.6038304 110.0402394  40.2622795  76.5070248  35.7009983  11.8830395
  76.3014889  36.2779784  12.6186204  75.8200455  35.8781457  11.2404585
  49.1344720 104.8220335  43.5065842  48.9575368 103.9811723  43.0848265
  49.1136056 105.4578229  42.7913427  54.2102957   3.0661467   7.6314330
  54.2417860   3.1659839   8.5828912  55.1273870   2.9895625   7.3681593
  87.1061134  30.7661772  67.2289085  87.7264786  30.6646323  67.9507589
  87.6309395  31.1176634  66.5097094  76.4900112  19.9894476  33.8120317
  75.6032610  19.9258447  34.1668010  77.0333910  20.2205133  34.5654082
  76.9734097  46.1937380  73.2032585  76.0448933  46.0011911  73.3336878
  77.2043800  46.7661715  73.9348316  18.8747150 106.3207372  69.9741077
  18.2506686 105.7128056  70.3706169  18.3747035 107.1266150  69.8445559
  56.6577893 106.7953073  71.7538643  56.0082513 107.1253826  71.1330748
  56.6958600 105.8542555  71.5829706  35.8421403  94.3851983  17.7578247
  35.5360633  93.8094806  18.4586072  35.5476981  93.9597177  16.9525278
  70.2800274  19.6281183  43.3386230  70.1546669  19.0367591  44.0807867
  69.5075512  19.4912636  42.7901840  69.2673379 109.8198537  61.0954523
  69.8188859 110.5862345  61.2525511  68.8313180 109.6628134  61.9329834
  18.6426812 105.2918895  58.8516808  17.8081018 105.6864916  59.1046619
  19.2959100 105.7578599  59.3735981 116.5854663  58.0117960  21.6605811
 116.5186948  58.8218842  22.1660761 116.0854119  57.3716244  22.1668963
  70.2243185  22.3986626  55.1231003  69.3219614  22.6010704  54.8760891
  70.2725077  21.4431739  55.0922537  34.9885303  82.0778786  71.2143183
  34.4447833  82.2385990  70.4431200  34.6465283  81.2634193  71.5829945
  86.6960716  21.6646314  24.0218830  86.4158440  22.3511887  24.6271491
  86.6818237  22.0835447  23.1613374  41.5781289  92.6051449  74.7227335
  42.1436006  92.9329144  75.4220438  42.1772462  92.1774208  74.1109037
  10.3024924  74.6792088  15.8021883   9.5927203  74.1658316  15.4163222
  11.0376800  74.0686355  15.8563475 102.0775700  13.9368463  71.0906935
 102.9772568  14.1780043  70.8701611 101.7444515  13.5080624  70.3024006
  96.5720529  29.4766198   5.4245429  96.6922540  29.9115573   4.5803790
  96.4159459  30.1911484   6.0420470  78.6567354   4.0806684  38.4416676
  78.8245058   4.1724798  37.5037670  78.9556503   4.9073297  38.8204980
  31.1481316   1.8091583   6.0217623  30.6272394   1.4302873   6.7298369
  32.0413763   1.5128707   6.1965613  29.6767789  98.4801423  64.2407131
  29.0257579  98.0875575  64.8223305  29.8817235  97.7898823  63.6100197
  78.6925411  31.2474942  43.3280945  78.8594007  31.1977410  44.2693233
  78.2711220  30.4148364  43.1152153  64.7330666   0.1457996  36.7412639
  63.7868023   0.0714785  36.8649220  64.9201727   1.0746259  36.8772984
  80.6613922   3.1074548  79.3012714  80.6705379   3.5960212  80.1243496
  80.2169800   3.6877403  78.6832142  38.9001638  86.5358912  55.8038330
  38.2710391  87.0080887  55.2584314  39.4694549  87.2187006  56.1586714
  95.1060009  16.6960883  56.5068722  94.7782993  16.2424493  55.7303047
  95.4555702  15.9989190  57.0618391  27.3455358  16.2889564  47.4788332
  27.2285175  16.1193919  46.5440702  27.3688245  17.2433662  47.5480509
  70.1227951  13.3054292  57.1834421  69.3537331  12.7970433  56.9259214
  69.8306608  13.8157141  57.9387522  32.2616553  17.5965869  74.8069096
  32.0148373  17.3671746  75.7028341  31.4295864  17.7665639  74.3653154
  71.6010571   2.1405575  27.1858978  71.7205429   1.5256290  26.4621449
  71.8038082   1.6301048  27.9698372  89.8618507  25.1726484  43.8895941
  89.3860531  25.8746505  43.4456968  90.7194996  25.5504775  44.0843010
  71.4208364   0.8055983  68.5794973  71.0783100   0.9354848  69.4638252
  70.8139944   0.1847287  68.1763887  81.9435406  24.6148515  46.0544109
  82.7502918  24.1257501  45.8926153  81.2777138  23.9406013  46.1896801
 107.2144794  31.9059086  65.1104784 107.5285721  31.1183691  65.5547237
 106.3539886  32.0711899  65.4957962  69.2568731   0.3045318  53.1994343
  68.3374643   0.4886448  53.3918428  69.5555353  -0.2232328  53.9400387
 107.8368092   8.1364828  64.7418976 107.2220135   7.4103588  64.6369982
 107.6220894   8.7371135  64.0281916 100.5341911  42.0630884  95.6100464
  99.6407795  42.0099211  95.2706146 101.0019207  42.5998878  94.9702740
  90.9003639  13.2385325  58.9057255  90.0199318  13.5922217  58.7793159
  90.8437729  12.7410185  59.7215128  97.5511074   0.9089596  43.2841778
  97.6866531   1.2167373  42.3880005  96.9878387   0.1406706  43.1909466
  58.3268690  29.4474792  58.4885025  58.2395506  29.7755384  57.5935221
  58.0548382  30.1809645  59.0400696  41.0858995  84.7425043  63.9879274
  41.5416509  84.4268524  64.7682333  40.3030187  84.1948163  63.9298201
  57.5203228  23.1267381  36.6267848  57.9959965  22.3441720  36.9052792
  56.7698288  22.7894545  36.1376715 111.5343475  17.2335327  37.2226596
 111.6786480  18.1788635  37.2645926 110.5821037  17.1368909  37.2110033
  46.3966161  65.5880558  91.5769482  45.9325582  65.0064336  92.1791077
  47.1739465  65.0934183  91.3175011  65.0262547  17.2276306  60.3565454
  64.3873024  17.9361987  60.2797413  64.9479628  16.7443192  59.5340443
  53.8509750  28.3117986  47.1247721  53.0550051  28.7682891  46.8522263
  54.1241550  28.7628531  47.9236174  71.0508013  30.7412672  51.6342831
  70.8283186  30.0251245  52.2291517  71.2381792  30.3104424  50.8003092
  85.6587410  23.4268689  80.5617142  86.5611362  23.1404996  80.4206181
  85.3005695  23.5330105  79.6804237   3.6681599  29.1651011  31.2128615
   3.2626576  29.6070433  31.9588423   3.2183213  28.3218050  31.1606073
 108.1766862  94.9825440   6.9228892 108.9404649  94.4244657   7.0692591
 108.4981126  95.6850158   6.3576941  46.2257463 102.2240453  68.4255362
  46.3844377 102.8114777  67.6866388  45.5781919 101.5989237  68.0997658
  59.1977960 104.0642302  76.2970638  59.6710664 104.8719089  76.0973024
  59.8457128 103.5075437  76.7289591  51.5405541  95.5708872  65.5922031
  52.4138337  95.4741012  65.2124071  50.9653836  95.0921868  64.9953270
  64.2231798  19.8597753  12.9074919  63.3275557  20.1936364  12.9586875
  64.7306252  20.5890059  12.5511825   7.2141785   0.2092625  63.4193754
   6.8495220   0.2586272  64.3030167   6.4797253  -0.0693628  62.8724051
  65.0228214   2.8897473  44.6685028  64.3188190   2.2523282  44.5488787
  65.4476357   2.9409173  43.8122606  69.0201616   9.9011445  64.9687958
  68.9825010   9.4040060  64.1516876  68.8771296  10.8095849  64.7032595
 105.9607983  20.5735540  77.6623011 105.8266068  19.9717772  78.3944798
 106.3855648  21.3366008  78.0541754  21.7522174  98.3628117  37.3006845
  22.0021182  98.2014083  38.2104802  22.3216659  97.7872013  36.7901611
  21.7092067 100.5865138  61.9683123  22.3279792 100.9641164  62.5934219
  21.3219625  99.8446619  62.4329948  20.9248096  98.2798432  63.1449938
  20.9672242  98.1043350  64.0850115  21.0274201  97.4205112  62.7360296
  65.9724569  43.4221888  67.9764843  66.2149525  43.6330986  68.8781166
  66.7297649  42.9512739  67.6286888  88.1002712  21.2568760  63.9856291
  87.9080200  21.2278938  64.9228764  87.5378704  21.9535851  63.6471987
  92.5734138   2.3988728  40.5545473  92.2228336   2.0435971  39.7377825
  91.7987823   2.6207560  41.0712147  45.9172612 103.8962167  20.7941389
  46.3483506 103.1985252  21.2877202  45.0141221 103.8911091  21.1112237
  49.4730264  75.0717627  36.5690541  49.2893487  75.2303993  35.6431341
  50.3853494  75.3387343  36.6814208  99.8565769   1.9680122  70.6631613
 100.6290436   1.8761003  70.1054192 100.2046013   1.9767268  71.5548038
  84.8996925  37.5557566  56.4674139  85.3368855  36.7663670  56.7867279
  84.4142437  37.2650313  55.6953716  77.8242970   0.3829674  71.6797113
  77.1908855   0.3200146  70.9648275  77.9679251  -0.5230962  71.9529343
  91.2392902   3.0909312  82.4468708  91.2592506   2.2503927  81.9893456
  90.3143406   3.2315853  82.6491928  72.2048378  36.3425326  49.2645502
  71.5099001  36.8843246  49.6383953  73.0144453  36.7221880  49.6060658
  50.2657652  24.7804904  84.9612141  50.7637978  24.1192269  84.4806576
  50.4623842  24.6063590  85.8816719  33.1648761 109.8375950  35.2109194
  32.9400378 110.5088428  35.8552074  33.2008916 110.3076886  34.3778849
  61.9656610   4.4267553  40.4861116  61.8949080   3.5824248  40.0407648
  61.8166304   5.0742221  39.7970462  64.4994545   0.3466357  48.5143280
  65.0221539   0.4555458  49.3087864  63.9215517   1.1095846  48.5013819
  46.5018368  12.7216744  30.6840944  47.4529028  12.6204717  30.7222915
  46.2938023  13.3069026  31.4124227 106.1416685  90.1633154  67.0385361
 106.2139522  91.0930537  66.8226767 106.5352499  90.0879513  67.9078150
  51.5005189 104.0244364  75.9752798  51.8557435 103.2029580  76.3147306
  51.1823159 103.8041632  75.0998068  57.1103048   9.1378379  70.9772587
  56.8269253   9.7804248  70.3268671  57.7310324   8.5801512  70.5083084
   8.6023122 103.5765033  74.8596716   8.9883596 103.9014672  75.6730604
   9.3496495 103.2726376  74.3445158 107.7822590  59.0638208  79.1717863
 107.3409367  58.5482073  78.4968042 108.3862686  59.6262217  78.6869097
  24.1263610 109.1334045  33.0994487  24.9237376 108.6686832  33.3533382
  24.4393235 109.9137528  32.6419091  48.3788377 103.0662464  95.2614498
  48.1754190 102.6515787  94.4230556  47.5693685 103.5121392  95.5107784
   2.1919502  56.1197483   0.3505950   1.4089692  55.9578857  -0.1756711
   2.5660670  56.9206060  -0.0166841  24.9231988 107.9489029  55.6603813
  24.7163230 107.2729324  55.0150156  24.0887481 108.1307470  56.0926437
  67.0379686  15.8535564  71.9480610  67.1585512  15.4008067  72.7827549
  67.4639750  15.2871895  71.3046503  62.2240162  16.4579308  28.4216070
  61.6156435  16.8087351  27.7711868  62.4206066  17.2015917  28.9913034
  83.1879902  27.6163340  57.9097843  83.5876179  28.4118032  57.5579929
  83.8143158  26.9224024  57.7038527  90.4034138  13.9200926  79.5119667
  90.1792336  13.2722890  78.8438892  90.0538921  13.5561168  80.3253460
  29.4691211  76.7039668  35.9821963  28.6840564  77.1417057  35.6531143
  30.1917678  77.2657453  35.7021713  30.3651452  21.5302563  26.5295506
  30.8621192  21.3168836  25.7397914  31.0063648  21.4755464  27.2381258
  13.1719810  96.5947711  68.6516047  12.4067622  96.0427724  68.4904575
  12.9441243  97.0977031  69.4335079  63.4448224 103.7154101  61.5334415
  64.0394002 103.1212591  61.9913673  63.8392430 104.5806276  61.6432762
  81.0875130  17.3557043  54.3283653  80.5636597  17.7008355  55.0513458
  80.8482838  16.4301562  54.2797565  86.9338626  50.8334802  16.2330966
  86.1367244  51.3624091  16.2008338  87.6455707  51.4734276  16.2460570
  96.3011932  22.3024511  46.8904924  95.7624245  22.2853684  47.6814842
  96.9073582  21.5694404  46.9976997  73.3371162  25.3687406  63.5360765
  73.0895805  26.2586546  63.7870979  73.7850761  25.4725266  62.6965570
  86.3008499  19.1992915  46.6556501  85.8603287  18.6989892  47.3425770
  87.2110271  19.2555690  46.9465828  47.8211003  93.0119680  61.0914946
  47.3672563  93.8529133  61.1468315  48.7377721  93.2438611  60.9426117
  57.3199731  86.4002406  44.5350170  56.7046052  86.2929069  43.8097286
  57.1471006  85.6534468  45.1082945  62.8039694  28.3715034  49.6798038
  61.8549109  28.4595609  49.5916986  63.0816841  29.1841316  50.1025867
  78.8707638  14.4268560  50.2213526  78.2265711  14.1273928  49.5798111
  78.8427448  15.3817475  50.1611137   2.0222134  21.6137052  45.7334995
   2.1599716  20.8076715  46.2310553   1.9286675  22.2938657  46.4004803
  68.7370872   1.5528254  83.0750561  68.3493757   1.5576223  82.1998978
  68.9661312   0.6365296  83.2305241 101.3125515  61.5061092  83.3297348
 101.6561699  62.3730707  83.1140232 101.6709900  60.9313250  82.6534367
  40.7371932  90.3842830  42.0479822  40.1084739  90.2237474  42.7516699
  41.3782674  90.9827565  42.4314976  60.9595966  13.8171005  81.3233948
  60.7653189  14.5141578  81.9499779  61.8328857  14.0283418  80.9932804
  59.0359688   5.6172007  74.3722200  58.5481882   6.3930589  74.0959120
  58.7559366   5.4672188  75.2751684  62.9498386  14.5845449  56.6129446
  62.2132111  15.0935423  56.9513655  62.5764894  13.7258053  56.4144230
  87.8419495   5.4611862  67.0325661  87.0934963   5.1007503  67.5081158
  88.0435467   6.2788743  67.4875116 100.4424381  38.1443882  67.7621794
  99.9355793  38.4485102  67.0092916 101.0317898  37.4815845  67.4021959
  90.9181213  29.8481607  44.3965816  91.7678642  29.9798417  43.9760733
  91.1138821  29.3240976  45.1732779  86.5741062  -0.0987576  60.9524250
  86.7956066   0.7649260  60.6042576  85.6990051   0.0102692  61.3246298
  49.1162348   6.9639444  51.3464499  49.7818756   6.6982818  50.7119560
  49.1984415   6.3304228  52.0592785  45.6738997  22.2402453  17.2568679
  46.3646698  22.5358987  16.6638601  46.1268616  21.6926026  17.8980732
  93.0738926  13.5366309  30.1096869  93.1669617  13.6705089  29.1664743
  92.6173306  14.3190992  30.4187655  93.5773945  42.7915096  48.4201002
  93.6007786  43.5259438  47.8066730  92.6460838  42.6529217  48.5923958
  61.0262853 107.1933334  28.9348936  61.3607007 107.0726492  29.8236227
  61.4430791 106.4981793  28.4257007 110.6703889 105.9540926  18.9988577
 110.7408034 105.2410274  19.6335328 111.0042249 105.5820148  18.1825590
  43.7916565   1.0510811  48.8866186  44.0462446   1.0318962  49.8091412
  42.8346968   1.0655215  48.9024925  78.6063385  14.8711848  73.0678558
  79.0680313  15.5369711  73.5775661  79.1096354  14.7986794  72.2568893
  38.2116872  93.4381305  79.5828819  38.6597568  92.5948726  79.6490622
  38.1948978  93.7714921  80.4799938  21.7150575 107.8942219  78.5922623
  21.4586955 107.7437653  77.6823854  22.6685649 107.9727714  78.5625887
  70.4400921   4.8043394  51.8499041  70.2967072   4.0695632  52.4463701
  69.8308277   4.6493104  51.1281013 111.1525440  27.2966957  61.8534946
 111.7903900  26.9423914  62.4730492 111.4413929  28.1963658  61.7005634
   6.5931362   6.3885200  51.2476921   5.7708020   6.2416631  50.7803392
   6.9744438   7.1582812  50.8254290  24.4148583  35.8581710  54.7481871
  24.4703144  36.6843390  55.2283955  24.7921700  35.2097774  55.3427124
  65.6741047  24.5775652  52.3640442  65.7369375  24.3890238  53.3003855
  65.7660866  25.5284739  52.3045015  99.5084095  27.2560334  91.7349339
  99.7932625  27.6471281  92.5608540  98.7199879  27.7443910  91.4980221
  92.3661518   7.9005384  38.9931345  92.1166897   8.5746610  39.6252394
  92.3282051   7.0821905  39.4882083  73.1258535  38.9603353  59.6808481
  72.4587011  39.1665268  60.3355455  73.9570332  39.0754509  60.1414108
  59.4350433  14.7082186  73.5010910  59.5350170  14.1245532  74.2531395
  59.4366550  14.1241586  72.7427387  71.6015959  29.0679479  39.1758299
  70.7164478  29.0989256  38.8128066  72.1609306  29.3955135  38.4715033
   3.8129216 102.4951022  84.9434185   3.4184199 103.2636236  85.3556919
   3.5942441 101.7703109  85.5291557  73.6694384  24.0571451  67.6272440
  73.2858515  24.7436643  67.0815516  74.0163612  23.4203815  67.0024157
  65.6366682  35.8590722  30.5561018  65.9676361  36.5387487  31.1432409
  65.8364534  36.1831427  29.6778655  88.0811024  53.5243845  69.3718147
  88.9127254  53.6953259  69.8138618  87.4835014  53.2711649  70.0753689
  56.0863858 109.8329543  19.8950768  55.5295354 109.0846684  20.1100612
  56.9371492 109.4465584  19.6873975  49.0932351 108.5750750  84.8308468
  48.6504537 108.8700395  84.0351200  48.7313348 109.1263044  85.5246735
  28.4994823  91.7100214  46.3172436  28.1347114  92.1776818  45.5659294
  29.2382556  91.2187695  45.9579182  42.9951459  64.3638813  47.9114866
  43.3899385  64.1742097  48.7625980  43.5656720  65.0285779  47.5255966
 102.6894379  18.9484000  61.2613058 103.1208324  19.4189417  60.5480576
 102.2766781  19.6345568  61.7857599  71.0148478  22.3890114  66.8761873
  70.5014086  22.2766209  67.6761770  71.7685366  21.8104267  66.9920444
  67.6097965   2.1060471  57.1234131  67.8343439   2.1921599  56.1969185
  66.7982721   2.6042780  57.2204876  81.0019112  47.1394777  47.9838228
  81.2457848  46.5087557  47.3063660  80.0447941  47.1452904  47.9722834
  77.4193430   8.5508102  57.6314211  78.1445122   8.2467324  57.0856237
  77.0487785   9.2890811  57.1478176  77.7730942  38.5631824  44.7980309
  77.6527691  38.4214473  45.7369995  77.2144890  37.9059100  44.3830729
  77.7205515   4.3915746  49.2785168  77.5310898   5.3296846  49.2615891
  78.4971523   4.3140274  49.8326921  58.4119940  35.3408837  29.6635675
  58.4972715  34.4295335  29.9435711  57.4675989  35.4913473  29.6221423
  12.9468995 101.5880995  12.8715944  12.0668059 101.2646907  12.6790464
  12.8369552 102.5330310  12.9776561  60.7121801  10.6488061  19.1633296
  60.5838346  11.5535045  19.4484246  61.6470385  10.5901146  18.9662826
  35.1401073  79.9525248  45.7864523  35.4783422  79.6447979  44.9455404
  35.0548917  79.1591417  46.3151455  11.3402027  41.3790464  56.8010759
  11.1967701  42.3091316  56.9759989  12.2830719  41.3057661  56.6532040
  51.0111904  35.8273292  39.9743152  50.7605743  34.9326086  39.7443175
  51.9209385  35.7545471  40.2629328  63.9766264  33.3422565  80.1715946
  63.4480429  33.2029152  79.3858290  63.6305857  32.7157974  80.8072281
  88.9526463  27.0753956  41.7967987  89.7889042  27.0793796  41.3310862
  88.2932377  27.1346712  41.1054993  26.3075095 109.9871483  53.6151409
  26.7058879 109.1640460  53.8980389  27.0480710 110.5796734  53.4858561
  80.1214027  22.2012377  59.6363497  79.7824001  23.0562568  59.9013948
  80.0138187  21.6501403  60.4115582  67.2378999  82.8651153  35.1193619
  67.7954942  82.7616989  35.8904839  66.9541246  81.9757258  34.9079704
  49.8613214  15.3334069  47.1965885  50.6965780  15.7307160  47.4430084
  49.5165634  14.9741304  48.0140829  56.2062740  13.2791436  38.0617237
  56.8935680  12.6154113  38.0041051  55.7874346  13.2655537  37.2011304
  60.2435064  24.3546772  84.7964191  60.9374332  24.8235607  84.3329048
  60.3479433  24.6156764  85.7114029  90.2357674  14.2153275  47.7658653
  90.4129124  14.5294178  48.6525440  90.9904575  13.6672640  47.5506687
 111.2320805  33.6547828  30.2706695 111.8608475  34.3700600  30.3669286
 111.7421246  32.9362249  29.8968196  92.8343678  22.2430229  33.3461738
  92.5881195  22.9271817  32.7236605  92.0365334  21.7272830  33.4632421
 116.5360355  48.7987280  65.1296568 117.1628094  49.5151711  65.0292110
 117.0664787  48.0546045  65.4145002  43.5589295  95.2079593   5.8365393
  44.2187196  94.8231839   6.4134765  42.8016072  94.6283399   5.9186739
  74.0047550  32.9404521  59.1359282  74.4315243  33.7711811  59.3456745
  74.2886305  32.7440596  58.2431364  67.9443026  11.6341007  17.9991376
  67.9698706  11.0950696  18.7897217  67.0133400  11.7066240  17.7887046
  83.0037308  38.4071851  44.8887777  82.5737000  39.1974211  44.5619249
  82.8242207  37.7437997  44.2224979  91.1273098  20.8482504  80.0290680
  90.3106213  20.9370255  80.5203629  91.2639141  21.7093110  79.6339130
  32.0890456 101.2288093  55.5607557  32.8387099 101.8019842  55.7210875
  31.6759187 101.5887116  54.7758818  86.6930485  47.1843910  75.0250530
  86.9215107  46.5108204  74.3844748  87.0083904  46.8378973  75.8597565
 103.8698196  11.3366568  20.7648849 103.0666447  11.2212896  20.2571058
 104.4766045  10.6906247  20.4033828  80.2109814  34.2334914  73.2349300
  80.5239296  33.9207315  72.3861170  79.2603827  34.1294789  73.1928825
  23.6433059 102.9793649  56.7759562  24.3210202 102.3035472  56.7617798
  22.8340560 102.5113933  56.5701628  65.7299900  33.1964850  60.1754236
  64.8574448  33.3349466  59.8070145  66.0260153  32.3731613  59.7871685
   2.5187344  24.3412042  55.4263735   1.7838902  23.7298417  55.4760408
   3.0934758  23.9709449  54.7564411  77.2261477  38.5701799  68.8789988
  77.7440166  37.8811216  69.2952204  77.3366976  39.3306828  69.4496536
  89.8915005  39.3896890  69.3273306  89.5436287  38.5974145  69.7366190
  90.8355427  39.2392850  69.2784309  76.6550875  19.5837772  62.8923607
  76.1143208  18.8385320  63.1539154  77.4643850  19.4798100  63.3928251
  85.6479073   9.0378863  48.7990570  85.2443886   8.2325786  49.1229153
  84.9985123   9.4073337  48.2006979  73.6089945  50.0167131  13.7267494
  73.7666893  49.5582819  12.9013979  73.9815044  50.8880520  13.5917211
  71.5793753  45.9280396  51.9230318  72.3573446  45.9099531  51.3656521
  70.8931875  46.2936640  51.3647318  81.4889812  26.5381002   6.7951024
  81.2277985  26.8703127   5.9362370  80.7938290  25.9260249   7.0366806
   5.8396972  88.1696854   5.3545050   6.1453784  88.8426815   5.9626727
   5.7277740  88.6310015   4.5233016 109.4950199  36.1690044  95.4401875
 109.5954895  35.4804420  94.7829056 108.6300945  36.0135436  95.8196259
 103.3507520 100.9205930  47.6885509 102.5323182 100.4282819  47.6251316
 103.9916211 100.2808957  47.9988861  86.9106674   4.8465025  33.3578587
  87.2053528   5.1303101  32.4924994  86.3292694   5.5466783  33.6544394
  79.2373133  37.4935627  70.9406853  80.1506424  37.6992273  71.1400986
  78.7326384  38.0138779  71.5658283  84.2220879  41.5615082  41.4391136
  84.0694141  41.7288828  40.5091095  84.7752857  42.2882318  41.7256069
  56.9751596  39.3747663  87.1092129  56.9785929  39.5737314  86.1729240
  56.0567808  39.4532347  87.3673820  93.5171509  50.5884314  90.0389862
  94.4372749  50.3496027  89.9269199  93.1332779  50.4775524  89.1691685
  56.8970156  31.2975764  48.8356113  56.5719891  32.1349478  49.1663647
  57.5020742  31.5360594  48.1332827  78.1128979  39.7311759  59.8634577
  78.8612175  39.7901893  60.4574013  78.5017872  39.5734072  59.0031672
  88.6325359  15.0470388  76.9766331  87.7334690  15.0795591  77.3035097
  88.8402748  15.9550750  76.7563009  80.8298302  43.1878948  44.8983240
  81.5839958  42.8013229  44.4533157  80.2329826  42.4531460  45.0402737
  53.9944220  19.5470750  93.9517784  54.1399002  20.4836726  94.0853977
  53.0804729  19.4087911  94.2003918  99.1022301  34.2253304  20.8832455
  98.7963772  34.3424273  19.9838150  98.5066700  33.5752678  21.2560272
  62.9186964  33.2977605  49.8289490  62.1930027  33.9207458  49.7902918
  63.6165905  33.7708282  50.2821398  73.5906458  30.3071427  25.4958963
  73.7965345  29.5911098  26.0968447  74.0247154  31.0709977  25.8758187
  96.2646770  54.5541525  87.9995346  96.0695839  55.4879284  88.0785179
  96.8670940  54.4972372  87.2578526  83.4009457  16.7749214  46.3150549
  83.9234924  16.6455269  47.1065283  83.9342594  16.4031315  45.6125021
  91.3721371  37.3106813  54.7024250  91.7411232  38.0509210  55.1842213
  90.5067062  37.6121950  54.4261265  68.2037306  34.2234921  62.2906828
  68.8971424  34.5732832  62.8501987  68.6652994  33.8677216  61.5313292
  96.4038354 106.9005420  29.5471668  96.2283784 106.2427752  30.2200627
  97.3581678 106.9219916  29.4762683  68.0756950  26.6257954  36.1081076
  67.3828363  26.7955184  36.7463684  67.6828957  26.0143995  35.4850984
  74.1548872  40.3053999  67.5502968  74.7485781  40.5454779  68.2617235
  74.0227890  39.3632913  67.6561975  69.4039536  32.0393205  39.5361686
  69.5315886  31.2429857  39.0206170  69.3552542  31.7331219  40.4417658
 103.1077766  49.2600346  71.2705517 103.5305977  48.9469147  70.4709148
 103.0544853  48.4865808  71.8319416  76.6644955  13.2313120  74.7879744
  77.1486378  12.4055767  74.7887087  77.0838690  13.7542331  74.1046667
 113.1640053   9.5516986  78.3609629 113.9525223  10.0214803  78.6325598
 112.6808834  10.1829076  77.8276634  93.4017944  43.5711193  89.3638229
  93.8662529  44.3536329  89.6607685  92.6039696  43.5511303  89.8923111
  47.5657636 107.9682836  33.5775614  46.7002946 108.0964488  33.1892729
  47.9379254 107.2302215  33.0948663  88.5629845  77.7040529  67.3867130
  88.4115219  77.7845144  68.3284235  87.6865578  77.6342487  67.0082617
 114.9611187  95.0140667  81.6847420 115.1774788  94.3088150  81.0747814
 115.7884693  95.2144241  82.1224213 109.5338345  60.2707577  24.8661113
 110.1723385  60.5954552  24.2312026 108.7097454  60.6851482  24.6103740
  64.6583605  19.5660353  41.7429399  65.2511835  19.9703753  42.3764229
  65.2167082  18.9789116  41.2332678  74.7995234  33.0474305  56.5288544
  75.1155519  32.1461368  56.5922928  74.5988846  33.1661010  55.6004715
  91.6057682  40.2516603  38.7551355  92.3522377  40.7907343  39.0166759
  91.6817284  39.4616008  39.2901754  80.0475788  18.8664877  63.7267256
  79.7356606  19.3532872  64.4895983  79.9938488  17.9478920  63.9904070
  80.8957654 105.4141553  33.1378412  80.7570821 106.0113352  33.8729429
  80.6764680 105.9324368  32.3635530 115.7613373  17.2780132  44.8922968
 115.8254242  18.1351900  44.4711399 114.9567413  16.8975961  44.5399570
  93.1556892  14.1212583  11.8553364  92.9806328  13.4676862  11.1782622
  92.5076771  13.9402735  12.5361848  73.7793922  19.7365773  34.4692945
  72.8923750  19.7380996  34.1095304  73.9327478  18.8268876  34.7245979
  72.4687719  26.4074159  47.4512482  73.2928038  26.7244315  47.0815039
  71.7921019  26.8934917  46.9799900  84.7777653   3.7779093  59.1714334
  84.3008614   2.9665929  59.3462372  84.0972614   4.4489211  59.1176796
  82.6053333  37.6238132  64.8869085  82.9088688  36.8157434  65.3005791
  81.7031765  37.7241540  65.1906681  81.8965530  45.5218983  63.9523888
  81.3018322  44.7751284  64.0222120  82.7715302  45.1354456  63.9883995
 108.6578369  26.0821128  27.5323963 109.2469025  25.3433037  27.3794365
 107.9823685  25.7334256  28.1141019  88.4572029  12.4145293  46.3251066
  88.9791393  13.2139015  46.3945103  88.9575195  11.8524170  45.7335424
  92.6461506  49.9638605  35.0174856  91.8757057  49.4116640  34.8843503
  93.0120182  49.6676111  35.8509159  98.4887505  14.2881227  88.7168884
  98.0469322  13.7388015  88.0693626  98.6083794  13.7158585  89.4748020
  94.7294617   9.2679673  37.7231312  93.9927292   8.9640921  38.2533312
  95.4532528   9.3509293  38.3440042  60.7867193  41.1095476  11.3038743
  61.2828493  40.2910709  11.2903714  60.7010698  41.3529444  10.3821063
  92.9537487  48.3541346  37.8670907  93.4329891  48.4492779  38.6901999
  92.1515465  47.8913832  38.1091118  86.1863518  17.2895598  53.2141209
  86.9823837  17.3005843  52.6826572  86.2691498  16.5029347  53.7531900
 104.1186714  59.3589258  61.1569357 104.5390415  60.2183056  61.1884499
 103.7895203  59.2860126  60.2610683  60.2799463  17.0720267  49.4671297
  59.8573780  16.2535560  49.2067909  60.0441551  17.6930761  48.7779760
  29.4681483 105.2266269  63.1027317  29.7555715 105.0345897  62.2101307
  29.0106565 106.0644399  63.0320168  83.8473320  48.0720186  85.2294159
  84.0831757  47.2220135  84.8577881  83.2208252  48.4402704  84.6064186
   8.2404274  24.6862078  31.3277841   8.7939781  23.9380217  31.5514779
   7.8805107  24.4692206  30.4677796  81.7588997   3.3688411  71.6285229
  81.1725235   2.6199424  71.7359591  82.2606373   3.3989781  72.4431276
   6.1502976  28.2176042  37.6621032   5.9626335  27.4836707  38.2472157
   5.3850312  28.7873507  37.7394962  24.8686576   6.5135849  14.3537354
  25.3037810   6.2356603  15.1597488  25.2242827   5.9361535  13.6782086
  92.5693607  57.6840401  58.2907677  92.6142025  58.2093906  57.4918795
  93.0561161  56.8870020  58.0809307  18.7535506 108.4560109  38.2087517
  19.2484313 109.0391939  37.6332331  19.4192105 107.9071136  38.6232901
  96.6131973  33.0917263  22.3808980  97.0064735  32.2816086  22.7053523
  95.9186745  32.8008676  21.7899108 111.9916058   8.0449587  66.2879038
 112.1102047   7.2224641  65.8128595 112.8815174   8.3530492  66.4592695
 109.4764900  56.1595392  78.2782078 108.7994194  55.5242634  78.0453348
 109.2261982  56.4679337  79.1491127  84.7184086  36.9988942  50.2286291
  85.1053715  36.9899154  51.1040783  83.9331055  36.4574289  50.3083134
  93.7856770  30.2897096  18.7275636  94.0188217  29.6961951  18.0136895
  94.2625332  29.9516177  19.4855428  71.4177799  17.2067046  42.3897409
  71.1556292  18.1257832  42.4426985  70.7146025  16.7312014  42.8320837
 104.5736217  52.2175026  37.5299048 105.2953434  51.8771744  38.0586195
 105.0003719  52.6264524  36.7769933  38.3487773  19.0674114  91.4003086
  37.8903723  18.2801723  91.1064434  38.8380694  18.7852573  92.1730995
 114.4224453  18.0931592  61.7049170 114.1119003  17.9079664  60.8186340
 113.7181568  17.7843738  62.2748852  66.4361554  98.5567259  43.9082098
  65.7575589  98.4167551  44.5686197  66.2684804  99.4384967  43.5756493
 100.3623009  47.4727821  80.2562237 100.1551342  48.3124447  79.8460102
 101.2703228  47.3016882  80.0063324  95.1445293  54.2834091  68.8423204
  94.5591545  54.7820330  69.4123507  95.8368015  54.9022102  68.6097527
 110.0478554  60.9901142  71.7735386 110.5215549  60.2708244  71.3558388
 110.6010342  61.2441730  72.5122404  87.3684025  17.5698566  80.1547813
  87.5618362  16.7021418  79.7999763  87.9758644  18.1547034  79.7018099
  21.5755791  20.2491140  35.0661492  21.6491837  21.0965586  35.5050683
  22.4374718  19.8472571  35.1751661  49.9991274  23.1768990  36.8845606
  50.2695274  23.8670254  36.2788892  49.0709543  23.0411530  36.6940260
  82.7928925  52.5870514  80.2684402  82.5101185  52.2031069  81.0984135
  83.7482548  52.5329781  80.2926922   1.5535033  91.5408955   8.8598303
   1.7491687  91.3913594   9.7848086   2.2898734  92.0624648   8.5405306
  67.8394318  39.6210241  64.0466070  67.3535490  39.1780615  64.7422647
  68.6919546  39.8152018  64.4361401  57.9915190  11.1753297  47.8026247
  57.5366354  10.5837715  48.4020996  58.7322903  11.5072870  48.3098650
  41.4694214  31.2974954  84.8720455  41.5936518  31.0903621  83.9458179
  41.5245724  30.4513693  85.3161907  82.1610355   9.2788690  50.9599257
  82.3632050  10.1919746  51.1638737  82.5373650   9.1385281  50.0910711
  69.4622421  28.8450241  71.0577393  69.3448210  28.0763340  71.6159153
  69.5798302  28.4865189  70.1780319  97.8762913  37.9693532  40.6403875
  97.3429298  38.0468798  41.4314270  98.5482025  38.6441422  40.7374716
 103.2853889  53.4231520  76.2357855 103.9186859  53.5306406  75.5261278
 102.4482441  53.6828566  75.8511162  31.4854604  95.6702410  52.1301222
  32.0702344  95.4227625  51.4138651  30.9091836  96.3335942  51.7505169
  16.5982575  45.0093937  83.2203579  15.7035965  45.3495884  83.2296944
  16.6896958  44.5529938  84.0567589  93.1083107  35.5488729  95.0044346
  92.7929974  34.6868324  95.2759075  92.4414062  35.8671522  94.3960094
  82.1118450  13.6504090  64.4856358  82.4277115  13.9092052  65.3513622
  81.5618515  12.8845215  64.6504354   4.3025631  17.8585303  48.4542036
   3.6343140  17.7842772  49.1354942   5.1289696  17.7023578  48.9112520
  90.4233932  22.5191379  64.4641495  91.1450005  21.9987035  64.1110706
  89.6342659  22.0885110  64.1354227  71.7485332  27.7823949  82.5566769
  71.7300987  28.7014771  82.2898865  70.8989954  27.6367497  82.9729748
  99.5641708  52.7770376  36.1806345  99.3760681  52.3447943  37.0137119
 100.5073357  52.6660919  36.0608315  99.3649769  38.8578939  58.0152559
  99.6374607  38.1363964  57.4483109  99.0775204  39.5421147  57.4107361
  14.7112984  43.6154938  79.9253750  14.5796723  42.9144764  79.2870283
  14.8158879  43.1614876  80.7615376  70.5347586  34.8883772  63.7040043
  71.2451696  34.2633605  63.5594273  70.5153799  35.0136948  64.6527672
  27.5149566 105.1634645  67.1497965  26.6061240 105.2980756  67.4183798
  27.4522430 104.7959076  66.2682056  76.9439030  43.6105442  56.7947626
  77.2328329  43.7050104  57.7024078  77.5524807  44.1520071  56.2920904
  83.0545044  44.5181417  49.9179411  82.6630402  44.5329666  50.7913065
  83.4163475  45.3967905  49.8027134  82.8632927  32.0093226  17.2504544
  82.0496559  32.4037099  16.9363105  83.4373856  32.0023227  16.4845550
  61.7609978   7.9496980  64.5548630  61.3622141   8.8084149  64.4141245
  62.4250126   7.8786922  63.8690948 116.8889046  57.9297304  79.6042919
 116.9713211  58.1476116  80.5327129 116.1392021  58.4432077  79.3034077
  54.5517778  29.1649604  65.3028202  53.9954567  29.7695184  64.8116493
  55.0104666  29.7201347  65.9333944  77.8509569   0.1792872  33.7101555
  77.6550102  -0.1331670  32.8268600  78.6664629   0.6713061  33.6147523
  73.9864826  45.6044483  64.4688749  73.5159349  45.8574963  65.2630949
  73.6909342  46.2287426  63.8062000  37.1597075  23.5672259  21.7669249
  37.5036240  22.8372335  22.2817659  37.2852683  23.2985687  20.8568192
  19.3592132  64.0235959  14.6526770  19.1297782  64.7243665  15.2630190
  18.5810817  63.9184783  14.1052298  77.6638222  48.6088181  82.3460960
  77.6120949  49.5252752  82.0746803  78.2160711  48.6213493  83.1278229
  94.1004467   7.3824966  59.8642302  93.6057568   7.4706262  60.6789398
  93.9990520   8.2293105  59.4296551  71.9428396  11.2233949  60.1137638
  72.6588106  10.6048620  60.2587748  72.3718309  12.0771480  60.0562954
  72.3320198  39.3983603  62.3345470  72.7951241  38.7112331  62.8137350
  72.3717403  40.1611233  62.9114771  99.0465546   6.4483613  55.5964899
  99.1570187   6.2887466  56.5338039  98.1540203   6.7843235  55.5142975
  45.7911777   3.1407636  65.2479982  45.3857470   2.3235503  64.9581337
  46.6346169   3.1631985  64.7959566  17.6395172  39.3196249  73.3941746
  17.5242943  38.6036444  72.7694082  18.0563969  40.0157881  72.8864384
  73.4536505   3.7534657  54.5279980  73.4878826   4.4797119  55.1505899
  73.7286806   4.1382411  53.6958075  48.9862138 107.4765222  53.1653214
  49.6614057 107.1363687  53.7523842  49.4595319 108.0504220  52.5629568
  63.0355978  32.2350788  54.4563198  62.8955460  33.1368780  54.1675758
  63.7000608  31.8926191  53.8584566  94.9617004  52.1106005  93.6964226
  95.4722881  52.7196741  93.1629848  95.4261112  51.2771845  93.6191273
  67.7991390  23.6011386  31.3644338  68.3223867  23.9071894  32.1052313
  68.3908510  23.0322146  30.8720589  80.2675056  53.4605837  39.2210770
  79.9355745  52.5637722  39.2633343  80.9823895  53.4216881  38.5857272
 103.6847591  28.8972735  79.3452358 103.6333942  28.2354069  78.6556530
 103.8503361  28.3977580  80.1447964  63.1494474  39.1537690  91.6955280
  62.9816532  40.0891399  91.5808010  62.3117542  38.7941957  91.9874287
  63.3565378  17.0061564  49.7125912  63.6236143  16.2174964  50.1847315
  62.4221945  17.0934212  49.9013090 105.3765202   7.6619250  62.5229979
 104.8653316   8.3488989  62.0952320 106.2646008   8.0163503  62.5668526
  75.3348780  22.1524024  17.3616588  75.7135534  22.4845219  16.5476966
  76.0577059  22.1748495  17.9887545  99.2621613  22.6575041  44.0984201
  99.6033955  22.0120072  44.7173929  98.7194633  23.2377410  44.6323109
  45.7114583  90.3165137  32.3447776  44.9211579  90.3722059  32.8819561
  45.3864747  90.2012908  31.4518356  58.1916428   6.7563939  82.5726223
  57.6603365   6.3918298  83.2804585  58.1419563   6.1029768  81.8749046
 103.2627010  36.5949774  70.1529932 103.5680103  37.4217820  69.7796059
 102.8254128  36.8465304  70.9664583  79.8497581   9.9793071  81.0721874
  79.9439669   9.0273923  81.0373402  80.7377338  10.3024375  81.2248993
  87.0978451  52.2486162  67.1325302  87.4708652  52.7540779  67.8547478
  87.5217819  51.3927031  67.1951675  92.4454689  26.5846848  77.5070000
  93.1075096  26.1967540  76.9347811  92.9488945  27.0621634  78.1664038
  24.4058765  79.6144377   6.4611582  25.0738681  80.2900372   6.3446097
  24.8554958  78.7949596   6.2549357  78.9004326   8.3972502  65.3522253
  79.2755413   9.2777908  65.3391409  78.2561111   8.4218812  66.0596704
  93.0451220  96.1595641   5.0293116  92.2781915  95.7094727   5.3835253
  93.7648934  95.5411444   5.1546816  78.9334917  31.8736887  64.2622948
  79.7221470  31.4532828  63.9194918  78.2200575  31.5059209  63.7407684
 109.1232300  19.8126864  54.9108553 110.0389194  20.0550127  55.0487280
 108.7766743  19.6746182  55.7923746  67.0751286  35.1301241  36.1007762
  67.1852875  34.4252777  36.7389655  66.2954521  34.8832059  35.6034136
  91.0825539  44.3913364  54.8804188  90.3925514  44.6124411  54.2549324
  91.7489719  45.0660086  54.7502804  92.7989578  37.8268194  66.8186188
  93.2888031  38.4407496  67.3657751  93.4716034  37.3504901  66.3318968
  94.1514301  42.4201632  53.2675123  93.7795162  41.6733456  53.7367392
  94.5428276  42.9624844  53.9523029   1.1264653  27.9197264  58.7511587
   1.7553944  27.1982098  58.7601709   1.6448731  28.6921859  58.9765120
  80.1597404  20.9094357  44.4617844  80.5743122  20.7131863  45.3019333
  79.7273970  21.7523146  44.5991325  65.7566690  29.5212460  24.5718527
  65.5188370  29.3564343  25.4842687  66.5033293  30.1179957  24.6230006
  58.8437557  23.9482641  68.8441992  58.1182957  24.4677234  69.1907597
  59.6281147  24.3616867  69.2048883  36.5453845 108.4724455  60.7362223
  36.9131690 109.2955889  60.4146624  35.5987817 108.6143379  60.7297325
  85.7420635   4.2400998  68.0650377  85.2340603   4.0092105  68.8427639
  85.3883934   3.6809939  67.3732615  77.2953796  55.8424139  41.7852592
  76.7644835  56.4202547  41.2370968  77.4723148  56.3559246  42.5734472
  53.6917400  23.2339311  56.6628551  54.3937635  22.5873685  56.7360020
  54.1448021  24.0763402  56.6266060  87.4981785  53.7322998  85.2963066
  88.4045601  53.8142538  84.9996567  87.4935722  54.1327620  86.1656952
  88.1761074  34.4414163  28.4857202  87.9582024  34.2148089  27.5816178
  87.4966717  34.0168118  29.0094757   0.7182133  79.3829132  88.6516752
   1.2880289  78.6258317  88.7872084   0.1698935  79.1395188  87.9057957
  89.0709400  16.5218830  41.3490534  88.8741875  15.6360352  41.6536713
  90.0269604  16.5693700  41.3520384  67.2997093   2.5998488  63.3679819
  68.1873369   2.8699458  63.1326151  67.0667505   3.1610972  64.1075516
  94.4129944  49.6140337  17.9940057  94.3072414  48.9505434  17.3122191
  95.2822113  49.4467115  18.3582759   0.5774540  49.1848516  75.4919672
   1.0697789  48.9326048  74.7107983   0.4670185  48.3685207  75.9794521
  85.1120472  48.6788368  64.6779633  85.6435204  48.9228487  63.9201880
  85.7434082  48.3477116  65.3166914  92.8098011  47.7902031  81.2845802
  93.5950565  47.5192261  81.7601585  92.9444695  48.7218475  81.1109924
  63.8773012  17.0922375  68.5624886  64.2375231  17.0962989  69.4493103
  63.3031225  16.3266826  68.5407019  33.2598525 105.4073649  45.1768017
  32.4962360 104.8945551  45.4416609  33.9244491 105.2048611  45.8352280
  81.4407158  32.4639201  21.3733006  80.6156063  32.5197840  20.8913231
  82.1066761  32.7313995  20.7399035  96.1487007  42.0769787  45.2310848
  95.4615307  41.5642214  44.8055172  96.4109516  41.5475750  45.9842014
  90.5169296  32.9147053  49.6266317  90.3884315  33.8632298  49.6219397
  90.3760338  32.6494169  48.7177849  81.8489265  10.2098858   6.2138224
  82.6376820  10.6135833   6.5759391  82.1642876   9.6871215   5.4765987
  56.7392492  26.6863728  76.8743086  57.5377178  27.1990490  77.0001698
  56.8349314  25.9437656  77.4706364  49.4649011 108.6660545  14.7759151
  48.7645608 108.4693008  14.1537869  50.1666909 109.0331020  14.2383277
 107.7524185  39.3505406  89.9795723 107.4899292  40.2599144  89.8368454
 107.2714901  38.8555098  89.3163395  96.6379230  84.9305344  81.8302043
  96.8419092  84.3050552  81.1349364  97.2781341  85.6328893  81.7159291
  87.6985931  30.6261969  53.8896704  88.4768772  31.0371423  53.5133314
  87.7516747  30.8240771  54.8246908 111.1276054  37.2776818  75.1975393
 110.7010937  36.5999746  74.6731091 110.7159519  37.2084832  76.0589266
  83.5809231  20.8171821  59.2812634  83.1949520  19.9413264  59.2930079
  84.3933296  20.7142854  58.7856388  84.0264416   6.2710726  46.8390656
  83.3173084   6.6245186  46.3019991  84.8175716   6.4250946  46.3227129
  58.6049128  31.7875934  64.9233961  57.6931095  32.0445561  64.7862196
  58.9580774  32.4597263  65.5062723  88.7369251   1.1209662  79.8602009
  88.6480141   2.0693505  79.7658968  88.4644508   0.7694009  79.0126228
  46.1132032 105.1300078  35.4364562  46.3884049 104.9471574  36.3348222
  45.2681523 105.5698349  35.5296445  79.6134615  40.9580183  62.2422457
  79.7632980  41.3524723  63.1014252  80.2746773  41.3571882  61.6768360
  84.4246483  43.2998848  31.8307781  84.6361637  42.3883247  32.0321584
  85.0610352  43.8097858  32.3320270  17.1313697 104.2890685  76.3549709
  17.9805738 104.6869605  76.5467215  17.3014909 103.3471238  76.3605261
  78.5411692  27.6528239  48.6420059  77.9965782  27.7357817  47.8592110
  79.4353199  27.5900817  48.3061695  13.2434029  31.2092257  45.5103350
  12.7773041  31.7471838  44.8703480  12.8147263  31.4032912  46.3438845
 100.8431053  25.4485059  54.5724916 100.1487064  24.9999714  55.0550413
 100.7876682  26.3586712  54.8636150  55.7782364  23.4866095  67.3419762
  55.9567976  24.3815184  67.6309156  56.6324711  23.1455088  67.0770931
 101.4229679  60.9284973  91.6479301 101.5512562  60.4320002  92.4561787
 100.6813145  61.5038443  91.8354130  14.4939083  31.6589379  72.1246958
  14.9889130  32.4781346  72.1354961  14.9167675  31.1325049  71.4462519
  89.8754025  21.1771846  48.2223892  90.5410194  21.4785242  48.8407516
  89.0625572  21.5769076  48.5318089  60.9789909  59.7472070  16.6703181
  61.0159744  58.8210414  16.9092326  60.1235450  59.8532222  16.2541346
  93.4721756  51.8925333  49.4108582  93.1660748  52.6836348  48.9673519
  92.9314232  51.8351269  50.1985979  83.9373112  50.7421017  33.5063028
  83.0904293  50.6434059  33.9413548  83.7235451  50.7925892  32.5746465
  79.0186548  38.8182592  53.4147835  78.6884022  38.2187343  54.0839148
  78.7550926  39.6863985  53.7199116  18.4854073  63.2532787  50.5850744
  17.7641911  63.7637568  50.2169800  18.0691284  62.4612522  50.9251261
  70.0057077  33.1436872  92.0156002  69.6819353  32.2510672  91.8946171
  70.9028292  33.1202459  91.6826439 108.2631683  13.9052725  34.6405482
 108.6822605  14.1573632  33.8177204 108.4560108  14.6273291  35.2386117
 103.2449150  45.4837894  60.0546980 103.6097717  45.7957220  60.8828354
 103.9848614  45.0747347  59.6059322 108.5829258  64.3611717  61.7223930
 107.8096676  64.4519711  62.2792339 108.9009476  63.4753466  61.8967485
 112.5685787  24.7716284  87.6741791 111.8192577  24.9216914  88.2505703
 112.8809452  25.6492352  87.4540234 100.1949787  51.3661766  47.6514626
  99.6453094  51.3179302  48.4336185  99.7051716  51.9255686  47.0486355
  97.7509022  61.9631910  51.0064411  98.1399918  62.6113892  51.5935421
  98.4889603  61.4241123  50.7219982 103.4405613  48.4514856  48.5594177
 104.3816948  48.5890579  48.4518290 103.1268978  48.2426405  47.6795101
  97.3788452  43.1266499  79.3290234  96.9234753  42.3617268  79.6808290
  97.9702473  42.7695751  78.6664677  65.8327275 102.8629183  24.4876933
  65.3257161 102.2459190  25.0154090  66.1417180 103.5168480  25.1146936
  81.8770391  99.2646622  36.5153646  81.6557485  98.3881043  36.2008667
  81.9244271  99.1728245  37.4669695  90.2844048  44.2560959  58.8381052
  90.3902054  43.9314699  59.7323418  89.6988583  45.0084066  58.9241171
  88.8705540  64.4803619  39.3884230  89.7891426  64.2291117  39.2919278
  88.8890266  65.2336740  39.9786901  91.2013149  69.1770029  73.5671616
  92.0650196  69.0659714  73.9645576  91.3574791  69.0906858  72.6267385
 112.2074890  50.4342270  46.0474396 111.3882256  49.9405432  46.0113430
 112.8449249  49.8148108  46.4027309  88.3538628  58.1744814  58.7712049
  88.2697582  59.0155983  58.3221197  89.0580940  58.3107376  59.4050264
 109.3587685   5.7534415  54.0169716 109.2698860   4.9659669  54.5538330
 109.2054272   5.4515159  53.1216717 111.9464874  78.4191179  59.1841984
 111.8296528  78.0898237  58.2930470 111.8587208  77.6442575  59.7392893
   1.6765255  76.6440392  67.6623249   1.0783810  77.0644760  68.2801342
   1.2136120  76.6706991  66.8249273  87.5370026  34.0690875  43.4794760
  87.0850468  34.8523283  43.1656313  87.9175663  33.6803865  42.6918745
 101.4270306  45.2967787  45.1050377 100.5824375  45.6739950  44.8588610
 101.3069916  45.0113297  46.0107660  69.9365234  20.9241128  62.5793648
  69.8169231  20.5028558  63.4305239  70.8176756  21.2960291  62.6178980
  60.2837467  32.3984027  59.9431467  59.4646645  32.8632689  60.1141262
  60.3807783  31.8028831  60.6862354  84.0345192  40.1975393  56.9024324
  84.3948269  40.5263901  56.0788631  84.1151619  39.2460465  56.8361568
  85.5894184  45.1651525  55.5599356  84.7447300  44.9305630  55.9442520
  85.9940529  44.3259048  55.3404570  40.3570426  93.2763444   2.5101046
  39.8735107  93.4998356   1.7148070  40.9063495  92.5347720   2.2560076
 111.9842529  38.2738113  32.0571542 111.0887623  38.4037900  32.3692822
 112.1563053  39.0329838  31.5001225  95.9702587  24.5211363  43.1947088
  95.4191303  24.1112638  43.8614082  96.8591785  24.4514799  43.5428429
  97.8348923  39.4984698  78.6200953  97.0956326  39.8024392  79.1467047
  97.7008629  39.9030852  77.7630329 111.9888496  55.8638144  81.2298012
 112.3580074  56.7138577  80.9902668 112.6092339  55.5032110  81.8632984
  98.5948467  32.7589679  71.0921097  99.2938995  32.6140022  70.4545069
  98.3367252  33.6713696  70.9612370  90.5688667  55.7604551  52.6590919
  90.5082130  56.0157156  53.5796309  91.3699245  56.1807919  52.3462677
 110.3009033  54.6949339  91.8297386 110.1452255  53.8619232  91.3846588
 111.2096882  54.9116230  91.6214180 107.3966408  55.0720119  50.0375271
 108.3206844  55.2219582  49.8378277 107.0637417  54.5880175  49.2817736
  89.6251297  34.4351006  45.8629370  88.6877537  34.2724848  45.7574797
  89.8117638  35.1577425  45.2636194  52.7168257  14.5036554   3.7000136
  53.4096510  13.8614797   3.5456137  51.9452746  13.9776658   3.9104323
   5.8921284  30.7448483   2.5375772   5.3586907  30.1912332   3.1078291
   6.7344422  30.2932072   2.4850063  79.9018908  42.1975851  56.1438608
  80.0547314  41.3531065  56.5678024  78.9852619  42.3981524  56.3330507
  95.5155373  55.2820826  55.5535126  96.1834717  54.7068596  55.9266281
  95.3812122  54.9491262  54.6661997  72.8704786  36.5771937  46.3219452
  72.6272964  36.3795924  47.2264051  72.0487404  36.5181065  45.8346128
  68.2624769  29.3317842  77.6650190  68.8940430  29.7383904  78.2583380
  67.5949144  30.0040579  77.5284958  99.3744087  25.5154324  26.0023284
 100.2363873  25.5526996  25.5878019  99.2951488  26.3493228  26.4655519
  93.3654118  33.0454493  67.1389914  92.7621078  33.7783957  67.2616625
  93.4272003  32.6388502  68.0033350  83.8404369  51.1734056  41.2240601
  83.9256573  50.5987883  40.4632807  84.2548084  51.9926071  40.9530878
 109.2532349  31.4269114  38.5350013 108.4471893  31.8446040  38.8384151
 109.8457527  31.4765716  39.2851233  79.3318272  50.6031322  63.7335253
  79.1854095  50.4191923  64.6614027  80.2278042  50.3089380  63.5695076
   7.5864929  79.7433186  36.1509871   8.1240315  79.4062185  35.4343009
   7.7424759  79.1354752  36.8737793  86.7970467  52.4120998  36.0409355
  86.1995029  51.9724417  36.6458178  87.3908424  51.7214775  35.7465315
  96.1321545  14.4637585  69.8531675  96.9144440  14.8749053  70.2208805
  95.5230236  14.4067287  70.5893373  83.2440948  32.8333521  79.6655703
  83.3790302  33.7552381  79.8850060  84.0883636  32.5433207  79.3201303
  95.1386166  47.6153755  26.9352818  95.3127480  46.6868496  27.0894194
  95.3097916  48.0343914  27.7786994 104.8752880  53.6293554  67.1799517
 104.6416950  52.8513050  66.6736889 105.7371426  53.8811159  66.8482065
  77.9786110  26.6395450  62.7450132  77.3858547  26.4120674  63.4613419
  77.3993492  26.8840408  62.0232725  72.4226809  46.9656801  84.8845196
  71.8544102  46.5037537  85.5008888  71.9100523  47.0161057  84.0777302
   7.9278130  32.0353889  65.4024935   7.9869408  32.9764509  65.2377558
   8.8350815  31.7563987  65.5260611  70.4454470  27.3411536  63.2295561
  71.2455797  27.8512383  63.3553743  69.9098682  27.5425458  63.9969063
 106.8248844  45.4946804  82.3769951 107.7376842  45.7486439  82.2408772
 106.6857910  44.7670221  81.7708588  78.5524845  35.6340384  69.1680193
  79.2538166  34.9849963  69.2238092  78.8457632  36.3523602  69.7285843
  94.3883133  22.9117203  94.1710854  93.7387657  22.2521472  93.9276028
  94.6572018  22.6675773  95.0567055  95.9531879  33.0966187  78.9194345
  96.6603470  33.0098605  78.2801962  95.1524258  32.9811120  78.4079075
 111.1047745  19.5303631  52.4568462 110.9261703  20.4218864  52.7560377
 111.5588093  19.1176152  53.1915045 108.5060406  34.1421461  47.3670340
 108.3215904  33.8383198  48.2558012 109.3526173  34.5835400  47.4356651
  75.3939962  67.4857378  23.4916902  76.3167906  67.7203703  23.3935642
  75.3951931  66.7694902  24.1266894  71.1995792  27.3759937  42.5568771
  70.9392262  27.0464420  43.4170151  70.4313231  27.8507733  42.2396994
 105.8659935  13.6737323  67.4186563 105.5086422  13.5278237  68.2945776
 105.1834679  13.3588409  66.8260098 116.3478279  28.8488770  48.3508253
 116.1743450  28.1601787  47.7090883 116.7774105  28.3968592  49.0770340
  93.9552116  18.5437083  37.1266890  93.4348392  18.4041214  36.3355088
  94.6930027  17.9404092  37.0376444  93.2092953  12.5348842  65.2192020
  93.5791206  13.3089435  64.7945929  93.5999680  12.5313938  66.0930395
  83.5525799  51.8947124  70.9526300  82.6285267  51.9662142  71.1919165
  83.7215424  50.9528542  70.9284687  90.2495384  15.4348803  61.0877085
  91.0155773  14.8609412  61.0847998  89.8092365  15.2424586  61.9155598
 104.9286938   5.3050625   4.6746528 105.3771400   5.7981122   3.9876056
 104.0239048   5.6155896   4.6406233 103.6162949  25.3396749  24.9163294
 103.3630657  25.1610994  25.8219910 102.8198624  25.6781840  24.5072508
  86.7019939  25.5319262  43.4649277  86.2753391  26.2790322  43.0453587
  87.1573544  25.9081125  44.2181587 103.5033417  35.8433604  50.8419085
 104.3861961  36.1700487  50.6684732 103.4766579  35.7172441  51.7903852
 105.9855366  15.0422359  32.8294158 106.0530090  15.0716257  33.7837815
 105.7153130  14.1445827  32.6359391  18.5129971  51.5102768  89.2635536
  19.4334263  51.3612652  89.0471554  18.5134930  52.3270321  89.7626972
 101.4615726  43.5788012  55.8206081 101.3041306  42.6626873  55.5921841
 100.6744576  43.8459826  56.2952518 101.7084122  24.8012781  50.3487110
 102.2703457  24.4003153  49.6856165 101.0648823  25.3013611  49.8467064
 107.1251011  44.8427868  59.8235321 106.7031288  44.4607162  59.0539885
 107.4155521  45.7073259  59.5329571  81.7257500  63.8378048  40.6903934
  81.9913673  63.6138201  41.5823030  82.5424957  63.8423014  40.1912451
  51.8210030  69.4436026  48.3893204  51.2119675  68.8867903  48.8743639
  51.3076019  70.2188158  48.1619453  93.3888721  58.6088181  67.3476505
  92.7953434  59.2302561  67.7692842  93.9830875  58.3337212  68.0458355
  73.8272095   5.3985155  67.5875711  73.3612442   5.6233770  66.7822504
  73.3646870   4.6317503  67.9257727  74.4826937  43.9844036  44.3720055
  73.7661266  43.5581398  43.9018297  74.2120934  44.8998833  44.4420433
 105.7145786  49.2757225  81.8178558 106.1993122  49.3803930  80.9991264
 104.9599743  48.7360620  81.5821171  26.0233540  50.3821993  19.3321180
  25.6471390  50.8351231  20.0868034  25.3243870  50.3850937  18.6781561
  88.8183689  36.1369467  76.8129587  89.6387672  36.5663981  77.0553589
  88.1577206  36.5522671  77.3672915 100.6587315  53.9643574  75.4286861
 100.0801277  53.6296940  74.7435284 100.0689316  54.2096996  76.1415434
  28.5499043  20.2103305  56.9123936  29.0161557  19.7776532  56.1971092
  27.9951710  20.8589125  56.4789820  93.1788999  98.9339041  49.9595070
  93.8285047  98.8050961  50.6506348  92.3652631  99.1215240  50.4275084
  92.0175457  20.1616120  70.0524092  91.7306519  19.3451774  69.6433115
  91.2699127  20.4401088  70.5813074  93.1920719  24.2476201  21.5728974
  94.0576935  24.4922352  21.2456393  93.2383347  24.4077039  22.5154805
  96.4669037  45.8790350  62.7682400  97.3153210  45.9814262  63.1994534
  96.5640068  45.0918007  62.2324562 103.9897728  32.2169065  60.3066254
 103.8497162  31.5267515  59.6583223 103.9136410  31.7717552  61.1505890
 102.7969551  34.0956736  56.8530321 103.2237148  33.9226747  56.0138798
 101.8676376  34.1739893  56.6374779  79.8037100  43.9417219  76.1364079
  80.0363827  43.9271450  75.2080297  79.6170473  44.8619938  76.3221264
 102.1554565  53.0860758  72.7794027 102.3931217  53.3592224  71.8933201
 102.1568680  53.8967228  73.2884073 107.5814152  48.7526369  61.7106485
 106.7293358  48.9929199  62.0745993 108.1371975  48.6091661  62.4766445
  68.3681726  29.8124409  35.7106185  68.5605001  30.7483983  35.6538033
  68.0238056  29.5858145  34.8467445 100.2389240  40.5375195  47.9802084
 100.8398438  40.8242655  47.2925234 100.6968307  39.8171353  48.4133387
  94.1705894  46.9540548  35.7424760  95.0483227  46.6332006  35.9495544
  93.9584732  47.5512838  36.4598012  95.3580284  58.1346369  53.7664509
  95.8065128  58.3342600  54.5881796  94.5772457  57.6485634  54.0316725
  95.4985714  37.1149635  72.6739931  95.1283264  36.3933039  73.1822824
  96.1956120  37.4655724  73.2284737 102.8497505  33.7413836  47.8321552
 103.6555958  34.0228438  48.2653046 102.1487427  34.1384578  48.3490276
 101.1483955   2.2908400  73.0877018 100.5590153   2.9658014  73.4243059
 101.5832043   1.9426550  73.8661242  90.3678322  27.4142504  56.5079451
  90.2755737  26.6137838  55.9912491  89.4759369  27.7527595  56.5864706
  65.6449938  46.1724710  67.6202869  64.8205614  46.3227224  67.1577263
  65.7034588  45.2206039  67.7025366  23.4737820  84.3897915  63.2313013
  23.1012291  83.5407829  62.9933786  22.7334828  84.8873520  63.5786057
  95.7946587  70.9599161  57.6559019  94.9884033  70.8270216  58.1544256
  96.1093616  71.8199778  57.9342604  71.1561584  43.1965303  76.2469673
  71.5092516  44.0331316  76.5497208  71.8179369  42.8622818  75.6415272
  59.8733664  31.1068583  89.0004063  59.5239735  30.2369070  89.1936493
  60.0081205  31.1057711  88.0527401  73.2972383  58.0869579  39.8154783
  73.1420517  58.4482241  40.6882000  73.4952736  57.1633577  39.9703217
  11.6276116  71.0745001  77.8033113  11.2762875  70.2436018  77.4832869
  11.6099591  71.6518593  77.0400476  89.5118332  29.2808628  66.3828182
  89.6736813  28.4262896  65.9831333  90.1071548  29.8753786  65.9263325
  82.4187756  77.1205902  27.9400158  81.9379234  77.8697586  27.5882149
  83.0719280  76.9191313  27.2699165  81.4100742  33.3346248  62.0993423
  81.8534088  34.1456294  62.3482513  81.6625118  32.7062988  62.7758837
 101.0044289  24.7122002  40.0729609 101.8023682  24.2094731  40.2366114
 100.7295990  24.4463706  39.1954422  12.0047056  96.5937901  93.9904207
  12.1684801  96.7911196  94.9126307  11.9275343  95.6402064  93.9595676
  23.0398793  14.6183646  73.7548208  22.2535748  14.0977657  73.9189243
  23.7507576  13.9777780  73.7317705 102.6875496  48.7968302  51.0928392
 102.6637936  48.7982845  50.1359367 102.5142956  49.7057056  51.3381052
  98.2658958  31.1490035  33.9571452  98.8065529  30.3867102  33.7501764
  98.8944530  31.8562198  34.1020370  84.0121746  31.5195751  68.8936520
  83.7589073  32.3779321  69.2332268  84.6657372  31.7113805  68.2211256
  77.1633434  49.6449566  62.3492527  76.6386604  49.2129183  63.0232620
  78.0073452  49.8077059  62.7704382  67.6157379  15.3658247  42.1200895
  67.1952724  14.6006823  42.5125122  68.4484243  15.4464388  42.5852442
  62.9637146  22.8940988  61.0889626  62.4483013  22.2098470  60.6619024
  62.6413012  22.9095912  61.9900990  85.5751228  57.0964336  70.6993914
  86.5261078  57.1933842  70.6497335  85.2405357  57.6537609  69.9967718
 112.5508690  71.1691141  27.7801442 111.8315697  71.5329599  27.2639632
 112.1450710  70.9107876  28.6076880  88.9982510  23.9790869  36.8048120
  89.7513962  23.4023786  36.6767097  89.1786575  24.4288635  37.6302719
  90.7487774  87.6940346  71.0546923  90.7037830  86.9808102  70.4178858
  90.8572960  88.4828949  70.5235147  72.6663208   7.1905589  22.2337627
  71.8359280   7.4111122  21.8118286  72.4956608   7.2985208  23.1694198
  80.9688663  39.5534205  17.2436023  81.7069054  39.1437793  16.7922461
  81.3442421  40.3280163  17.6623237  99.9498844  23.0943108  84.7754955
  99.1883945  23.3491874  84.2545319 100.6018639  23.7711477  84.5937061
  75.5911493  16.8287730  59.4391203  74.7447920  17.2081292  59.6757746
  75.6331921  16.9124949  58.4865189 100.1406670  34.1900015  56.0260963
 100.1028347  33.3689499  56.5166807  99.7631359  33.9767385  55.1727390
  89.2800236  41.5648031  77.8000641  90.0282001  40.9829712  77.6661444
  88.7294769  41.1050129  78.4338856   1.1845154  70.2067280  69.6447325
   1.7187828  70.9404564  69.9487686   0.4092831  70.2262402  70.2058554
  84.2360401  43.2405186  24.4760513  84.2450237  43.2018375  25.4324269
  83.8775635  42.3952103  24.2055154  83.5273552   1.5378039  82.1998310
  83.0105877   0.7816950  81.9214630  83.9459705   1.8502107  81.3977146
  85.8532810  41.0164118  61.8717432  85.4554176  40.3744316  62.4597931
  86.7881680  40.8118296  61.8910551  69.7881985  31.1805797  42.0573425
  69.2440891  31.8058896  42.5360537  70.6717968  31.3229322  42.3967934
  77.0799351  17.4968266  52.5527096  77.6354837  17.9715645  51.9344711
  76.2570906  17.3639262  52.0820808 102.3080921  39.1231608  56.0634947
 103.1755543  38.7908053  55.8326674 101.7264938  38.3707929  55.9543228
 102.4578381  65.1352835  34.5170665 102.4473286  65.3637028  33.5875797
 102.2690296  64.1970634  34.5352888  83.8474274  15.0919342  54.6370745
  83.3640766  15.2684665  53.8299561  83.5208797  15.7422543  55.2589130
  92.1997738  59.1263151  55.5952930  92.2833157  59.2611217  54.6513224
  92.8719234  59.6901035  55.9781647  77.5784159  11.8040204  64.8488283
  77.5489616  11.6285968  63.9083004  76.8510246  12.4068344  65.0029278
 108.1205463  41.4395809  29.5472240 109.0762615  41.3974857  29.5800424
 107.9206848  42.3750448  29.5816779  60.8194256  64.1357708  48.6656523
  60.9636784  63.5812378  47.8988934  61.4543104  64.8457813  48.5706091
  15.3311295  25.8503199  59.2672396  15.1500649  24.9589849  58.9689684
  16.2666363  25.8496714  59.4698906  73.5101366  24.0182328  47.9996252
  73.0480957  24.8371935  47.8205919  73.8498402  24.1242003  48.8882208
  73.2501316  38.6177063  74.2267990  72.5886393  38.8933206  74.8613882
  73.1194162  37.6735163  74.1393471 105.9088135  62.9363298  79.0402269
 105.8176041  62.3375893  78.2989979 105.2523041  62.6392508  79.6702814
  15.4266877  54.6987104  46.9616604  15.1625866  55.4622221  47.4750185
  16.0263485  55.0488329  46.3028383  91.1567879  69.2715502  42.9983616
  90.3611851  68.7561417  43.1310415  91.8273926  68.6247206  42.7789688
 111.9988823  60.3562927  47.7694464 111.9426060  60.4851913  48.7162590
 112.8667927  60.6843615  47.5342226  82.2678947  22.5112700  49.6860838
  83.2174778  22.5817466  49.5883417  81.9552135  23.4150553  49.6455908
  29.4032253  94.3416153   2.8797869  30.2481998  93.8990317   2.9596381
  28.7717212  93.6323391   2.7599577 103.3568954  56.9140434  50.0671673
 103.4864712  57.3078918  49.2044258 103.1303501  56.0025072  49.8827553
 110.3372478  55.5650043  75.5771494 109.7872353  55.5231476  76.3594341
 110.1726246  56.4355946  75.2149296  88.0537796  54.1158152  58.7223291
  88.6397743  53.4312201  58.3995676  88.4938622  54.4612026  59.4990349
 110.1964760  31.1935067  79.3168783 110.3450680  32.0994115  79.0457916
 109.2526913  31.0663176  79.2202377   2.5685067  37.2650075  44.0202665
   2.0974964  37.9111362  43.4940529   3.4897084  37.5094151  43.9314890
  94.3497562  55.4188728  57.9498577  94.6468258  55.3131962  57.0460844
  94.7455120  54.6846581  58.4194708  92.7775860  33.1923985  51.8559504
  91.9644165  33.3721209  51.3840628  92.8537750  33.9106703  52.4840546
  14.5445008  60.4761076  50.1084661  14.2195553  60.0341272  49.3240595
  13.9135880  61.1784220  50.2663755  75.6673241  39.2652726  49.0026522
  76.2730265  38.9536667  49.6751595  74.8064995  38.9717102  49.3010426
 103.3572483  28.4425855  76.7813826 103.5125637  28.2842183  75.8502388
 103.7092018  29.3189836  76.9372463  86.2243080  10.6296039  55.3995085
  86.2337017  10.7278728  54.4474125  86.7011547  11.3935685  55.7238626
  97.5284290  13.4472764  55.6457567  96.6100693  13.4607720  55.9153318
  97.9267883  14.1798639  56.1157084  81.9903851  57.6006079  70.7019758
  82.0934105  57.4090195  69.7698212  82.2330475  56.7860079  71.1421728
 106.7328453  60.8799839  27.2330523 106.4481258  61.7893553  27.1424031
 107.3615742  60.7538843  26.5224028 110.6859303  13.8611674  61.8930674
 110.6001091  14.8007643  62.0543861 111.6058826  13.6698592  62.0756054
   4.0667958  33.9349675   7.1928936   4.1154808  33.1504631   6.6466230
   4.9519963  34.0391231   7.5418973 100.5775738  50.6639481  29.0073895
  99.9129391  50.0203466  28.7618709 101.1927605  50.6646299  28.2740569
  74.9169302  48.5436726  76.9473553  75.5881691  49.2242813  76.9967985
  74.5469618  48.6354828  76.0693312  90.3249073   4.7276625  35.1160622
  89.6567249   4.2617869  35.6187868  90.4475212   5.5519873  35.5868959
  87.2619152  24.6522403  78.4952831  87.9889488  25.0261450  77.9974413
  86.4860725  25.1019573  78.1605339 102.8785229  56.8575811  54.3364573
 103.7679482  57.1840715  54.4726515 102.7166939  56.2838364  55.0853634
  47.5569785  67.0536254  16.7377047  48.0126918  67.3859177  17.5111060
  47.9309238  66.1842070  16.5944819   5.2417034  20.8548594  36.1673331
   5.7401795  21.2380958  35.4456115   5.2109761  19.9193597  35.9670186
  77.3806429  57.9929399  46.1963463  77.4137115  57.1153069  46.5769958
  77.7059221  58.5671377  46.8896866  53.2361300  23.5263204   3.5352664
  53.3785135  24.4283723   3.2484583  52.4286348  23.5626315   4.0479617
  69.8112631  40.7817173  52.7508783  70.3557587  41.5572214  52.6154232
  69.8166466  40.3344870  51.9046021 106.8921947  52.4633694  60.9544420
 106.5843868  52.9322195  60.1787710 106.1509323  51.9158268  61.2132072
   6.2167877  11.1749244  65.4448795   5.7343621  11.9615793  65.6991816
   5.7938999  10.4670131  65.9309483   0.8477730  26.7258048  38.8857174
   1.0262150  26.9999552  37.9861426   0.6157345  25.8000517  38.8124156
  76.7354012  67.4544621  73.5006237  76.0406256  68.0574036  73.7651634
  76.9719791  67.7347517  72.6164818  61.5577680   1.1761226  95.0925487
  60.6343347   1.1293163  94.8449162  61.5977460   1.8841733  95.7354330
 102.5668526  25.2201772  27.6978397 102.1518421  24.9359632  28.5122228
 102.3809242  26.1578655  27.6488233   4.0971035  26.2749004  38.7618017
   3.5439247  26.8174863  39.3237853   4.7604698  25.9173632  39.3520141
  87.2244549  27.1412992  64.3176556  87.2606564  26.5708494  63.5498619
  86.3635921  26.9728899  64.7007799  77.5670576  50.8857727  49.5499897
  78.4250641  51.2578154  49.3459225  77.7515841  50.1901579  50.1811028
 100.6296062  41.9033337  91.0663223 100.4602337  41.3255501  90.3221989
 100.0326729  42.6405001  90.9379005  90.7189465  35.8436942  63.3470440
  90.8384800  36.7787409  63.5132790  91.6032791  35.5137753  63.1878090
  72.7714872  32.1807957  38.5483599  72.5363207  32.6002836  39.3759823
  72.3293686  32.7045941  37.8802299 105.9574318  22.2948813  31.8617272
 106.4369965  23.1232786  31.8642998 105.0413418  22.5481129  31.9751763
  75.0894880  50.8446932  35.0144553  74.4190073  51.4408827  34.6809268
  74.6410227  50.0033283  35.0994134 103.9589691  44.9114990  56.7796469
 103.2600117  44.2937899  56.5648699 103.5780525  45.7729340  56.6091776
 109.7018433  35.8433223  50.7013464 109.2136478  35.6717420  51.5066099
 110.3219318  36.5325570  50.9394312  90.0967884  59.8518705  22.0678258
  90.3584576  60.4181719  22.7938199  90.2103233  58.9630318  22.4044418
  19.9524922  56.3597202  82.5695610  20.6420464  56.9545221  82.8644371
  19.2000908  56.5728855  83.1215382  86.5946674  25.9452987  53.5599804
  86.6916943  26.6833878  52.9582787  86.7435455  25.1717830  53.0161572
  66.7825270  33.4252930  79.6997690  65.9308529  33.8482189  79.5901203
  66.8495321  32.8255177  78.9567947  88.6704350  56.5476894  56.3605070
  88.5062313  57.0795298  57.1392345  87.8661156  56.6206074  55.8467102
  84.7311974  31.1253643  20.3861547  83.9813328  31.6471434  20.1003599
  85.4873085  31.5515614  19.9825680  87.8983974  56.5711594  82.6235294
  87.7578259  57.2482920  81.9617367  87.1761703  55.9563971  82.4943447
  99.2107773  14.0812290  37.4198699  99.7882557  14.8351228  37.5398302
  99.7951889  13.3239388  37.4546337 102.3719215  54.1453457  42.6946449
 102.2040176  53.2038260  42.7343893 102.8732586  54.3329382  43.4881830
  91.8702507  28.5998726  71.3003016  90.9975529  28.9824367  71.3912296
  91.7761898  27.9519916  70.6019974  90.8512592  43.0300713  22.8513741
  90.2252007  42.3145628  22.9624367  91.6154671  42.6190901  22.4472594
  84.8578739  46.4785719  40.5034351  84.3038273  46.0082054  41.1263466
  84.9991131  47.3347282  40.9075117 113.4395504  37.7872586  78.8934755
 113.9344978  38.5618281  79.1604900 113.7127209  37.6281738  77.9899836
  91.2475491  43.1152630  46.3731241  90.6426811  43.1203318  47.1149683
  90.7190037  43.4090090  45.6311131 107.4354839  63.8243961  74.2417955
 107.8909588  63.8417101  73.4000826 106.5344524  63.5878563  74.0217352
  94.5589447  64.8093891  57.3213863  95.1270485  64.0399456  57.2833920
  93.7071419  64.4933128  57.0201206 114.9359035  62.1019220  44.5323610
 114.2272758  62.5392199  45.0044203 115.2715492  61.4534473  45.1512766
  11.8660874  58.5510635  70.4894352  11.0586876  58.1747246  70.8397150
  11.8143982  59.4801235  70.7139444 105.7435131  80.9584618  57.7233648
 106.5208244  80.9700108  57.1648979 105.2906990  80.1489735  57.4868917
 101.5289021  68.3151007  62.6780558 102.1348667  69.0532017  62.6128101
 101.9108200  67.7503443  63.3499336  89.9880219  49.0685701  59.6789408
  90.4102230  48.2096767  59.6622515  90.5786800  49.6157932  60.1965284
  24.6967835  90.9966278  46.0396004  25.4323715  90.3857422  46.0836887
  24.8040051  91.5565300  46.8085241  92.3708344  57.7707529  91.8423080
  92.9568863  58.4518528  91.5123367  92.8755951  56.9613457  91.7628765
   9.2231316  56.7968988  49.0512943   9.3958229  57.7383757  49.0567255
   9.1973442  56.5527773  49.9764824  70.3961611  29.5963526  74.2988920
  69.4456768  29.4855237  74.3219566  70.7414532  28.7036014  74.2985964
 107.7534008  75.8555031  39.7245526 108.5414410  76.0345793  40.2375364
 108.0261326  75.1927471  39.0900373 101.8052006  79.3274307  55.0384951
 101.4068031  79.8355722  54.3318844 101.0817909  79.1414642  55.6370878
 110.7088947  62.1417284  67.8223181 110.1185417  62.5523853  68.4540415
 110.6146812  62.6686907  67.0288038   3.2658810  87.1082401  55.6952667
   2.6458496  86.4483070  55.3849697   4.1262478  86.7497635  55.4773426
  42.2466034  72.9862261  83.1570911  42.8829808  73.4073114  82.5792122
  42.5707859  72.0913553  83.2587528  96.0121536  53.4949493  48.3994865
  95.2559090  53.3869505  48.9762592  96.2756538  52.6012516  48.1801510
 104.9535847  74.0689850  57.8340530 104.6274948  74.1397095  56.9368887
 105.7444286  73.5348320  57.7600431 112.8617954  44.4689941  79.6501112
 113.5546780  44.3626738  80.3019047 112.1564579  43.8982582  79.9550724
  21.9411225  45.6209993  59.5425558  22.8100247  45.6378078  59.1413498
  21.4541191  44.9740505  59.0321589  10.6022972  58.7654114  54.8811150
  11.1436981  58.7008190  55.6678486  10.6653828  59.6846437  54.6217632
  82.8732300  48.2176542  56.1590528  83.3753872  48.0517149  56.9568872
  82.8139877  49.1716242  56.1074018   2.6155228  84.1699791  48.8635492
   2.2530121  85.0529575  48.7917614   2.8919644  83.9514732  47.9735708
 115.6161118  76.8802118  83.6035156 114.6865463  76.6566133  83.5571384
 115.6763363  77.7410698  83.1893539  13.7465615  68.0469036  45.9507751
  13.5370011  68.7188530  45.3020811  14.1502327  67.3423290  45.4439640
  22.6598210  70.0820827  90.3392315  21.7690701  69.7562504  90.4682064
  22.5824684  71.0320663  90.4274464 108.4704781  48.3610010  70.9097672
 108.7893581  48.4752226  70.0145006 108.2211781  49.2418337  71.1894369
  85.7114410 101.9425201  35.9380865  85.3427124 101.4351082  36.6611409
  86.5908051 101.5840435  35.8178806   1.6098446  57.4497557  47.0470762
   1.1056752  56.9380045  46.4145041   1.2069744  57.2501230  47.8921080
  96.8196678  87.3643112  67.9948473  96.2042427  87.5250626  67.2795582
  96.8313408  86.4120579  68.0913162 110.0272465  36.8499827  47.1642303
 110.9281635  37.1712470  47.2013140 109.5544624  37.3889613  47.7984333
   2.7949583  90.3757835  95.5515671   3.6422789  90.8094407  95.6526653
   2.3006212  90.9494711  94.9661159  15.8203263  63.3880568  67.1428680
  15.3764386  64.1498899  66.7702866  15.6569428  63.4521246  68.0838442
  79.0461588  43.0325317  42.7357054  78.3062744  43.5942316  42.5048590
  79.0597582  43.0356359  43.6928034  83.2132053  40.3116751  87.1878815
  82.7075386  41.0852861  87.4369907  82.5844288  39.5911288  87.2288513
 115.0172806  68.8724661  53.3678770 114.7733498  69.7844315  53.5261202
 114.5910072  68.3847666  54.0726280  95.9311104  69.3699789  81.5581608
  95.7250309  68.7614584  80.8486080  95.0825119  69.7241545  81.8239784
   4.1032452  66.2170506  48.3341026   4.0644879  65.8973360  49.2354965
   4.0294403  67.1680593  48.4138966  50.1944048   1.0713624   9.3997244
  49.2521746   1.1637067   9.5408110  50.2698309   0.7035541   8.5192351
 103.5204601  92.2348118  31.7380977 104.2416286  92.6515961  32.2097349
 103.1326294  91.6348743  32.3751926 107.3650742  63.5276270  59.4732285
 107.9417419  63.8133144  60.1817989 107.3160458  64.2816114  58.8855743
  94.8507500  38.8023138  32.8894401  93.9713192  39.0912104  32.6457691
  94.8249340  38.7352061  33.8439345 111.3676739  70.3818798  90.4770470
 111.1384678  70.7673693  89.6314144 112.0620918  69.7550869  90.2742004
 107.5387001  80.4620266  52.9107523 107.0990658  79.8624325  53.5136127
 108.4004211  80.0701141  52.7690697  94.9844456  83.7303257  71.8920612
  94.4205666  82.9613304  71.8088341  95.0173092  83.9025116  72.8330708
 103.3849049  94.4566441  68.8158941 103.3088303  93.9902020  67.9834986
 103.8845348  95.2450848  68.6038446  80.0313663  61.3788700  62.8239441
  79.5798540  62.2228718  62.8296232  80.0619793  61.1298275  61.9002151
 103.9791679  71.0624456  48.5004807 103.8728142  70.4472256  49.2260313
 103.1759071  71.5829659  48.5081148 111.2202168  42.2955608  60.4321527
 110.4901028  42.2092772  61.0451174 110.9069824  42.9139662  59.7720814
  95.6928730  50.7339764  87.4558449  95.1671410  51.5118742  87.2695351
  96.0651684  50.8983755  88.3222198  85.8606720  83.3363819  15.0289249
  86.3447857  82.9390907  14.3050313  86.3688946  84.1143322  15.2585578
  96.4460945  66.7735672  57.2034407  96.2564850  67.2276545  56.3824129
  95.8136463  66.0556221  57.2316551 107.3153114  84.0081978  64.5756245
 107.3398685  84.9182796  64.2800236 107.6957130  83.5108662  63.8516188
 107.5930119  44.7913170  69.9808836 106.9405842  44.3368864  69.4479036
 107.3641109  45.7173634  69.9016571  79.5806694  60.7456160  77.2743654
  79.7505093  61.2499428  78.0700064  80.4259586  60.3544092  77.0537519
  15.1406521  89.0861511  64.0517807  15.0678677  89.5080471  63.1956625
  15.2193779  89.8121262  64.6706438  81.4144421  45.4319811  80.8344746
  82.3037624  45.6132126  80.5303383  81.2174225  46.1477470  81.4387131
   4.1591496 102.0427322  47.1074200   4.4378990 102.4206257  47.9415226
   3.5856098 102.7060890  46.7236996   3.1581730  87.9570675  47.9102325
   2.9931492  88.8057804  48.3209515   2.8855175  87.3161697  48.5668421
  16.9521851  34.0674329  29.1026902  16.1500210  33.7910533  28.6595488
  17.1716160  34.9071860  28.6990881  80.8715057  66.7748547  11.8712747
  80.2970314  66.0517836  12.1230495  81.6557407  66.6553593  12.4069190
  96.9241238  79.2933273  84.3550491  97.4589348  79.9193573  83.8668919
  96.0308647  79.6278906  84.2751217 107.7646732  47.6131487  59.2171669
 108.3703995  48.2717800  58.8772631 107.5247002  47.9343271  60.0863504
 102.4529059   1.2627363   9.1329913 101.7240507   0.6535577   9.2508940
 102.2860891   1.9611692   9.7659163 104.9312878  54.6016598  59.3371916
 104.2294502  54.6272993  59.9875736 105.2316952  55.5082369  59.2731237
  82.3187828  35.5944777  49.2701101  82.6160431  34.8331738  48.7718296
  82.1672153  36.2694407  48.6085367  82.1767902  57.3018885  48.3020449
  82.0412827  57.2592497  49.2486477  82.5410938  56.4467430  48.0734825
 101.6439915  84.4449329  82.1486855 101.4590263  85.3797722  82.2386456
 101.7635059  84.3138504  81.2080669  20.9298367  27.7745652  62.7695799
  21.8423981  28.0573940  62.8285933  20.8946366  27.2435713  61.9739437
  12.9602951  75.9312010  16.5621185  12.1130318  75.8993721  17.0063853
  13.4485382  75.1917887  16.9242287 105.6914616  37.3433971  37.8283882
 105.9274769  38.2645392  37.9380536 106.5290260  36.8927431  37.7205539
 113.8523197  60.3668499  38.1329536 114.6929169  60.4659176  37.6859641
 113.9151192  60.9461641  38.8923502 101.8369484  74.3330765  86.6356468
 101.7226219  73.5400248  87.1593189 101.1509895  74.9249649  86.9444561
 105.6322289  64.7265291  43.6325788 106.2495041  65.4142189  43.8821316
 105.9008217  63.9653540  44.1470671  21.0920376  56.7419434  47.2598076
  20.9671730  55.9251070  47.7429485  22.0217556  56.9433546  47.3660851
 115.8746529  63.4788370  50.3651905 115.1088428  64.0185881  50.1691198
 115.6714725  63.0717278  51.2073374  19.4872040   7.6752388  79.5810032
  19.7849125   8.3159959  78.9352226  18.5412545   7.6202881  79.4454098
  48.3627856  93.9520727   6.5861468  48.6429084  93.8656221   7.4973444
  49.0172542  94.5258485   6.1877875  83.6168289  43.6628485  78.2302046
  82.7314854  43.9690304  78.4267950  84.0545082  43.6333942  79.0809727
  99.2609119  71.0744333  38.1062627  99.6297646  71.0169125  38.9876699
  99.0226460  70.1736450  37.8870797 110.4090786  41.9929218  68.4238863
 110.5450630  41.0840893  68.6917734 110.2924156  42.4699163  69.2455292
  88.3411789  58.0192518  49.7342014  89.2971611  57.9810143  49.7047567
  88.1320572  58.9336586  49.5435190 103.9871502  54.3627071  53.2005215
 104.5808220  54.8341513  52.6161194 103.4732056  55.0497055  53.6249256
  99.9774265  66.8475866  64.7238541 100.9187984  66.9324112  64.5726442
  99.9088860  66.3014841  65.5069876  68.1151819  47.7053308  88.8471317
  68.0988359  46.7787790  88.6074257  67.2975779  48.0580473  88.4959221
  95.1514721  42.4183989  82.7853012  94.9674034  43.3516836  82.8917885
  95.4805756  42.1401405  83.6399937 100.8686161  56.5375996  66.2768221
 100.9552765  57.4604988  66.5155220 100.3040981  56.5421200  65.5038261
  25.0433773  86.1729717  87.8833580  24.7008652  85.2841473  87.9776859
  24.3159146  86.7387104  88.1421471 111.5199471  59.9503851  33.8480806
 111.3897610  59.3406391  34.5743704 112.4543190  60.1566744  33.8730860
  89.5338345  55.1837015  49.0405226  90.0661087  55.9790754  49.0576124
  88.6326122  55.4969168  49.1174412  81.8400669  51.8310118  27.7953768
  81.3868046  52.6739550  27.8107166  81.1388302  51.1832333  27.7255845
 116.6198444  69.3188524  67.3875237 116.0742474  70.0823832  67.5761366
 117.1152115  69.1734552  68.1935596  36.5524924  97.0196305  17.6000552
  36.2287391  96.1375724  17.7827887  35.7615150  97.5505744  17.5069003
  63.4846306  17.2431350  63.9263439  63.5102224  17.7660203  64.7276974
  63.3491135  17.8827500  63.2272339 106.5290356  59.4540024  45.3749847
 105.5938911  59.3178082  45.5272436 106.9253540  58.5980368  45.5377197
  75.1502877  29.3581952  93.4543134  74.2947942  29.7677888  93.3255504
  75.6444722  29.9935044  93.9723930 109.6719360  52.3848915  90.5984879
 109.3906975  51.8544388  89.8529911 109.3590355  51.9051552  91.3654137
 100.3342342  49.0702772  56.2102127  99.8372746  49.1748333  55.3988361
 100.2341557  49.9081707  56.6620398 103.3955193  64.9862623  71.8801260
 103.1692791  65.8163738  71.4606428 104.3086529  64.8355007  71.6358423
 106.9477272  36.3762832  47.9430437 107.3588371  37.0804906  48.4443521
 107.6593113  35.7608175  47.7667379  75.3182507  52.2270870  32.1974754
  75.4083157  52.9462767  32.8226852  74.3776798  52.0519733  32.1677065
 107.4840832  38.7046075  75.1519775 107.2889614  39.5571542  74.7629738
 108.1636524  38.8872957  75.8008480 110.0688171  63.4028769  58.1224108
 110.7934380  63.6590195  58.6929750 109.2858696  63.5284138  58.6585808
  82.3492908  60.3831577  76.6530848  83.2149220  60.4486561  77.0563555
  82.4575138  59.7344017  75.9576464   9.5320458  42.8858089  54.8117876
   8.9785809  42.1155214  54.9405098   8.9209313  43.5825062  54.5722389
 110.9698772  33.7615418  71.0424137 110.4063988  33.0600810  70.7157993
 111.1968040  33.4917235  71.9323206  94.2359907  21.2079620   6.7006545
  93.3634741  20.8378743   6.8347220  94.0815050  22.0121002   6.2049441
  16.4030612   5.0031699  15.8694065  17.2673476   4.6129454  15.9996736
  16.2392295   5.4961909  16.6733491  39.9553437  43.2356787  92.6199341
  39.1860146  42.7709723  92.2906590  40.2396340  42.7224779  93.3762550
  26.2267441  67.6167393  65.7565975  27.0689720  67.7272320  65.3153896
  26.3883538  67.9015303  66.6560459  97.3903370  94.4739437  35.6924891
  97.6132584  95.0898170  36.3905096  98.2324219  94.1173077  35.4097772
  14.3602509  14.1192305  70.1868868  15.1862568  13.7332821  70.4784107
  13.8651699  14.2628717  70.9934187  16.9337601  48.9046335  49.5847368
  16.8018574  48.6926079  48.6606836  16.3994641  49.6854401  49.7299528
  79.0438700  11.9971395  53.9036560  78.7185907  11.0969031  53.9038944
  79.3289089  12.1485722  53.0025148  94.3009949  69.9379110  50.5642080
  94.5186615  70.3042173  49.7070742  93.3480167  70.0084209  50.6198120
 108.5909653  74.2354870  64.9786234 108.1793976  73.4244299  64.6802521
 107.8852749  74.8820066  64.9630070  95.1432610  63.3952570  62.5141287
  94.9851036  64.3100309  62.7473927  94.7646141  63.3020878  61.6399527
 111.6196918  73.0095720  75.6478834 112.3896599  72.7587128  75.1375484
 110.9908485  72.3042870  75.4950333  96.0379028  60.0314379  36.8188524
  96.2320042  59.1016531  36.9374371  96.7318344  60.3491974  36.2411642
  99.1067123  90.6396866  36.0487723  98.9137936  91.3513279  35.4383779
 100.0263214  90.7668304  36.2819529 115.1674366  78.9230919  57.1556997
 114.5161152  78.7843561  56.4681244 116.0048866  78.9400196  56.6924286
  99.3417072  88.5448265  73.2915401  98.9052868  89.0349007  73.9883852
  98.7896729  88.6804676  72.5214195  37.3333878  52.2000170  78.9925766
  37.2799725  51.6775227  78.1923389  38.1819386  51.9711828  79.3718386
  21.9309849  37.6230931  61.8929958  21.9760746  36.6738772  62.0078325
  21.2506050  37.9062057  62.5038719   6.7672676   4.2157248  60.6553602
   5.8373303   4.1441458  60.4401302   6.8422360   3.8258195  61.5263319
 107.3942375  57.5479889  40.1271152 107.2851658  57.6874113  41.0678053
 108.3421993  57.5188971  39.9976301 110.7692528  49.1024446  43.2195520
 111.3451958  48.3829594  43.4781504 111.3607407  49.8389244  43.0647278
  85.9555226 107.6947828  70.4941607  85.3057939 107.0573490  70.1979208
  86.3471776 107.2944741  71.2704277  89.9232197  36.9461703  82.0536518
  89.0052700  37.1730685  82.2023392  89.8933792  36.0768938  81.6540241
  89.5862103  66.7782402  23.4397793  89.1147995  67.1320677  22.6855826
  90.1487350  67.4966002  23.7291718   1.3672013  19.1716647  88.1845760
   1.0442871  18.2802343  88.0530071   0.6316513  19.7318625  87.9368496
  36.9815964  47.1475506  72.6176882  37.2129483  46.7830038  71.7633915
  36.4858193  46.4514446  73.0488253  82.3083001  94.9812829  80.8254147
  82.5912648  94.2667126  81.3959885  82.2065717  95.7305192  81.4123726
  91.0595894  42.5317144  85.6629276  91.1093044  42.5729561  84.7079086
  91.4997387  41.7127466  85.8905220 114.3064404  50.2395487  54.1830921
 114.7102737  51.0250854  53.8142014 113.7505913  49.9033260  53.4800863
  11.2639088  31.0180855  18.8912034  10.7598919  30.3663373  19.3784678
  11.1216873  31.8360233  19.3676305 108.8928509  50.0749063  48.9220428
 109.3463612  49.5365047  48.2734442 108.8738441  50.9503794  48.5354948
 107.8585243  81.1372280  43.2344007 107.6755142  80.2391624  42.9583216
 108.7713623  81.2828732  42.9859352  36.9891590  58.0793428  44.2739010
  36.9231457  59.0011358  44.5232487  37.4878258  57.6743889  44.9835300
 100.2430725  23.7197399  22.8213263  99.5166016  24.2482233  23.1517482
  99.8258400  23.0549955  22.2733641 109.1729164  58.3732319  33.1728840
 108.6816216  57.5591993  33.0623937 109.4363117  58.6163664  32.2853351
 108.3622360  75.5065632  51.3993692 109.1802120  75.4256678  50.9088659
 108.6199474  75.3967142  52.3146582  88.5233116  85.3365517  43.7479591
  88.2075596  85.2998924  44.6508360  88.8203907  84.4458675  43.5617733
  92.3926926  67.2056913  39.4578338  92.3639870  67.3727846  40.3998995
  91.4749146  67.1093369  39.2036009  80.3375322  17.7225208  26.9798808
  80.4085428  18.4228896  27.6284747  80.5143911  18.1522321  26.1430411
  20.8456767  56.4039366  10.1664118  20.1199878  55.8545799  10.4627566
  20.9329379  56.2033263   9.2345480  96.5462685  64.4956350  37.5187945
  96.1934376  65.1502419  38.1214833  97.1568108  63.9849710  38.0504799
  95.4923153  34.8546338  93.1879807  94.8866081  35.1391506  93.8723850
  94.9314594  34.4570804  92.5219154  70.1751566  55.7755661  68.3105183
  69.3520594  55.9022713  67.8386211  70.0314474  54.9882555  68.8356113
 109.7928143  77.8393269  44.5146751 109.0499401  78.4428644  44.5252085
 109.3958473  76.9723082  44.4314623  12.3467678  60.4911375  42.5985718
  11.7778534  61.0727978  42.0943403  12.9443211  60.1191235  41.9499063
  69.6925354  26.7985916  77.3326683  69.4119596  27.7041650  77.2006035
  69.9488211  26.7592072  78.2540798  78.0235147  73.6693573  75.1771402
  78.9314127  73.7982464  75.4516220  77.9332781  74.2048836  74.3889141
 111.0430908  49.4318676  72.9866838 111.6020107  49.4954920  73.7611485
 110.6395817  48.5664129  73.0529690  89.3825626  57.4415112  45.7858086
  88.5500145  57.6933670  45.3862381  89.3863392  56.4850330  45.7488251
  83.7610626  65.7730293  69.3979025  83.4332561  66.1081362  70.2324533
  82.9731560  65.5347204  68.9093924  14.2519135  73.0009985  46.3505697
  14.1781849  73.9393902  46.5244150  14.8186058  72.6719522  47.0482969
 107.0274734  60.1832342  62.7904129 106.3044548  60.7510424  62.5238228
 106.9312763  59.4015598  62.2463846  78.9500029   6.1841964   9.2855696
  78.6439592   6.3993072   8.4044985  78.4600050   6.7728614   9.8596911
 102.7693367  80.3322411  21.3995552 102.0483780  80.6909561  21.9170332
 103.1562710  79.6606112  21.9611788   8.4278817  50.8882332  37.9136252
   8.2461018  50.0736332  37.4449944   8.2538266  51.5773487  37.2724867
  73.4825308  13.7045574   8.1809763  72.6503260  13.2915162   8.4113268
  73.4137900  13.8741111   7.2414164 109.0023422  38.4267068  30.0992465
 109.0409660  39.3451357  29.8323584 109.0898705  38.4503055  31.0521436
 104.5516777  69.3462133  34.0624046 104.8106003  68.8629913  34.8470640
 103.6080933  69.2013788  33.9923882 115.9680557  49.0585804  46.9069004
 116.2560368  48.7891293  46.0347271 115.3812790  48.3582640  47.1923733
 105.8899975  86.6230679  66.2381124 105.5815029  85.8533001  66.7161512
 105.1041412  86.9775486  65.8221769  97.1659565  53.1171179  51.4459515
  97.4634457  53.3100557  50.5568457  97.2086811  52.1630907  51.5110731
 105.4759216  56.8978882  38.5592890 104.8621941  57.6317167  38.5265684
 106.2049103  57.2188234  39.0901423  93.9101410  28.6461186  41.1300850
  93.8217926  29.4733095  41.6035652  93.7541676  27.9730844  41.7926025
  24.6399368 104.8179065   6.0018115  24.4204105 105.1605426   6.8682055
  25.2698291 104.1179429   6.1736159  10.7911248  29.7017050  24.7134924
  10.1447720  29.8682976  24.0274143  11.2917942  30.5153131  24.7735286
  31.1739982  92.5569187  12.5853209  30.8655513  93.1097303  11.8673472
  31.7447055  91.9139849  12.1644263  85.8482170  29.1644883  81.1089516
  85.8029175  28.8687062  82.0181751  84.9341202  29.2306471  80.8327675
   7.8333515  55.7638836  73.1854486   8.4760708  55.0866032  72.9746532
   7.5559277  55.5610609  74.0788269 111.4330959  63.3876419  52.5843287
 111.0246468  63.5141659  53.4407091 110.7035923  63.1852341  51.9985867
  95.7002258  21.7849231  39.0765095  95.2134895  22.4944067  39.4959807
  96.3802910  21.5541768  39.7093534  21.3039345  48.0651665  44.3634558
  20.8997006  48.6012363  45.0457001  20.6614155  48.0558920  43.6540127
 109.6855640  26.9884968  77.0253277 109.6637917  27.7710104  76.4744854
 109.6458149  26.2590313  76.4068365 109.7921848  75.5384398  32.9306030
 110.2478218  74.9907446  32.2913432 109.0970898  74.9773645  33.2745075
  94.1120625  49.6734858  68.8699436  94.9900436  49.2941523  68.8313913
  94.0464306  50.2064800  68.0775785 116.0961914  71.0747957  23.3373094
 116.5607643  71.5941477  23.9935708 116.4786434  71.3458204  22.5027418
 116.8476677  59.6959352  40.2311373 116.9607449  58.9089680  40.7641792
 116.8413639  59.3754387  39.3292093   8.4600491  50.4698706  78.9506102
   7.5913662  50.4068470  78.5535526   8.9837307  50.9465885  78.3066177
 105.8294773  45.9963560  94.7929573 105.2688122  45.2928257  94.4659615
 106.6183376  45.5503178  95.1011276 103.9397335  51.6345882  88.0621719
 104.1153145  50.6943655  88.0249977 104.5439434  51.9649696  88.7270069
  96.1503983  68.3947897  59.4246912  95.3334236  68.8369560  59.1938877
  96.3222408  67.8089857  58.6874437  97.5255585  88.8967800  59.4943142
  98.1389332  88.2161999  59.7714853  96.8021107  88.8356686  60.1181030
 107.6275921  71.3920641  51.7203808 107.0737362  72.0653963  51.3253021
 108.4778881  71.8170071  51.8328857  85.3067684  37.4348259  27.4567556
  84.9630356  36.5838528  27.1848726  85.4155922  37.3574495  28.4045959
  87.1596336  66.7212248  80.3267384  88.0292511  66.7380524  80.7263756
  87.0729160  67.5764942  79.9057531  18.0119080  35.8167148  24.0941739
  17.8242726  35.9138179  25.0277686  18.6501355  36.5046358  23.9053226
 101.7195702  67.1045399  60.0313759 101.6679096  67.6186275  60.8371544
 100.8292961  66.7795420  59.8971272 101.0932350  60.7186365  39.9166656
 101.1291409  60.7917070  40.8703995 100.7352352  59.8454475  39.7566628
   4.7053284  79.8434258  75.0867462   5.5382294  80.0662422  74.6709824
   4.8201222  78.9409781  75.3844786   1.9126458  97.5945187  65.3188276
   1.8355698  96.7018795  65.6557131   1.9785542  98.1411648  66.1018133
  83.1728154  24.6649064  72.3434468  83.0376702  24.1518010  71.5467711
  83.8734227  24.2066373  72.8075238 101.9227695  66.0428762  67.9640198
 101.6230392  66.6611195  68.6304855 101.1250973  65.6041765  67.6682472
  96.3743973  67.5276327  47.2158384  95.5637360  67.6769543  46.7292595
  96.4426899  66.5750933  47.2809172  96.0307312  94.9323559  52.4440908
  96.8356514  94.6473789  52.0114994  95.6487560  95.5713177  51.8423891
  14.6001381  53.2523537  50.6550169  13.6441464  53.2676220  50.6094265
  14.8065323  53.6644793  51.4939356  99.0578270  76.3898659  70.5033922
  98.5189342  76.4872742  69.7183180  98.4331512  76.4205599  71.2280130
   3.9755959  79.9877453  20.5824137   4.3667740  80.7426929  21.0220313
   3.3695645  80.3682804  19.9466896  82.4670584  51.4778852   2.1607260
  81.9692595  51.0999536   2.8857092  83.2674486  50.9543943   2.1211771
  96.3600809  54.9601411  12.5848917  95.6984026  54.2914056  12.4082236
  96.9745524  54.5366239  13.1843047  43.8829673   0.5895937  51.6817713
  44.6343291   0.1325739  52.0596790  43.1901801  -0.0703489  51.6544294
 108.1203175  78.0375004  33.4369564 108.3967876  77.1545029  33.6821318
 108.9195442  78.4600496  33.1224442  16.4424670   5.9043158  71.3651657
  15.6866039   6.1387576  71.9036245  17.1381248   6.4919508  71.6600800
  80.0492859  94.9242210  79.1511774  79.6651030  94.2486668  79.7099829
  80.8902836  95.1250076  79.5618343  11.3682885  84.5341587  79.4865656
  12.1837181  84.7018623  79.9590063  11.4977116  83.6761379  79.0824890
   3.8081211  72.2598267  39.9857187   4.4830651  72.1896839  39.3106151
   3.9855046  71.5295172  40.5785275  67.3870433   3.1074084  73.3722639
  67.1393359   3.6368597  72.6142693  67.5478805   2.2349776  73.0127811
   0.7438607  82.0244122  55.1287794   0.7051987  81.0792542  55.2750921
   0.5754036  82.1288967  54.1923285  97.7890587  73.9919472  68.3710623
  98.5438156  73.9875793  68.9597559  97.3546696  73.1543779  68.5323429
  95.5913162  95.1272583  57.9162359  95.7732487  95.0659275  56.9784880
  96.3322449  94.6875191  58.3332253 106.9838047  51.1593199  63.7989616
 107.3059368  51.0643625  64.6953154 107.3517513  50.4094219  63.3315182
   7.6675457  82.5955009  59.3630600   7.4104351  81.7054939  59.6039152
   8.4403176  82.4802113  58.8100958   6.3090653  72.5239182  85.5846882
   5.9873146  72.9158783  84.7728539   5.6749768  71.8357420  85.7861423
  76.3731480  33.1324720  61.4131117  76.9128752  33.0960393  60.6234264
  76.9285107  33.5628819  62.0631504  10.2096981  97.5459003  60.5289936
   9.8766846  98.2074070  61.1354113   9.4243759  97.1563911  60.1445675
  95.0604153  69.7146320  53.1639004  95.8506680  70.2538967  53.1943464
  94.6027565  70.0047159  52.3748350  96.9255066  56.6873932  51.9328880
  96.4801025  56.5994930  51.0902023  96.3821602  57.3003101  52.4282026
  19.4730038  73.1727028  50.0114489  19.8869938  73.8085127  50.5950546
  20.0292534  72.3959398  50.0702763  84.8272800  78.3034563  76.1894655
  85.7415295  78.4118652  76.4514112  84.6035480  79.1262817  75.7545710
   7.5253052  73.7388086  75.4915905   7.2052044  74.0543652  76.3366890
   7.4409909  74.4921207  74.9070883  91.1069965  80.5021572  44.2852354
  91.1306572  80.8927917  43.4116936  90.7042122  81.1728764  44.8367167
  94.7625351  65.5717707  32.9920387  95.2940178  65.7624435  32.2191167
  94.7679996  64.6167850  33.0568218 113.5241795  79.3251657  61.8897820
 113.2710743  78.6534214  62.5229645 112.6962090  79.6239662  61.5137291
 109.3953514  88.0377579  67.3490906 108.7195587  88.2360268  67.9973316
 109.8431396  88.8717747  67.2071600  72.1238565  65.2432013  82.8737259
  72.1004534  64.2876387  82.9245377  71.2186193  65.4956245  82.6918888
  98.1702423  77.2977114  60.8613062  97.3810291  76.9744158  61.2958813
  98.7873840  77.4595070  61.5748882 103.7217999  80.9344387  16.6659439
 103.0499363  81.5634632  16.4029431 103.3344364  80.4651642  17.4048376
  96.8078136  56.3448858  48.2705975  96.3488007  55.5138111  48.3924818
  97.5971508  56.1130285  47.7812958  16.1548752  86.3957119  51.7141438
  15.2222103  86.3806629  51.9289637  16.3748116  85.4809856  51.5376997
 116.4271545  41.4754868  52.1687031 115.5454922  41.4866161  51.7961788
 116.8890285  40.8009052  51.6708660 115.2998352  83.6624146  48.7648249
 115.4387379  83.7055683  49.7109079 114.8145962  82.8482628  48.6308765
  19.0252823  45.2104998  44.0932131  18.3611912  44.5258474  44.0128136
  19.8560948  44.7360420  44.1225863  10.5870385  94.1731834  65.9928751
   9.8349232  93.5905075  65.8877945  11.2172264  93.8711739  65.3387451
  97.6093578  89.9549580  69.4486809  96.8171787  89.5061779  69.7441244
  97.2882462  90.6772709  68.9088774  23.1362767  81.6531372  62.4989986
  23.3890480  81.6488075  61.5757847  22.6455921  80.8397579  62.6167965
  19.0783829 107.4120235  55.3968763  19.7512001 107.3541641  56.0752535
  19.5367760 107.1930695  54.5855999   1.6095871  93.8456345  92.8259945
   0.8530945  93.4470558  93.2562160   2.1536392  93.1035519  92.5622559
  71.1593991   6.1231889  95.4798301  70.6241876   5.6431379  94.8479046
  70.5693990   6.7859115  95.8388906   4.3873638  96.6971111  67.6499605
   4.1049046  96.4066982  68.5172033   4.4469303  95.8921528  67.1354485
 114.3140697  76.5846539  49.5667505 113.7083721  75.8562422  49.4297171
 114.2142010  77.1293211  48.7859869  42.9177917   8.0450476  84.8739529
  43.4901298   7.5749720  84.2675877  42.2921527   7.3852385  85.1730347
  84.2289734  97.8985882  53.8182259  84.9242878  97.6189709  53.2227612
  84.6230698  98.6031055  54.3325949  86.7288780 108.1011581  36.5488052
  86.4647484 108.3519554  35.6636119  86.0294437 107.5225830  36.8525815
  28.5042042  79.3826389  58.3266830  27.9338974  80.1506615  58.3601141
  28.5753865  79.0973377  59.2376041  97.8557777  61.3630915  27.4371672
  97.5606918  60.7266283  28.0883741  98.4484863  61.9406414  27.9181647
 101.6331863  79.8997879  59.6805096 100.7660103  79.4968700  59.6369886
 101.9797421  79.8188925  58.7919235   3.2440895  87.0880985  68.3013821
   2.9443783  87.1467590  67.3942089   3.2624096  86.1493111  68.4873390
   1.4741558  86.6435623  49.9357271   0.5690426  86.4991665  50.2116823
   1.9494290  86.8084717  50.7500696 103.7907887 103.8704014  70.1313305
 102.9166508 104.1529655  70.4001570 104.1599369 103.4580421  70.9123039
   2.4457115  99.0535641  71.7987919   2.6718087  99.9443531  72.0663977
   2.9021115  98.4921074  72.4254465 103.8012314  79.9636650  33.2182908
 103.6288643  80.5167389  32.4563003 104.6684837  80.2344799  33.5195494
  63.8049872   8.1968402   1.6686587  64.6176226   7.7118444   1.8123011
  63.1129057   7.5820112   1.9120554 107.1506500  79.4269276  37.7603531
 106.7813873  79.9647808  38.4607768 106.8664074  78.5365486  37.9669023
  13.8673348  72.4097729  58.9130354  12.9968495  72.6763821  59.2086840
  14.1609711  71.7792988  59.5706940 111.0091305  35.8624363  55.1355124
 111.1425781  35.0515127  54.6447706 111.3477516  35.6715322  56.0102272
  97.6624870  52.9123831  64.1531372  97.7608299  52.8211117  65.1008892
  97.5032043  53.8464737  64.0177250 103.9637947  67.0977545  22.6897883
 104.6409225  66.4216709  22.7152443 103.4875584  66.9292688  21.8767476
  76.2980890  66.3259411  78.6357212  76.4790392  65.6691170  79.3080807
  76.9924784  66.9759941  78.7428999  91.7913342  80.3347492  68.5959864
  92.0410252  79.4169331  68.4887505  91.1704826  80.4985714  67.8860998
 106.3318539  80.8757401  34.0224147 106.8361092  81.6237831  34.3423748
 106.7654514  80.1131535  34.4054079  18.3502621  41.9303036  44.6736240
  17.7961487  41.7671204  45.4368830  18.7187714  41.0736895  44.4576406
  30.7090039  54.7729445  56.5683651  30.3080506  55.3298759  55.9010601
  29.9955887  54.5743895  57.1748686  19.9407542   3.9004553  53.4857893
  19.0634502   4.0497149  53.1332445  19.8629344   3.0879057  53.9857292
  14.7940487  21.2157369  62.0729351  14.8156494  21.1417723  63.0270243
  15.5464882  21.7671227  61.8583536   9.0135712  69.0524483  65.2901793
   9.2024178  69.6644306  64.5788097   8.1516117  68.6953068  65.0763845
 103.8229942  53.5249853  70.6192017 104.1466427  53.9452028  69.8223972
 104.2862892  53.9691353  71.3293552  29.7774929 104.4238949  68.6546612
  28.9857525 104.6648216  68.1736851  29.9162907 103.5013008  68.4406996
 112.1493721  80.3532982  27.2719097 112.2289753  80.9018040  28.0523205
 111.2059784  80.2514744  27.1459389  81.1773586 100.2008343  61.9613838
  80.7904434 100.6638622  61.2183332  82.0600414  99.9738312  61.6688442
 102.5568771 100.9805965  32.7648139 101.6371727 100.7332802  32.6689267
 103.0026054 100.1634789  32.9881358  19.2038292  72.7038002  72.4679661
  20.1076741  72.3935747  72.5233316  18.8411183  72.2502518  71.7070675
  12.5091690  59.2768431  36.4591217  11.5680260  59.1935778  36.3056779
  12.6828713  60.2147245  36.3788843 105.6509399  46.1166573  65.8245564
 105.4812813  45.5067492  65.1066017 105.3673935  45.6476355  66.6093206
  19.8266835  98.6736202  66.1611271  20.1133675  97.7844524  66.3694859
  18.8841957  98.6667252  66.3281441  95.0451851  61.7574978  86.8952847
  95.9249401  61.4026785  87.0231915  94.8178577  61.5162897  85.9973049
  34.6450371  85.9309006  60.3088665  34.4822926  86.2027454  59.4056273
  33.8700909  85.4231834  60.5495119  65.2751429  20.2944803   9.3616538
  64.5706541  19.6556949   9.4706587  65.2730448  20.4960107   8.4259085
  83.6337549   5.2112769  17.7600722  83.4336741   6.0625552  18.1493430
  82.8572447   4.9956273  17.2435908   7.2228951  84.2833900  72.2278500
   7.4313874  83.3793736  71.9922209   7.4244351  84.3400192  73.1618738
   2.7061409  24.1284180  44.3666935   2.4557728  23.2325745  44.5925474
   3.3457417  24.0278435  43.6616898  94.8191357  70.8113003  45.0780439
  95.6949711  71.1895895  45.1556873  94.7406387  70.5767775  44.1533422
   3.8066334  85.1691437  93.6158657   4.0918297  85.2530861  92.7060032
   3.7578530  84.2249584  93.7654495   0.1815457  89.8228645  42.7792168
  -0.3641182  89.5124626  43.5018158   1.0532708  89.4776154  42.9719114
  85.0368786  91.6479397  42.7809858  85.9032154  91.3445663  43.0523634
  85.1397324  92.5923252  42.6635551  17.6401848  83.3508110  71.7409754
  16.8073029  82.9288673  71.5300083  17.7689976  83.9901733  71.0403633
 112.0840168  96.5522480  51.8331146 112.7612877  96.6089058  51.1590719
 112.5678635  96.4189625  52.6481962  20.1246590 105.8488178  42.3583126
  19.9427456 106.7718601  42.5347328  19.9259037 105.4038048  43.1821394
 113.9912510  88.3813000  59.9033070 114.4068813  88.0690384  59.0995789
 113.2464981  88.9013100  59.6013880   4.3659825  23.2709384  34.1568089
   3.6625618  22.6862144  34.4388151   4.2878956  24.0334606  34.7301269
  54.2975581   2.8354777  75.0848722  54.5607913   2.0644034  75.5872440
  55.1221336   3.2236994  74.7923136   4.3059582  68.3345175  38.2955670
   5.2252526  68.5132313  38.0975890   3.8814778  68.2862711  37.4389911
  42.9354746  30.6378316  13.9982943  42.4086077  29.8496198  13.8665251
  42.6164705  31.2524080  13.3374075  95.5423546 104.2338181  20.0461745
  96.0905933 103.6174965  19.5605683  95.2973747 103.7611198  20.8416438
 113.8895226  86.9966507  62.1922207 113.9242172  87.6333046  61.4782906
 112.9972363  87.0658779  62.5317287  13.1765044  29.4270171  58.5769987
  13.5977519  30.1576460  58.1242704  13.8937152  28.8276804  58.7835026
   7.5800448  98.0985378  59.4645882   8.1681663  98.5951542  60.0335455
   7.8864413  98.2896410  58.5781145  52.6915246  92.0345472  48.3222389
  53.6416513  91.9988667  48.2117176  52.4856549  92.9693436  48.3250427
  85.1380651  61.7755181  88.8866814  84.6173017  61.9174255  89.6771874
  85.2639168  62.6516545  88.5222943  90.9831238  11.3859951  56.2922049
  91.7757511  11.7911375  55.9403086  90.9635162  11.6559577  57.2103405
 114.2954063  23.1452966  54.6781731 115.1394463  23.4360766  54.3327904
 113.9028645  22.6458335  53.9621592  14.6894675 108.1571852  20.0101137
  15.4876977 108.4266230  19.5557332  14.1993028 107.6574503  19.3572450
  85.1840591  11.7699802  19.0175152  85.5436230  12.1681654  19.8102272
  84.2384624  11.7539608  19.1652644  56.7077923  24.6077371  45.1043224
  56.9375706  23.7897277  45.5451107  56.1080360  25.0451636  45.7086229
  56.7909318  86.0600125  48.3674574  55.8670312  86.3018500  48.4319544
  56.9141751  85.4007231  49.0503788 106.3759995   6.7376739  52.9764986
 107.2247124   7.1189433  53.2013369 106.5914059   5.9075117  52.5514555
  31.6454393 109.5893817  73.8697529  32.4717599 109.9167877  73.5144615
  31.7475539 108.6376612  73.8754940 112.7587336  17.6817213   1.2285380
 112.3733586  18.3736215   0.6909518 112.4396247  17.8599821   2.1131949
  84.1029739   6.9903284  68.8620901  83.3061790   6.8653476  69.3775845
  84.7529507   6.4300555  69.2861795  30.3951531 107.1898617  32.9399323
  30.3220302 107.0966392  33.8897729  29.5362264 107.5096070  32.6638198
  35.5359250  78.9930450  33.2828236  36.1568099  78.3397662  32.9603863
  36.0787898  79.7482525  33.5090804  91.4888859  22.5226092  53.6180496
  91.9391918  22.9634213  54.3385649  91.5308285  21.5930128  53.8423729
  36.7339420   1.0624274  50.4952621  36.1721659   0.2888303  50.5420303
  36.1914921   1.7270342  50.0706720  63.4102106   2.0728800  80.7727146
  63.5856962   1.2269358  80.3606319  63.1763697   2.6496485  80.0454712
  57.0804864 103.4407174  29.7438931  57.3416787 103.5715019  30.6554341
  57.7776033 103.8527667  29.2335200  92.4138355  30.9793186  56.3423014
  91.7326927  30.7972503  55.6949043  92.4181938  31.9330478  56.4236212
  66.8876076   5.6336415  67.9164314  66.9186974   6.5697122  67.7188492
  67.7788687   5.4168868  68.1901026  77.5754404   2.1434186  63.2496977
  76.9902945   2.0893203  64.0052843  78.2190132   2.8091273  63.4923410
 114.4408500 109.2753015  37.8710914 115.3621399 109.1592664  38.1034541
 114.3946039 110.1605098  37.5098443 102.1568966  11.2231314  55.9917498
 102.8677559  11.7573333  55.6374359 101.9025517  11.6684735  56.7999697
  98.7490940  39.1278577  53.8330793  97.8242397  39.1149092  53.5866833
  99.0269470  38.2141423  53.7686205  47.4897653  96.0202049  61.1869860
  48.4424573  96.0207378  61.2797880  47.3209840  96.6019570  60.4458284
  73.0860281  41.1401701  65.1556540  73.9057255  41.3682842  64.7171497
  73.3383179  40.9748554  66.0640860  60.0071603  72.0269643  27.3070931
  59.6852094  71.9869672  26.4065480  60.9239656  71.7587339  27.2458220
  88.1087589  22.9420829  44.1321421  87.7596760  22.8503346  43.2456017
  88.9070797  23.4587884  44.0229273 103.6199474   2.3706563  49.4235182
 103.9675903   3.2436368  49.6059465 102.8523827   2.2952288  49.9904346
  75.8039284  27.5531363  73.6495066  75.4611397  26.6604900  73.6058283
  76.6853046  27.4538922  74.0094519 102.5878334  18.5719287  36.0853076
 102.6972198  19.4905245  36.3311696 103.4763050  18.2648146  35.9049678
 112.6759815  37.5788236  73.0418873 113.0962563  38.4054875  73.2789993
 112.1452236  37.3522878  73.8055706  13.0870181 105.0746088   1.4726746
  12.4212104 105.7532324   1.5840209  13.7344295 105.2603667   2.1528131
 103.6511517  30.1063347  54.9502277 104.3489361  30.7290673  55.1540327
 104.1092110  29.3314910  54.6246052  30.8787423  89.1972338  21.5107179
  31.6967422  89.1243493  22.0024467  30.7941419  90.1321851  21.3237977
 108.4513569  20.3339648  41.6941881 107.8050995  19.8712587  42.2275591
 108.2983208  20.0170779  40.8040237  67.1056700  15.5861819  58.0927849
  66.2266493  15.2205729  57.9933500  67.0458603  16.4612746  57.7095509
  84.1100597   2.7930906  54.5962334  83.4144688   2.2861825  55.0150633
  84.9130535   2.4985306  55.0259638  70.7909203  10.3673899  53.6219358
  71.6567898  10.0543475  53.3601856  70.8879137  11.3177645  53.6820507
  73.1211329  14.9679017  44.8264456  72.4744463  14.5899427  44.2304850
  72.6753044  15.0028217  45.6727648  64.0280038 103.3210134  29.4503736
  64.4685346 102.5792616  29.0356827  63.2617074 102.9368495  29.8763204
  86.1959839   8.6979181  14.3491435  85.3240776   9.0921527  14.3246722
  86.6495609   9.1631633  15.0520265  47.3475820 108.2800218  36.5423918
  47.6930600 107.9513117  35.7124352  47.0866853 109.1813098  36.3530636
  44.5894605  93.8525497  68.0792952  45.1279336  94.5118307  68.5170507
  45.0602799  93.0302476  68.2148600  12.8020329  25.3592181   5.9559244
  13.5203308  25.2923203   5.3267878  12.6120610  26.2961531   6.0038096
  19.3085843  96.0318505  42.9740810  19.5660525  96.1379193  43.8898802
  19.7875291  95.2574872  42.6787758  34.0193730 108.7298036  63.3015871
  34.2320615 109.6506332  63.1497002  33.1224614 108.6351061  62.9809380
  77.3315525   7.1983165  49.1391850  76.7256832   7.1881568  48.3982038
  76.9372988   7.8083700  49.7625875  30.2717095  96.2772237  20.3946686
  30.2729827  96.1912297  21.3479972  30.4651862  97.2013604  20.2372861
  82.2989655  36.9285893  94.5729256  81.7518711  36.4267707  95.1771641
  81.9545555  36.7163706  93.7054157  11.5234513  29.6939802  53.9100170
  12.4113221  29.3422270  53.9747906  11.4495796  30.2956796  54.6507835
  64.6453381  12.8866065  40.2212858  64.1597509  12.1291852  39.8945546
  65.5560398  12.7058458  39.9885178  66.6452485  75.5529915  29.6907449
  67.4108773  75.8932482  30.1536298  66.9687730  74.7795140  29.2289042
  56.2692910 105.9378140  41.9819164  56.0768205 106.7692720  41.5484810
  55.4611856 105.4315986  41.8986225  93.1616497   2.4655460  67.4237728
  93.4083176   1.9650459  66.6460276  93.9399529   2.9819602  67.6330614
  10.3928071 102.1149587  59.9940825  10.6915599 101.5363919  59.2924881
  10.4394895 101.5769487  60.7843971  94.3970776   6.8595850  74.4802189
  94.3496990   7.6810664  74.9692535  94.7502613   7.1092188  73.6262989
  95.5472928 103.5860830  43.9420557  95.7778627 102.6588236  43.8849640
  95.7356530 103.8242780  44.8498058  23.3525795   1.9396743  30.3070784
  22.4788899   2.1351042  29.9684048  23.1945748   1.5516157  31.1677027
  45.0382024  91.8105375  41.4988661  44.4348508  92.2517346  40.9009123
  45.8402806  92.3312627  41.4571714  99.3424988  38.9857268  65.1470757
  99.9209690  38.3893681  64.6717310  99.8224831  39.8134089  65.1751089
  90.3118783 101.1396669  43.9991283  90.3521329 101.7821698  43.2907486
  89.5387536 100.6116330  43.7999105  82.9915047  17.4237084  36.7810750
  83.7160778  17.6304817  36.1907673  83.4157276  17.1292984  37.5870442
  21.8785888  98.2597064  43.4541082  22.6381665  98.6951577  43.0672503
  21.6374665  97.5875389  42.8167057  10.0969344 106.8021595  54.8902369
  10.2949124 105.9453364  55.2682495   9.6997291 106.6038298  54.0422249
  32.7795601  17.8359866  31.0263252  32.4936676  18.5379386  31.6109276
  32.6266575  17.0327055  31.5239120  53.8604432 107.0587503  45.7761431
  54.7305566 107.4465757  45.8695316  53.3884603 107.6641964  45.2043915
   3.2715172  23.4425139  52.9248190   3.4642071  22.9659772  52.1173429
   3.2990784  24.3650103  52.6709032  86.8309384  98.2871746  52.4288368
  87.5253087  98.1192552  53.0659294  86.5874272  99.2012226  52.5752974
  79.9305964   7.2613817  18.2429135  79.3828058   7.0816875  19.0070248
  79.3191481   7.2698057  17.5065100  34.5732957  75.7688486  27.7026296
  33.7395745  75.3451692  27.4985766  35.1548797  75.5097591  26.9878793
  81.2739277  35.3644419  53.0077028  80.3742313  35.2433062  53.3111715
  81.4643288  36.2857103  53.1844711  74.6724319  28.6905098  18.4188962
  74.2738390  29.5242000  18.1692696  75.5988550  28.7932420  18.2011318
  23.8671428 102.4761497  51.1065102  24.2561656 103.1434618  51.6718292
  23.2568866 102.9598885  50.5498981  61.3275337   5.6461543  72.6145697
  60.7880211   5.2456605  73.2963037  62.0929146   5.0751311  72.5485325
  14.1761077  75.7966052   0.7331995  14.5773185  75.4215871  -0.0507780
  14.0516151  75.0499616   1.3190798  69.3957853  16.7544091  74.2291641
  69.2706299  17.1660316  73.3740997  69.0968657  15.8532906  74.1072464
  57.6465779 106.8968453  32.9172516  57.5386983 107.3123549  32.0617151
  58.3674222 107.3753442  33.3267188  85.5256462  36.9086409  46.5766287
  84.6745110  36.8047643  46.1511707  85.5698395  36.1865187  47.2033787
  94.3420601   0.2883510  76.1475849  93.6585999  -0.3159183  76.4373732
  95.1107216   0.0460050  76.6639757   1.1619454 103.1022160  60.5792522
   1.4297944 102.1906560  60.4628611   1.3552457 103.2933330  61.4970446
  66.1404306 101.2302886  43.0389881  65.5549508 101.6754263  42.4263763
  67.0151120 101.5371429  42.8002405  65.5099678  16.5573990  89.2092514
  64.5646620  16.5446210  89.3591309  65.7426405  15.6395864  89.0688324
  60.2175408 103.9343815  39.2651534  60.6901914 103.9437925  40.0974607
  59.3035203 103.7906437  39.5103860  83.2062435  17.6854813  25.1560569
  83.7966347  16.9431257  25.2848268  82.9827499  17.9702723  26.0421610
  20.2557975 108.2710115  43.6978674  20.6309491 107.7542143  44.4109011
  19.3105393 108.2275694  43.8421869  28.0687076  97.1690833  87.9409122
  28.8523131  97.0091270  88.4668446  27.7513867  98.0221521  88.2372379
  27.2248822  84.8650776  60.6838036  26.9570190  85.5731927  60.0980949
  27.4266273  85.3020131  61.5112162  26.0630780 105.2951377  22.3469090
  26.5424567 105.4450356  21.5320730  26.1539107 104.3561392  22.5089669
  84.2583752  11.2774944  34.7638702  83.7300587  12.0536721  34.9500561
  84.7147465  11.4881611  33.9492702 104.8832512   9.9977469  58.7304020
 105.1531696   9.7431529  59.6127605 104.0270615   9.5859766  58.6136770
  54.8769075  97.9394053  72.1428347  54.4807130  98.6848783  71.6916895
  55.7924729  97.9495894  71.8637991  48.6651116  94.8613166  68.4228134
  49.1221791  95.0963556  69.2303228  47.7923280  95.2415728  68.5222435
  30.4377109  84.2468225  51.6238403  30.5455905  83.6462366  50.8863544
  30.9971124  83.8850342  52.3111629  23.7351495 105.2909051  75.4997396
  24.5227796 104.7832935  75.3042841  23.3330899 104.8341834  76.2386465
 111.5706539  25.2019620  49.3718386 112.3480701  25.5562711  48.9402008
 111.6221142  24.2581344  49.2209291  70.0129968  95.4489862  32.8439808
  69.6373731  96.1233281  32.2779417  69.5072442  94.6608662  32.6457143
  87.9431629   0.4613152  34.1886210  87.3012829   0.8998272  34.7471285
  87.5716209  -0.4069813  34.0328789 103.7166119  12.3022687  65.6242371
 103.4660435  11.4516711  65.2637768 103.3626747  12.9391313  65.0034571
  91.9625156  52.6465722  78.8177915  92.3998468  52.8393751  77.9884549
  91.4733188  53.4436851  79.0215726   3.9780754  35.2565527  59.1630030
   4.2828030  34.3571472  59.0428066   4.4835896  35.5832577  59.9072838
  36.5082294 104.2479919  44.8011446  36.0570317 104.2259686  45.6450462
  35.8670217 103.9067422  44.1777468  67.5548345 101.3805949  90.9382343
  68.1033212 100.6858658  90.5738926  67.2596341 101.0356145  91.7808914
  89.1887379  10.0170982  61.6607952  88.8187408   9.3561316  61.0756016
  88.4658432  10.2544010  62.2416019 114.5291519  25.1065993  61.6188335
 113.5899830  24.9471617  61.7124844 114.7042942  24.9662685  60.6883144
  47.7707541  57.2357919  79.1692753  48.3007013  56.9294674  78.4333702
  47.1143782  57.8069989  78.7703689  41.1969739 104.0285288  19.6411145
  40.4523593 104.0891634  20.2395320  41.9493562 103.8674878  20.2105165
 111.0468197  15.4605520  84.3319035 111.8491173  15.9252930  84.5697498
 111.3462830  14.7206593  83.8035870  17.4355454   4.0541837  51.8625927
  17.4551625   3.0999362  51.9351149  16.8887562   4.2249188  51.0957193
  54.6840268 110.0892863  59.9639273  55.0615865 110.4400148  59.1572857
  53.9953309 109.4944293  59.6671486 100.8098698  40.8061314  54.4837999
 100.0362778  40.2759600  54.2922163 101.3948250  40.2141428  54.9566650
  91.9981289  47.1573114  30.4845428  91.5009499  46.8480968  29.7272873
  91.5369797  46.7915821  31.2394023   1.4826626  32.7992511  66.5948296
   0.6465859  33.2574630  66.6799974   1.3449425  31.9644237  67.0424032
 102.4601269  52.6448727  39.2693233 103.0922127  53.3249807  39.5020223
 102.9493237  52.0462179  38.7049460  87.7826786  49.6859121  67.7199888
  88.7334061  49.7437191  67.6250887  87.5666714  48.7990952  67.4316597
  60.2954817   6.7735660  58.7103939  60.1111031   6.9330549  59.6360302
  61.2507343   6.7412549  58.6585617 102.4267864  49.2593527  64.4212723
 101.5478897  49.4919157  64.1217995 102.3388100  49.1620493  65.3694391
  28.3547253  16.7542088  37.6765609  29.2593808  16.9756174  37.8974938
  27.8502030  17.0094502  38.4489250 102.0018005  60.6028891  28.8510227
 102.9361820  60.7700825  28.9743519 101.8228340  60.8918858  27.9562140
  98.3380890   6.6253763  44.2273998  98.6631012   5.7257742  44.2636538
  97.8622818   6.7414582  45.0498104  85.7032299   7.9103059  23.7343287
  85.3549480   7.0981961  23.3663416  86.4644051   8.1126577  23.1903672
  63.4108639  34.9375725  44.3694878  62.8160286  34.4530177  44.9418592
  63.9839172  35.4154539  44.9690485  99.8512936  13.3461535  19.4400334
  99.5759010  12.9701841  18.6039484  99.6446991  14.2776477  19.3634140
 101.8779945   0.7079338  53.4312963 101.2417412   0.1064891  53.8181782
 102.7276611   0.3045012  53.6088800  69.1117364 108.5704822  31.0612226
  68.8847428 107.6590275  30.8769560  68.9431268 109.0302773  30.2387953
  57.4766064  12.2627103   6.9984943  57.6876783  12.1533573   6.0712820
  56.5206003  12.3035657   7.0233089  80.0339413   8.8355416  46.1989927
  79.9289942   9.6317893  46.7197657  79.2801428   8.8340998  45.6090593
  50.0350714  32.2742128  13.6171472  49.9729347  31.4507413  14.1011608
  50.8997345  32.2465825  13.2074785  91.1825275  26.8987632  34.3083096
  91.6426754  26.4736104  35.0320125  90.3326321  27.1424723  34.6750712
  93.4248161  29.1759920  78.8285637  93.3929729  28.4761190  79.4807911
  93.8657093  29.8991346  79.2745590 114.8054218   5.1286000  50.3045177
 115.6359959   4.6548778  50.3487825 115.0439739   6.0442936  50.4488420
   7.3283619  66.0889673  33.2119608   7.5906510  65.8841038  32.3144817
   6.5026326  65.6202126  33.3330894  94.3950653  30.3478146  70.3278017
  93.9762497  29.6662474  69.8021650  93.8132572  30.4621840  71.0792351
  83.1574059  10.9372354  61.1236238  83.2517338  11.1043525  60.1858568
  82.2226524  10.7702100  61.2443066  71.4301872  36.6189885  59.2725515
  72.0933199  37.2896624  59.1091967  71.2324476  36.6999269  60.2055979
 107.8104496  29.0333343  31.0550141 108.1003284  29.6908712  31.6873503
 107.2415733  29.5138454  30.4535770 104.8148727  25.6570601  12.6410496
 105.2397633  26.4663601  12.3569191 103.9651012  25.9388328  12.9797602
 115.1163864  19.8352706  22.2307086 114.9848557  20.1603961  23.1213427
 115.6027794  20.5323982  21.7906380  77.6903707 101.5355646  42.1338415
  77.7906018 100.5844908  42.0932961  78.0817205 101.7821329  42.9718637
 106.8183708  17.3944318  58.6926365 107.0282841  16.4622986  58.6352348
 106.0518742  17.5024450  58.1295586  33.8925136 105.6376468   3.9148287
  33.6125053 105.0191508   3.2400755  34.7990573 105.8451377   3.6882166
  33.0652886  80.2716481  32.4878025  32.3339873  79.7636806  32.1365190
  33.6414796  79.6186840  32.8851318  46.3183480 106.0834526  61.6388845
  45.4118520 106.3905766  61.6259813  46.7270642 106.5733092  62.3524857
 109.8898602  15.1694906  13.0224657 110.2192497  15.3119886  13.9098406
 109.0463448  15.6215799  13.0046117 115.9745502  34.2982745  67.3031330
 115.6967545  33.3959055  67.4605942 115.1688671  34.7597575  67.0704365
  59.0662861  25.7675433  42.7841282  58.8286781  26.5652657  43.2567930
  60.0231600  25.7530212  42.8046131  78.2131338  27.7573133  54.5761967
  77.2721529  27.9313993  54.5541954  78.5023403  28.1099892  55.4177475
  76.0843086  34.0398169  37.1271133  75.3679752  34.5274377  37.5337148
  76.2956285  34.5382977  36.3377523  38.2715589 109.5026038  27.0308518
  38.2256490 108.5817856  27.2881818  37.5027400 109.6349066  26.4761972
  59.7811967  94.6230208  35.1508832  60.2103978  94.3458818  35.9603381
  60.3178197  95.3484594  34.8314953  91.5464383 102.8318070  72.8510666
  92.3742562 102.6590328  72.4026394  91.6069776 102.3334890  73.6660814
  91.8307018  29.5843267  38.9961457  92.7723312  29.7501206  39.0416503
  91.6369057  29.5593572  38.0591011  66.0777646  96.7077254  28.1594706
  65.5057031  96.0190212  27.8208518  66.1671239  97.3238646  27.4324107
 111.0348892   6.1539859  70.0525188 111.2414932   6.3607353  70.9640026
 111.7956161   5.6644827  69.7395992  87.0791912  21.0052323  66.5799713
  87.9263878  20.9103751  67.0152855  86.4405727  20.9898210  67.2928238
  21.4023632  33.8289213  29.0713620  22.0782704  33.3404183  28.6015296
  20.6441826  33.2446551  29.0760684  52.9723531 109.2734827  52.5477457
  53.1284219 108.4727145  53.0483913  52.3879033 109.7917479  53.1009579
 104.3693542  37.5254560  48.1840181 104.9052334  37.4994826  48.9767313
 104.8956871  37.0739722  47.5242043  11.4278454  44.1690636  56.1312628
  11.8633408  44.4536066  55.3277636  10.7269043  43.5901308  55.8316565
 101.0111809  36.4494443  14.9646294 101.8222237  36.0682988  15.3010333
 100.9252071  36.0890293  14.0820539  13.3101601  26.3293409  28.1835485
  12.3779625  26.1132264  28.2067728  13.7291664  25.5447960  27.8297710
  83.1847763  31.4328694  53.6724949  83.4384441  30.5328321  53.8769817
  82.7233219  31.3675809  52.8364182  68.3054811 108.6802525  63.3601952
  67.8339654 109.0271273  64.1175508  68.6639482 107.8458894  63.6628056
 106.6907597   2.2747485  31.0138845 106.1655140   2.9582292  30.5977201
 106.3438892   1.4564101  30.6585932   9.0195507  11.4899909  32.2705245
   9.6600193  11.6651380  32.9599810   9.0033669  12.2925723  31.7491508
  77.4920416  13.0531394  47.1257687  76.6851950  13.2752383  46.6611195
  77.8475714  13.8968289  47.4050856  97.3398495  69.3296146  44.3021011
  97.4498749  69.9977255  44.9786758  97.8059292  68.5656834  44.6418285
  70.9133720   9.5032066  40.2518940  71.4462566   9.2019939  39.5160055
  70.0256968   9.2157263  40.0383043  75.5358076   7.2386616  47.2205448
  74.5930195   7.3722887  47.1229124  75.9295797   7.8379256  46.5864658
  63.8771230 105.3067993  38.2162023  64.5221788 106.0100471  38.1415319
  63.8697034 104.8958158  37.3517561  46.7699766  20.7847905  27.6164627
  46.6967440  20.7611418  28.5705662  46.6753578  19.8714030  27.3462725
  52.1036863   2.1091604  60.8016920  52.3531246   2.8020734  61.4131498
  51.4017057   2.4940334  60.2769756  91.1312485  25.0460863  23.8756514
  91.0859776  25.9971404  23.7772775  90.9453678  24.7056627  23.0005550
   0.5655426  33.9134097  23.8578939   1.0163159  33.0718541  23.7885237
   1.0215802  34.3719435  24.5635891  80.0463486  47.3665953  62.3397970
  80.7627869  46.7639494  62.5392294  80.3991890  48.2332277  62.5414944
  97.2726536  30.6436300  38.6485505  96.8638515  31.1622381  37.9556179
  97.5653172  29.8451805  38.2091641 111.5118885  22.0729804   6.8650436
 112.4135208  22.0074701   7.1796936 111.5799618  22.5572228   6.0421789
 113.1739712  40.9545755  61.7479992 112.5358677  40.8408451  62.4523544
 112.7165031  41.4820766  61.0932446  92.2541237   2.0680045  69.9354410
  92.1388340   2.9853514  70.1832581  92.2963524   2.0817026  68.9792681
  10.3984589  39.9124169  58.9190149  10.6323666  40.3501511  58.1005383
  10.6815762  39.0064263  58.7954950 102.6869202   1.4594348  57.1273327
 101.7558384   1.3400662  56.9400358 102.9719448   2.1303262  56.5069342
  89.7794437  30.3589869  31.7126346  89.7669029  31.3144660  31.6566324
  89.3461037  30.1620317  32.5430918 101.3332272  61.9679356  22.2844720
 101.6772842  61.1488247  22.6407313 100.7519722  62.3010349  22.9681540
   9.1883451 101.7392253  55.8772182   9.0750152 101.3601016  55.0056362
   8.4994870 101.3357507  56.4053392  92.2863388  35.6458664  31.7143416
  91.8177986  36.3513136  32.1604800  92.9831791  35.3991413  32.3224306
 107.6542759  42.9499817  22.9977727 107.6184654  42.8131580  22.0510793
 107.3471260  42.1237755  23.3709693  76.4417505  19.8385835  54.1071749
  77.3062325  20.1359892  53.8235378  76.3975525  18.9255023  53.8233423
 113.7623882   7.7815676  28.3401203 114.3561649   7.0400387  28.4575725
 113.7255192   8.1976336  29.2013764 102.0636845  26.2014341  57.3796320
 102.0772362  25.9681153  56.4514017 102.9368305  25.9712601  57.6972246
  60.9015846  46.1553717  37.5876546  61.7690039  45.8161974  37.3668051
  60.9299660  46.2867928  38.5353661  17.8132195  26.5204811  48.4137154
  17.3848767  25.7129788  48.6977816  18.5193199  26.6524005  49.0463686
  13.5274183  44.2989457  89.2280246  14.0539038  44.6143318  89.9625845
  12.9121935  43.6806739  89.6223267  51.9324923   6.7531019  85.7183170
  52.6703310   7.3177731  85.4881573  52.3082829   6.0938954  86.3018131
  68.3733845   5.9884989  40.6333971  69.3056583   6.1928642  40.7063866
  68.3260536   5.3302151  39.9401069 108.4102154  82.3063660  35.5390763
 109.2359257  82.5494480  35.9578371 107.7666187  82.9098129  35.9103537
 114.3885040   5.2582598  29.3150687 115.1542187   4.7007412  29.1769147
 113.6465263   4.6536744  29.3019199  42.0340425 105.6106876  71.3432837
  41.6116315 104.8474704  70.9492016  41.3404161 106.0335737  71.8495274
   9.2127556  12.8777850  49.6374750  10.0049347  12.4942720  49.2611647
   8.5415310  12.7461147  48.9678812 104.2687130  44.8241282  34.4993234
 103.4360218  44.4167519  34.2607832 104.5148277  44.4019079  35.3223610
  24.7759849 108.8513962  17.1812344  25.3845244 109.3447127  16.6311872
  24.6792203 108.0095943  16.7359972  43.1214791 109.9715735  21.3379812
  42.4074823 109.4251703  21.6664219  42.7846128 110.3405932  20.5215406
  92.9800034  26.5798640  55.2309561  92.3081589  25.9630442  54.9404573
  93.1689930  27.1102619  54.4568777  90.7172203   4.4595611  44.5430899
  90.4548836   3.5543281  44.3758726  91.5743828   4.3868673  44.9628925
  43.8882428 102.2968488  34.5343661  43.3982926 103.1154667  34.6121597
  43.2323533 101.6118943  34.6643162  97.4673653  41.4275360  60.9127235
  98.3439255  41.5886021  60.5635262  96.9937038  41.0154343  60.1901913
 102.8077316   1.3639489  24.9394393 103.0840969   1.7277886  25.7805562
 103.3694839   1.7954485  24.2956471  85.9621239  42.5970364  46.5076065
  86.4724064  42.3932314  47.2913837  85.3291321  41.8820810  46.4413071
  93.0113316  24.4808817  58.9293861  92.8090096  25.3090262  58.4941006
  92.7786160  24.6289682  59.8459816 113.1437969  12.6635134  72.9667091
 113.6820126  12.1607935  73.5781240 113.7602329  13.2558465  72.5361443
  72.4038297 106.0528775  56.2120390  73.3492356 105.9031152  56.2080288
  72.1039182 105.7130592  55.3689432  83.5057735   7.3666716  76.3691521
  83.1957054   6.6144598  75.8648968  84.1827011   7.0077944  76.9429111
 110.0316334  43.7956810  47.7610207 109.6432400  44.0753841  48.5899687
 109.7123528  44.4312239  47.1204138   5.3231472  57.4206352  24.0885615
   6.0995049  57.6002121  24.6188951   4.7490734  56.9182920  24.6667600
  49.7835904  89.6362697  13.8248336  50.6687814  89.5941745  13.4630287
  49.3052751  88.9438187  13.3688104 109.9908638   3.4236467  44.7940540
 109.2780495   2.7847955  44.7913504 109.9495125   3.8249764  45.6620693
  31.4527351  99.9085044  59.9061966  31.5307695 100.7235979  60.4019403
  31.1169606  99.2741786  60.5395317  86.4116383  21.1287355  17.3391318
  87.1667767  20.9998941  16.7652035  86.3969612  20.3491187  17.8943026
  92.8118801  14.9303770  57.6504040  92.1702671  14.4502306  58.1738710
  92.2847939  15.4590952  57.0513487  12.4517388  23.1038332  29.5534682
  12.6977486  23.7169170  30.2461743  13.1813568  22.4857426  29.5104313
 104.0775108  28.7076378  60.1957703 103.8846397  29.1727662  59.3817139
 103.2242775  28.4050345  60.5066490  82.9229927  41.8961573  74.2202759
  83.5321236  42.3938417  74.7657108  82.3989487  42.5630903  73.7766409
  93.4744358   3.9009970  26.4219666  93.8279533   3.8793609  27.3112297
  92.5454426   4.1001484  26.5383148  78.9477015  31.1622524  56.1618328
  79.1679096  31.0123682  55.2424431  79.4383717  31.9487071  56.4005041
  96.0424232  45.0007296  36.9311929  95.3080463  44.3870211  36.9143629
  95.9640408  45.4449320  37.7754521  72.0991230  26.3473344  17.3326194
  71.8083286  25.6886935  16.7018545  72.5555992  27.0010734  16.8030095
  11.0753292   9.3323582  33.8195777  11.6146893  10.1076019  33.6636305
  11.3727612   8.6984223  33.1669736  58.5155773  18.7833214  34.8409700
  59.3032885  18.4620321  35.2797341  58.1006861  17.9965854  34.4872093
 113.1092930  14.1914523  27.9671097 112.3591518  14.7276044  28.2241106
 113.7184143  14.2638505  28.7019348  88.2325268  28.6529303  79.7660351
  88.0899143  28.3511567  78.8689137  87.3582172  28.8758183  80.0856018
  87.6949215  25.1291990  30.0283861  86.9124603  25.6524539  29.8546100
  88.1105995  25.0282741  29.1720867  97.3844242  45.7560825  39.0969419
  97.6238728  46.6827917  39.0865302  98.0292892  45.3356791  38.5280418
  79.5815545 104.1694509  41.1173868  79.4899160 104.6694922  41.9284296
  78.6829644 103.9615678  40.8613539  21.7487759  42.1013212  62.7493095
  22.3439736  41.3673639  62.9019070  21.0194248  41.7205191  62.2601557
  56.5132314  87.7082454  39.2351627  56.3907128  87.6298987  38.2890749
  56.0481626  88.5108720  39.4712448  87.4671173  27.9121566  55.4233074
  87.3666286  28.7381887  54.9502230  87.2121525  27.2410178  54.7902250
  40.7919818 107.5152587  28.8307118  41.0282022 108.3225258  28.3738184
  39.8348456 107.5173255  28.8412857  84.5427799  49.7580814  93.3451939
  84.5308495  50.3985882  94.0564156  84.3265438  50.2650881  92.5626278
  82.4477386  28.3695197  61.4767170  83.2433796  28.8281202  61.7466640
  82.7482319  27.4960971  61.2255859  85.7392502  19.5098424  55.3060341
  84.7916698  19.4147873  55.4024696  85.9755898  18.8773453  54.6275663
  18.0153924 110.0296518  47.6946831  17.4626523 109.3061927  47.9901743
  18.8344651 109.6119890  47.4283886 111.4623642   7.6737994  33.7847281
 111.8115425   7.8156430  34.6646047 111.1939049   6.7550337  33.7788153
   6.9967121  69.7704411  48.5854101   7.2941536  68.8816690  48.3908892
   7.1698326  70.2620459  47.7825499  83.5078907  28.3573246  15.2984691
  84.0959835  28.8284898  15.8887172  84.0530586  28.1362152  14.5433927
   2.9926724  35.7458282  79.8504114   2.3541397  35.2287388  79.3593645
   2.6323170  36.6326046  79.8520708 116.4236736  11.7660666  38.7030768
 116.8617821  12.4315524  39.2335701 115.8038139  12.2585320  38.1650424
 109.2402077   1.3198119  41.3999510 109.9358082   0.6788604  41.2531662
 109.0462685   1.6664754  40.5290651  85.0581932  31.0876632  39.8589540
  85.8011436  31.1289001  40.4610825  85.2086830  30.2930355  39.3469453
  81.3295460  15.4581094  34.1176677  80.6908989  15.0371146  33.5422397
  80.8075237  16.0409653  34.6690345 111.8435383   6.6867977  60.4234314
 111.8381405   6.2142497  61.2558365 110.9251785   6.7085707  60.1544094
 108.8079834  40.1884937  57.4895477 107.9192638  40.5304241  57.3921394
 108.6985493  39.3728471  57.9784060  68.1099701  12.3885560  61.6831112
  68.0231714  11.8298078  60.9107780  68.1879425  13.2748258  61.3300085
  82.7590942  24.9714899  42.6537037  83.6963749  25.1438403  42.7433634
  82.3527336  25.4898381  43.3482695  94.3633938  13.6738813  42.8125429
  95.1718426  13.3445203  43.2051754  93.8770008  14.0503752  43.5459614
  66.6473055  16.6048956  30.3712416  67.5397110  16.2589645  30.3577828
  66.6979551  17.4178529  29.8684812  75.9120512   3.1555811  27.0137405
  76.4996195   3.0694130  26.2630272  75.0338125   3.1423530  26.6332674
  12.7919830  88.1191455  11.4073519  12.2562373  88.8568102  11.1156992
  12.1601546  87.4788175  11.7344718  75.7430440 101.4569645  47.6152658
  76.5882379 101.1171745  47.3212862  75.1622182 101.3369434  46.8639612
  88.0301571   3.7545997  36.3958406  87.7120209   4.3734884  35.7385755
  87.4334908   3.0089086  36.3313055  93.1826496   0.2800358  17.3323762
  92.7423096   1.1276967  17.3940384  94.1145706   0.4960799  17.2994435
  55.7631302  10.5356407  20.4673123  56.7038584  10.3634429  20.5074763
  55.6288004  10.9324074  19.6066368  35.3180122   4.5991078  30.3362513
  36.1217022   5.0753975  30.1277709  35.4484177   4.2901430  31.2327814
 107.6491547  27.1217227  54.2902756 108.4995651  26.6932869  54.3876934
 107.5806999  27.6946092  55.0540447  86.8503475  39.9223018  69.9536896
  86.8394947  40.5854511  70.6438684  87.7758789  39.7025728  69.8471880
 109.0196133  55.4404402  58.3614874 108.9651203  55.9713078  59.1561174
 109.2691040  54.5699263  58.6716461 109.9936581   8.6157089  28.8867354
 109.9969196   7.8804356  29.4995952 110.5670547   9.2669332  29.2908955
  78.1014824  62.6185894  56.2533188  77.8915071  63.2313585  56.9580603
  78.2091761  63.1714535  55.4793835   8.3144135  54.3698025  21.9984269
   9.2097706  54.3745613  21.6599798   7.7630276  54.4245434  21.2179112
  79.1243535  93.5093152  59.7966433  78.4162789  92.8693174  59.8692322
  79.8025018  93.1844388  60.3889322  12.6716084  14.9154103  21.4975643
  13.6094422  14.7238708  21.4929080  12.6109261  15.8225060  21.1980200
  89.5548344  50.3928423  33.2927704  89.8053455  51.1503935  32.7640033
  89.6412659  50.6931400  34.1975260  73.1793004 101.3951694  68.0213499
  73.0744821 101.4138614  67.0700884  72.5860196 100.7034199  68.3141422
  44.9596834  39.6217370  41.5942812  44.7124624  40.4449892  41.1731291
  45.8988047  39.5402241  41.4280367  96.7122173  38.9095330  38.1232858
  97.4581623  38.8684273  37.5248528  97.0912266  38.7585330  38.9891863
 104.7117901  17.2161222  43.4683514 105.5404472  17.6602399  43.2886028
 104.3607807  17.6659060  44.2369318   3.1572766   9.5403200  45.6656551
   3.4253735   8.7066561  45.2791882   3.1998963   9.3911624  46.6102028
  94.9219608   8.9606816  44.2914677  95.7604408   9.1110581  44.7280025
  95.1452923   8.4501362  43.5131979  29.0514356  90.6341623  31.3493824
  28.5914165  90.5866193  32.1874475  28.7540704  91.4561020  30.9592271
  14.7152371  12.6575387  12.2860897  14.9569744  11.7597592  12.0585179
  15.5163330  13.0370545  12.6472592  88.8288975  48.5638142  44.5683527
  89.3766308  49.3260145  44.3805647  89.4209385  47.9417229  44.9911070
   6.0560459   4.2698938  56.1485386   5.9701580   4.2935702  55.1954937
   6.4516587   5.1117522  56.3743591 106.6149521  21.7363858  67.5157356
 105.8335018  21.4561844  67.9922295 106.6392422  21.1723447  66.7427540
 102.8443527  20.8676171  51.6609573 102.5543499  20.0961995  52.1478271
 103.1142712  20.5254602  50.8087254  28.2947487  25.1335621  57.7214861
  28.4637112  25.5479527  56.8753386  29.0236038  24.5244217  57.8396463
 114.9473286   8.8398653  20.7388973 114.8297596   9.6063167  21.3001108
 114.7198105   8.0967176  21.2976408  63.1985551 109.8624943  61.6767406
  64.1538220 109.8870446  61.6211081  62.9043466 110.5018170  61.0279465
  55.3214151 110.2826515  27.0087719  55.9815579 109.7367812  27.4359322
  55.3577596 110.0256197  26.0874438  71.3398123  34.7688293  40.9103441
  71.2058163  35.6478477  40.5559397  72.2802973  34.7204876  41.0817528
  66.7847586   7.0898163  19.8367906  66.1002541   6.7368406  20.4052043
  66.7793655   8.0309427  20.0113869 109.8497772  11.7916787  18.5022473
 110.4344082  12.1462190  19.1721284 110.2809906  11.9999433  17.6734447
 102.7977276  32.5525951  19.8702705 103.4801960  32.0300579  20.2914786
 102.3778725  33.0233359  20.5902410 105.5446148  15.1260114  27.9799962
 105.4722977  14.3556643  28.5435247 106.4032364  15.0399768  27.5657511
 106.4507771  23.0075955   6.1628681 107.2821808  22.8313208   6.6032445
 105.9662724  23.5586381   6.7775530  81.2268925   7.0272791  42.7541924
  80.7973576   6.3244843  42.2665310  81.8176174   7.4328381  42.1195316
  38.9095908  87.8902422  41.2144089  39.7098380  88.4131562  41.2633657
  38.6924964  87.8713094  40.2823448  85.3819752   6.6385990  61.2926912
  85.4496384   7.0751762  60.4435396  84.9769497   7.2899848  61.8653059
  48.1952172 103.4906333  26.6490769  47.8205758 104.0072303  25.9356332
  49.1305619 103.4499513  26.4497972  84.8143864  26.8606997  18.4734404
  84.4307518  26.0952735  18.0454457  84.5073223  26.8080354  19.3785226
   5.0020165  52.5565672  68.1255484   4.5881695  51.6938877  68.1528187
   4.3188710  53.1593227  68.4192133  77.3320198  23.8136101  39.0319395
  78.0714607  23.3599639  38.6273813  76.9616747  24.3442988  38.3266425
  54.8618966 101.8358993  28.9135647  55.6405336 102.1236228  29.3901777
  55.2025300 101.2859886  28.2080173 114.5803165  50.8886051  17.9632568
 115.2692509  51.3062906  18.4801149 113.9425659  51.5850782  17.8069234
  11.2259907  21.2826180  56.7751408  11.4841027  21.9650173  57.3947716
  11.3210339  20.4658270  57.2650862  93.6276054  11.1950564  21.7815590
  92.9895878  10.5199194  21.5505648  93.6707020  11.7582965  21.0088134
  79.4080019  23.2781792  54.5343781  78.6550951  23.8682580  54.5001554
  80.0221348  23.7077880  55.1297808 115.0364208  30.7177114  62.0490599
 115.9658909  30.5018449  61.9734144 114.7255611  30.7582188  61.1446476
 100.9582043  60.2718925  11.7304230 100.3473949  59.9471903  12.3920214
 100.5442715  60.0546646  10.8951330  87.2042084  29.9761105   8.1966114
  87.4499416  29.2079234   7.6811159  86.7213440  29.6196961   8.9422953
  67.8646994  36.9732809  73.2580900  67.7420998  37.5655890  73.9999580
  68.5230160  36.3465667  73.5582161 108.9773560  58.7918520  35.9472108
 109.9040508  58.9726210  36.1046553 108.9027977  58.7355280  34.9945831
  61.2778854   9.2317843  25.9547305  60.8158922   9.8063946  25.3443050
  61.1156559   9.6171051  26.8158007  97.6288414  23.8377666  64.0154219
  98.1334114  24.1057253  64.7834301  97.1387291  23.0690408  64.3071079
  14.2902148  91.7206894  13.1388239  14.2107928  90.8228622  13.4610514
  13.8540614  91.7088495  12.2868495  95.4458237   4.2168891  68.3901691
  96.2199974   3.7516719  68.0732250  95.5689335   4.2688182  69.3379974
  14.4548744  31.9692898  41.7606735  13.5166401  32.1504474  41.7047358
  14.8311180  32.4186921  41.0038996  71.8219757  48.5684586  19.0028179
  71.5685225  48.5468435  18.0800354  71.9312334  49.4988489  19.1994607
  58.6646730 107.3497250  43.5057068  59.3035775 106.8535744  42.9939890
  57.8155690 107.0106866  43.2223034  71.4368057  12.8761005  30.6597757
  71.1967897  13.4733975  31.3681960  72.3627806  13.0565238  30.4977560
 116.3006210  35.0340724  15.3263664 115.4254723  35.2371907  15.6566501
 116.4029026  34.0949607  15.4807711 111.4322376  32.5735974  26.6137934
 111.7925549  32.8721285  25.7787561 110.7261086  33.1910753  26.8044090
  68.0178785  53.1169224  40.3751850  68.6284685  53.6773205  39.8962593
  67.8059244  53.6139774  41.1652708 102.9814881  86.8827902   3.4489302
 102.5003928  86.8769298   4.2764239 103.8831967  87.0860968   3.6975626
  91.5527916  52.4848032  69.6330595  90.9970093  52.0985603  68.9561796
  91.1734104  52.1798611  70.4572678  80.1121521  51.7761135  48.9054108
  80.1011658  52.4492311  48.2249546  80.8437443  51.2066650  48.6672115
 107.0899963  72.7043009  30.2781153 107.0523453  73.3954430  29.6169519
 106.3304996  72.1524906  30.0912905   7.8979725  34.9416685  70.0553608
   7.0232910  35.2481914  69.8161745   8.1779331  34.4107533  69.3097162
  93.7558842  16.1703253  26.8794203  93.6744308  15.6403553  26.0864949
  92.9409599  16.0141671  27.3566413  22.2068066  62.7335787  23.0182385
  22.0932907  63.4197378  22.3605704  22.9826874  63.0003691  23.5112619
  12.3728890  27.0641756  64.5113754  12.1481652  26.8142152  65.4076195
  12.2745175  26.2573147  64.0058756  20.5485768  14.0790987  17.8805947
  19.6734471  13.7024331  17.7884018  20.4042668  14.9140787  18.3258069
  14.8446411  62.0780373  38.2872915  14.3450302  62.7301025  37.7959299
  15.6106228  61.9016933  37.7410173  90.2602863  46.2760115  41.9333744
  90.8168507  47.0402098  41.7834806  89.5341110  46.3844299  41.3192463
 113.8552856  23.0796576  48.9615583 114.0959835  22.2594309  49.3922853
 113.0478001  23.3513427  49.3978882 116.3122654  27.0078039  31.9229722
 116.6429043  27.9059792  31.9093370 116.7429066  26.6054702  32.6772308
  22.6692719  26.1349368  28.3977580  23.5936779  25.9966087  28.6040521
  22.4834389  25.5079937  27.6987290 106.2253761  67.9303312  40.8557034
 106.2474346  67.7826643  39.9102187 105.3712463  67.5967741  41.1303520
  90.6257820  27.7970338  75.7266665  91.3745117  27.3450875  76.1157274
  90.9358311  28.6904263  75.5785131   0.7701630  19.7351372  32.8542161
   1.2750096  19.8490596  32.0489931  -0.1184993  19.5434105  32.5546479
   6.9974846  44.8349667  59.6310568   7.1044392  45.7584143  59.4029427
   6.6913933  44.4226074  58.8232803  13.2484097  65.4848433  57.1429396
  12.8640980  65.7728672  57.9709339  12.5317902  65.5478954  56.5114975
 101.5668297  33.6902094  87.9643440 101.5008640  33.2240248  88.7977409
 100.6673241  33.9473605  87.7618885 115.3696251  67.7512884  20.4475451
 114.9992943  67.9372740  19.5847046 116.3130951  67.8650236  20.3328276
  11.4065308  72.7599287  52.5110292  10.4944081  72.8654051  52.2405767
  11.7854637  73.6343813  52.4217606 100.9660721  66.4074087  41.7330027
 100.5572796  65.7024813  42.2352028 101.0902977  66.0378075  40.8588219
 103.7465858   5.1244646  50.0006151 102.9596901   5.2344656  49.4668293
 103.5044670   5.4725468  50.8587790 112.6524544  29.7965789  38.7649274
 112.3744392  30.1125216  39.6246481 112.2944260  28.9106846  38.7080407
  18.3288903  53.8826323  58.6383486  19.2354149  54.1162634  58.8379955
  18.1242508  53.1740284  59.2484617  32.5113434  13.5636294  29.3661571
  33.4057850  13.6991072  29.6789718  32.5333256  12.7058780  28.9418817
  76.0668945  13.1345272  35.9530759  76.3202715  12.5125074  36.6350770
  75.4010057  12.6729906  35.4433608 113.4961510  11.3545096  31.2660408
 112.5456810  11.3935006  31.1596322 113.6275578  10.8257747  32.0530629
  93.2591248  43.5433769  20.1374865  92.9278183  42.9682016  19.4478166
  92.5389385  44.1498232  20.3101063 104.2855835  34.0435076  78.2561255
 103.7142277  34.3685484  77.5603294 104.2541409  34.7234821  78.9290905
  86.2388706  28.7635350  76.0247993  86.8408489  28.0938506  75.7001925
  85.3861904  28.5110521  75.6706572  89.3724728  66.0354090  72.1315956
  88.9348984  65.2409744  71.8255997  89.3363953  66.6318798  71.3838339
  98.2146549  40.9744501  56.6948414  97.5135899  40.8925009  57.3413944
  97.7837372  40.8224678  55.8537436   0.4074139  54.3707800  40.6068039
   1.3301892  54.5104265  40.3941393   0.2758641  54.8469400  41.4266777
 101.0745525  75.7537174  60.5161428 100.8286572  74.9208546  60.9187746
 101.0449409  76.3851929  61.2348890   8.1331677  24.3066573  25.5841613
   9.0864891  24.3548965  25.5128789   7.8610272  23.8007832  24.8184824
  96.5223789  39.1880941  69.8937082  95.7891083  39.0650177  69.2908812
  96.1109447  39.4070148  70.7297850  80.4402828  36.7893362  58.0376863
  80.3431892  35.9221411  58.4311056  81.2973881  37.0932603  58.3364153
  36.5886540  53.9717770   4.4209930  36.1908192  54.2277431   3.5888609
  36.1317295  54.4983006   5.0769103  63.0349398  30.8398294  51.1216640
  63.7581968  31.2283850  51.6137552  62.7981901  31.5067434  50.4771423
  99.8284054   0.9465676  11.3956726  99.4635582   1.7495793  11.0237992
  99.1207027   0.3061129  11.3235307   0.1497216  60.7955217  46.3330460
  -0.1349312  60.9254026  47.2376633   0.9024948  61.3781977  46.2328243
  14.9403710  53.5181427  85.5209732  15.1821846  52.7366590  85.0239372
  14.1235680  53.8142681  85.1192474 115.0881100  20.0410461  84.0508938
 114.7364712  19.6484625  84.8499298 114.9079609  19.3954766  83.3675098
  90.9968090  41.5558815   5.2184153  91.1175156  42.4685669   4.9563745
  90.2347851  41.2621260   4.7191456  15.6828541   9.1785187  35.4092431
  15.5201096   8.2444131  35.2781081  14.8103089   9.5681024  35.4652333
  11.3425869  54.0332985  45.2743626  11.2730355  54.2858791  46.1950111
  10.9835095  54.7790766  44.7936153 101.4817524  53.8061905  64.8432398
 101.1960316  54.6236563  65.2510929 102.1396637  54.0754890  64.2022514
  70.4556638 102.2810148  65.4443693  71.1536199 101.6285484  65.3862572
  70.3995305 102.4892794  66.3769531 104.9618340  41.3497782  15.3034770
 105.4044247  40.6487942  15.7819855 105.3107071  41.2900162  14.4141257
  91.4650822  30.1726556   7.4569023  92.2377491  29.7149992   7.1255940
  91.8031502  31.0047436   7.7879137  91.4123440  30.1219797  17.5172913
  91.5756416  29.9789715  16.5850270  92.2807598  30.2660918  17.8932095
 109.8392487   6.8471175  63.0370617 109.0042496   7.1247274  63.4138107
 109.9569130   5.9502625  63.3501720  70.1471025  98.0858444  38.4908819
  70.1514417  97.6026701  39.3171716  70.8035070  98.7720465  38.6112285
   1.8236775  29.8745656  47.1791792   1.4724488  29.2261529  47.7894545
   1.0927147  30.4706860  47.0162010  99.3853855  62.3802519  24.2350554
  98.5409355  62.0533228  23.9248085  99.7691917  61.6416359  24.7076845
   2.1118969  46.8745804  46.7697811   2.8436226  46.6185284  46.2083197
   1.9230789  46.0926676  47.2886181  53.3642274 109.3595139  70.8113003
  53.5674840 109.3755565  71.7465353  53.3262998 110.2819707  70.5585814
  14.2038578  27.5700212  14.2640615  13.9830536  27.3951459  13.3492410
  13.4130902  27.9665136  14.6297383   3.5451836  41.0466528  54.6754646
   3.8469261  41.5073967  55.4583454   4.1602654  41.3096094  53.9908028
   0.2703518  16.1824489  13.5289049  -0.5978637  15.9859991  13.1769919
   0.5841297  15.3461957  13.8730812  88.7031555   8.8496077  25.1887655
  88.2681751   9.6623975  24.9310923  89.5348930   9.1330177  25.5684137
 115.4226398  44.5573378  24.6715689 115.8479404  44.4235659  25.5185962
 116.1117744  44.3905115  24.0285349  98.2081604  50.3662491  42.1885872
  97.7019596  50.6136036  41.4147615  98.7490940  51.1333370  42.3762035
  32.8753037  27.0689368  49.6447277  33.7948174  27.2219563  49.8622274
  32.8501171  27.0819950  48.6879492 108.3699894  26.5089178  42.8968191
 108.3139896  25.6466269  42.4850559 107.4604797  26.7973018  42.9733706
   0.6876797  32.5264430  52.6956224   0.6558270  31.8305206  52.0391893
   0.0117535  32.2882819  53.3301592 115.0783920  62.2432137  30.2747178
 114.3178654  62.0473671  30.8219647 114.7064877  62.5015926  29.4314122
 109.4808483   3.0378932  31.4903092 108.6846256   2.8088650  31.0109186
 109.1912174   3.6711758  32.1470428 110.3800678  30.7978606  20.4886651
 110.1098347  29.8910308  20.3442287 110.7096291  31.0879445  19.6380913
 100.0536442  15.8285701  31.4728880  99.4226646  15.1109183  31.4173722
 100.3623199  15.8065629  32.3786831  95.4494190  54.8031616  27.6452327
  95.5837536  55.7013273  27.9476976  95.7947254  54.2581463  28.3523083
   2.1587223  25.5004311  14.6078897   1.2463230  25.2186751  14.5417714
   2.3612446  25.4392338  15.5414164 106.7041206  51.0750437  46.9718695
 106.3289547  51.3270092  46.1280680 106.3184547  50.2193069  47.1595097
   0.3548092  26.6554332  11.4872539  -0.5492740  26.9026971  11.6814435
   0.3611988  25.7004690  11.5523481  85.7292652  37.4858189  66.2550402
  86.6027927  37.8703690  66.1821985  85.3063679  37.9828978  66.9552565
   7.9399056  13.7309659  37.2531796   8.0774159  14.3860161  37.9374552
   8.7056298  13.1595457  37.3112774  83.1952363 105.6193732  70.2566624
  83.3844167 104.9556821  69.5933676  83.7423211 105.3747936  71.0030651
  57.4928552 105.0674372  86.1754131  57.6619226 105.7123735  85.4886055
  57.5987321 105.5544638  86.9926167  24.1752667  42.6462030  71.4094257
  23.8196320  41.7577600  71.3887739  23.9100975  43.0298281  70.5735111
  95.4544640  24.3877745  30.8249378  94.8745441  23.6302495  30.7469893
  95.9897137  24.2012906  31.5962815  46.5664351  69.9680639  90.7926099
  46.7261183  69.3750776  90.0583764  45.6385958  70.1924384  90.7218518
  82.0208168   8.1083137  48.0272150  81.4348221   8.4302086  47.3422146
  82.8781796   8.4660351  47.7965689 102.7239513  24.9955726  21.3596320
 102.0077324  24.5098209  21.7686749 102.7167416  25.8467817  21.7973804
  21.5985913  29.5311475  40.7744408  20.9648842  29.0126467  41.2702322
  21.2103409  29.6150804  39.9035525  82.7202702  58.5921383  74.7536373
  83.2637119  58.0882978  74.1477966  82.4458504  57.9564476  75.4145622
  84.2199117 108.9576717  58.8611650  84.9848443 109.4415739  58.5497904
  84.0264588 109.3403681  59.7169399  20.7696766  47.2064495  10.7561827
  20.5215210  48.1135893  10.9343421  21.6823143  47.1478605  11.0388565
  99.2420274 108.8325053  43.3854198  98.4542256 108.6166090  43.8844109
  99.0302163 109.6573835  42.9484510 102.2734642  51.7644262  45.3955841
 101.5591526  51.3316250  45.8632088 102.5017452  52.5129461  45.9468031
   0.2101368   6.9579118  59.9349213   1.1132473   6.8066102  60.2137280
  -0.3228050   6.5523976  60.6188583  83.7100601  55.5161715  57.8820753
  84.4534588  55.9442472  58.3067417  83.6212254  54.6804190  58.3401775
  91.3598347  42.7527523  57.1411991  90.8567810  43.2147551  57.8118134
  91.3905048  43.3613777  56.4030457   3.5496563  61.4073944  11.1305010
   3.3619541  60.7857990  11.8337941   3.1699890  61.0063124  10.3486979
  84.2049217  34.6250057  51.7423916  83.5717678  33.9621210  52.0179558
  84.7484589  34.1810942  51.0914373  88.6999512  60.6179237  71.7630911
  88.2300282  61.2191200  72.3409891  88.9732933  59.9005985  72.3348951
  88.7824440  23.7885785  65.9806490  88.3030796  23.9840937  65.1755333
  89.4956303  23.2144785  65.7013559 108.0892944  53.6563396  83.6394310
 108.3965206  54.5563889  83.7478542 108.1174278  53.5058403  82.6945591
 109.7783184   1.7635494  28.5164976 109.9885845   2.6961052  28.4679532
 110.5814648   1.3533093  28.8372493 102.9604626  60.8491373  75.6059504
 102.9528522  59.8920727  75.5917549 102.1258545  61.0893536  76.0083866
  82.1071529  15.0520158  49.5421934  82.9807663  14.6753430  49.4365883
  81.5709400  14.5996177  48.8910055  99.6968651  19.4091642  50.1309538
  99.2555809  19.6430075  50.9475422  99.9805355  18.5044837  50.2625608
  93.9735126  83.1912422  34.8429036  94.9049187  83.1075001  34.6387053
  93.7792683  82.4311543  35.3913379  90.9951591  65.8964252  13.7267482
  90.7459641  64.9735975  13.7769365  91.3941860  66.0833216  14.5765042
  93.9551735  61.5044069  40.2469110  93.6027145  61.4492989  39.3586707
  93.5868359  60.7449293  40.6982946  12.2608895  16.6443706  62.6622200
  11.7906136  17.4236202  62.3658323  12.1067566  15.9958625  61.9752598
 106.6184425  50.6822300  44.1568518 105.7125759  50.3839588  44.2385006
 107.1254730  49.8788738  44.0395021 116.2598324  85.0400734  34.1638803
 116.7074108  84.6912193  33.3930349 115.6181240  85.6558800  33.8100076
 113.1725597  22.0609713  46.2460613 113.2817078  22.2827888  47.1707821
 114.0658760  21.9690299  45.9147501  88.7800980  42.0147038  67.9428768
  88.5833359  42.5854254  68.6857033  88.9430523  41.1573601  68.3361149
   3.2641262  54.1084242  18.0575812   3.4353775  54.1534615  18.9982593
   2.7952904  54.9193096  17.8603923  89.3941212  30.4266644   5.1252681
  89.4265556  31.1508250   5.7503843  89.7537613  29.6802258   5.6045634
   8.3193535   9.2466646  62.5340557   8.8961262   8.4851927  62.4729824
   7.4593109   8.9172292  62.2732306 102.5515270  31.0657310  46.7575884
 102.5838947  31.9811130  47.0355511 102.5037098  30.5689430  47.5743771
   2.3977131  34.8849797  18.1779313   3.1616825  35.1866913  17.6864517
   2.6102871  35.0752521  19.0916288  22.7478833  51.8589163  27.4978876
  23.2612557  52.6479435  27.6714420  22.0837445  52.1390104  26.8680429
  16.6650624  30.9768987  60.3168440  17.5549454  30.7102871  60.5476141
  16.1048168  30.3089356  60.7120466  57.4029255  56.7439365  23.0618978
  56.4568377  56.7545271  23.2069254  57.7796268  56.7081833  23.9411283
  86.9487286  36.9373512  78.7197638  86.0484791  36.6717267  78.5321093
  86.8601704  37.6695204  79.3299389  93.8362122  32.0678115  49.3393326
  93.3721161  32.1820927  48.5100031  93.2450676  32.4341106  49.9970579
  24.1626686  72.7988243  39.1311264  24.2269368  73.2433462  38.2858443
  23.6917538  73.4159899  39.6911073 111.9894886  10.1637638  88.3621311
 111.4346504  10.4325986  89.0943241 112.7843666  10.6882346  88.4587860
  75.2772981  96.9250726  80.7231236  76.1651116  96.7922496  80.3909016
  74.7434789  97.0468449  79.9379826  90.3188705  54.2021513  40.5901003
  90.5132580  54.9109125  39.9768233  89.3630600  54.1524506  40.6035376
 101.9993496  47.0373917  22.5564075 101.2897778  47.1439457  21.9228601
 102.4969959  46.2857580  22.2344947 113.5651875  24.5379281  27.1023130
 113.2756329  24.0094423  27.8460169 113.8449001  25.3664112  27.4916816
  89.3358421  53.2324314  52.5568438  89.0333271  53.2273579  53.4649706
  89.6789551  54.1160393  52.4236250  10.7405991  27.1950984  25.6173515
  11.2276692  27.9153967  25.2171445   9.9802632  27.6146483  26.0199571
  97.4494076  16.6440427  45.3810453  97.4896145  16.2759471  44.4983673
  97.6964951  17.5620151  45.2692223 115.1367664   3.8758269  41.1783314
 115.5433273   4.1234386  42.0087719 115.1747894   4.6708393  40.6465960
 103.8464069  27.3582244  39.0153003 103.0590248  27.7428341  38.6301565
 104.0944576  26.6614699  38.4076524 110.9540844  60.8008766  57.7022457
 111.0559082  60.2991676  58.5110378 110.4965496  61.5976572  57.9706430
   0.9337086  58.6016941  54.2096424   1.1318440  59.3040276  53.5901976
  -0.0074726  58.6787415  54.3660593   2.8992600   8.8830274  40.6591654
   2.7997250   7.9834402  40.3476095   2.1558232   9.0164942  41.2471533
 111.0961533  24.0861583  56.3129902 111.5276527  24.5472908  55.5936861
 111.6379452  23.3108044  56.4596701 110.0798130  49.1701937  33.2728291
 109.9617958  48.6717033  32.4642444 110.7506371  49.8185682  33.0587339
 112.6262283  54.1409445  35.8612871 112.8149986  54.1687346  36.7992783
 111.8256950  54.6563673  35.7627058   0.4302544  14.0109777  47.4408245
  -0.4869037  14.1149294  47.1873713   0.5861229  13.0676913  47.3944664
   1.2513775  40.2526665  64.1921377   0.6214470  39.5751047  63.9465094
   1.3709111  40.7688808  63.3949804  40.1710254  91.7349230  62.6381922
  39.8262864  92.5463020  63.0110884  40.5133468  91.9913637  61.7818737
  13.0816025  45.7612419  80.3992653  13.7518830  45.1080132  80.1986408
  12.9317231  46.2134075  79.5690250  84.5502472  21.1150980  40.2174664
  84.0360928  21.7876005  40.6642389  84.1068840  20.2938819  40.4302025
  92.0649338  20.9881139  44.7910738  92.4520779  20.6624699  43.9784813
  91.1943436  20.5911255  44.8175240  14.7859425  30.4315424  69.6183681
  14.4549221  30.1063561  68.7811661  15.7246155  30.2458405  69.5931959
  93.3245659  42.0291471  80.4014301  93.8442612  41.5778780  79.7362232
  93.9725685  42.4063253  80.9964561   8.1444878  40.9598637  21.5602374
   7.4010796  41.5599871  21.6187024   8.8951153  41.4796925  21.8475938
  93.1631470  53.3134031  43.5904646  93.6144161  53.7486601  42.8671789
  93.7654877  53.3915424  44.3302679  18.6326165  47.5402021  18.0473793
  18.3469338  46.6746378  18.3396327  18.2582325  47.6328468  17.1713197
 101.0020161  26.1472225   5.1842082 100.8124924  25.5325723   4.4753250
 100.4226589  26.8907833   5.0177991  93.3817959  41.5194130  70.3295374
  92.5988388  41.6436291  70.8659935  94.0555000  42.0421171  70.7644176
  54.6224737  32.8636408  40.8312225  54.6185112  31.9121051  40.7273102
  54.1838026  33.0149794  41.6684151 114.2735100  26.5870833  57.7970934
 113.5386372  26.9830441  57.3286867 113.8821030  25.8675265  58.2923412
  71.1470461   4.4786638  48.8018227  71.3493586   5.3087628  49.2333746
  71.3026381   3.8151342  49.4739437  94.6903706  20.7622504  59.6759367
  95.5032158  20.4664135  60.0858021  94.1734600  19.9642003  59.5656919
   1.1949009  39.9665403  49.9078083   0.7309956  40.5928087  49.3521023
   1.8061394  39.5280266  49.3159199  38.2139618   0.4772853   7.9685549
  37.8367788   1.3568305   7.9874854  37.7568419   0.0360059   7.2526316
 117.0179939  22.8220606  34.4589853 117.3433590  22.2375059  35.1435757
 116.2362480  22.3844409  34.1219664  78.5548592  19.8626626  65.6811857
  78.3438063  20.7521868  65.9647942  78.7891388  19.4033825  66.4876652
 104.6661949  39.4536686  94.8386478 103.9693928  39.8683929  94.3300247
 104.2252541  39.1163039  95.6183815  25.1552529  61.1586905  66.8892717
  24.7439236  61.5610218  66.1243153  25.5155415  61.8954992  67.3827696
   7.9953045  63.3431625  18.2156479   7.1102280  63.6386442  18.4291315
   8.1832165  63.7434816  17.3667300   7.3683876  47.7191257  55.5625677
   8.1693596  47.4341297  55.1227331   7.2263188  48.6115217  55.2468538
 113.9465046  20.7753921  29.4324517 113.9858818  20.2995420  28.6028457
 114.0607929  21.6936421  29.1875291 105.8719254  48.8643742  84.5279217
 106.0169125  47.9559135  84.7923279 106.1957550  48.9065409  83.6281586
 101.7648411  40.8452511  25.3966475 101.1163330  40.1462078  25.3129792
 102.2031307  40.6670189  26.2287307  91.8711281  76.5610695  28.4944820
  91.6048908  77.3152113  29.0204334  91.5070343  76.7340231  27.6262927
  71.1293697  19.7690606  53.6136770  71.0613871  20.2390790  52.7825975
  72.0064068  19.9773800  53.9356089  19.5999569  81.6857147  38.4566784
  20.3553051  81.9953251  38.9565015  18.9078564  82.3172188  38.6527300
 111.9632131 105.4247772  45.7979870 111.5457612 106.2692707  45.9676838
 112.2172338 105.4641449  44.8759460  16.3523621  53.9444828  14.4808912
  17.3012966  54.0310335  14.3899965  16.0834164  53.4388351  13.7139308
 109.5226383  43.8681746  84.7387695 109.0131474  43.3950901  84.0808582
 109.2843342  44.7864580  84.6114731  71.1938715  30.8661509  56.3963223
  71.0469341  31.4630556  57.1300411  71.1677742  29.9934244  56.7886257
 112.4359417  58.4409857  45.8644962 112.3167133  58.9736891  46.6507816
 113.3852768  58.3782196  45.7594013  20.2312798  33.7833405  52.0086956
  19.7707981  32.9512477  52.1173573  21.1098046  33.6173248  52.3505545
  44.0139813   8.7806576  52.6467419  44.6605725   9.1056132  52.0201969
  43.9813465   9.4527274  53.3275414   9.1314453  31.0540032  54.3589544
   8.1933159  30.8639479  54.3534040   9.5361180  30.2738667  53.9796686
 110.8456993  47.6060963  57.4452114 111.6927147  47.8255463  57.0570898
 110.5287552  48.4318638  57.8111076  95.9295750  30.9261012  32.7014160
  96.7178059  31.1583209  33.1923270  95.2648258  30.7748270  33.3733225
   6.9862217  37.3110390  67.6713276   7.8401608  36.8933320  67.7833462
   6.4300389  36.6242504  67.3036194 105.1298809  39.2248893  30.3030825
 105.2481651  40.0396156  29.8147559 105.9199810  39.1494870  30.8381391
  93.6966133   8.1523770  35.4832172  93.8856792   8.6057258  34.6616578
  94.3427944   8.4956092  36.1003757 111.0840797  53.5309744  70.8332062
 111.6775417  53.4659719  71.5814114 111.1975384  52.7038813  70.3649426
   9.2764038  32.4176407  28.4832025   9.3860573  31.9420314  29.3066144
   9.6818394  31.8533492  27.8248477 107.2374058  37.5801921  20.5935526
 107.0882034  37.0512700  21.3772678 107.7412033  38.3323288  20.9045434
 109.1193676   2.5348526  37.6774764 108.9680576   3.3561635  37.2097325
 109.9738026   2.2359243  37.3663187 108.7415409  26.0973859  16.2462139
 108.5241318  26.9448853  16.6344297 108.4770966  26.1787868  15.3298736
 116.3210297  27.3084068  27.5729084 116.0825443  27.1550131  26.6586733
 116.1056137  28.2284856  27.7254963  97.5971699  15.4331994  53.5379934
  97.8730488  14.9703348  54.3291187  98.3554745  15.3854263  52.9558134
  86.6926575  34.1084671   9.6442592  86.8554688  35.0379777   9.4838464
  85.7623863  33.9915061   9.4515389  93.2451820  60.6805372  37.3294616
  94.0131950  60.1130533  37.3954582  93.5966492  61.5286970  37.0586610
   1.8176598  15.4445457  29.2643714   1.9294590  15.4368889  28.3137512
   1.5824074  14.5433521  29.4851303   3.9909882  60.8147049  79.2783213
   4.8491329  61.1783266  79.0601540   3.3757538  61.5235710  79.0906429
  66.0668421  17.4135494  33.4315705  66.5377760  18.0146456  32.8543901
  66.7275381  16.7772925  33.7052321 100.4352570  21.5661144  46.6299009
  99.5110130  21.3188815  46.6596127 100.6163692  21.9209766  47.5002480
  31.3673157  49.9195480  51.8042946  32.1848625  50.3447676  51.5453672
  30.8134312  50.6352186  52.1161556  94.4103909   6.5503418  24.6976161
  94.0029526   7.0757103  24.0089846  93.6911964   6.0350245  25.0629115
  18.5536618  45.0931454   5.9315747  18.3442540  45.6675100   5.1950377
  18.0154175  44.3146086   5.7887620   4.4734520  56.6811275  12.3105931
   4.9192471  56.8775320  11.4866257   5.0220627  57.0862961  12.9822302
  58.9367723  33.5300708  47.4129820  58.5078192  34.3434310  47.6788330
  59.7788906  33.5436535  47.8678322  82.3816395  67.9472351  76.0453892
  82.9898071  68.1227207  76.7634201  82.9209423  68.0002213  75.2563572
  19.1237969  23.0595303  35.3151202  19.4701142  23.6378717  34.6355486
  18.2187027  22.8946042  35.0508690   5.8000321  28.7646866  49.6867418
   6.5895695  29.2403865  49.9447584   5.3302903  28.6171675  50.5076027
  15.9057564  47.9686308  23.6799455  15.2346081  48.3218861  24.2639017
  16.0852474  48.6789513  23.0639434  63.1166935  65.2720499  45.7924128
  63.5941219  65.1236534  44.9761581  62.7814341  64.4086838  46.0341501
  86.6550541  57.2555828  54.7913313  85.7947063  57.6620865  54.8951912
  86.8891048  57.4203300  53.8779211 115.2949333  52.6931286  35.6664777
 114.4097042  53.0522251  35.7268095 115.4394531  52.5685501  34.7284865
  92.6317310  53.0834818  38.5658884  91.8394089  52.9766083  38.0395436
  92.4421310  52.6191235  39.3811536 115.4987431  29.3185282  44.1035938
 114.6622562  28.9830446  43.7811565 115.2827930  29.7416711  44.9345875
 103.5261822  66.8960047  86.9032669 104.4267654  67.1293974  86.6780758
 103.3587074  67.3544407  87.7266884  14.8890061  82.9032803  13.0698216
  14.3181080  82.9097557  13.8381076  14.4941468  83.5386562  12.4726510
  90.0527287  99.1189384  80.0507164  89.1989708  99.3970299  79.7190571
  90.0659752  98.1716919  79.9136305 113.3780670  40.6794453  53.6837816
 113.7761116  39.9333167  54.1322041 113.7746048  40.6746721  52.8125906
   8.6510128  51.4181042  46.8308353   8.7962860  51.9544601  46.0514402
   9.2672390  51.7628479  47.4770880  82.4454308  55.0072813  72.0281744
  83.1209087  55.4892540  72.5053167  82.0390034  54.4468260  72.6891851
  97.5418282  70.9309769  53.5177279  97.5848675  70.8051395  54.4656420
  98.4474850  70.8373976  53.2223320   0.2552552  75.6514645  33.3281398
   0.2577061  75.8876085  32.4005294   0.9933705  76.1341906  33.7001371
  68.8037759  19.8390855  77.2198303  69.3225080  19.0360154  77.1726878
  69.2048436  20.4215039  76.5747197  96.0881805  58.5450840  46.1019325
  96.7431641  58.3278561  45.4385757  96.3875961  59.3759251  46.4710999
 106.5237713  64.4073343  47.7696705 105.7411671  64.6227789  47.2623825
 106.9490623  63.7106895  47.2696209  19.5033402  27.1459913  67.0682812
  18.9462799  27.9096532  66.9174862  20.2932972  27.5022888  67.4747944
  17.9507012  67.6386595  68.4918928  17.4769348  68.3512020  68.0628729
  18.5783905  68.0791807  69.0647602  93.4979630  65.9172058  53.3635759
  93.7581062  66.2577772  52.5076771  94.1948795  65.3049850  53.5996485
   2.0889515  75.8693171  63.6419916   1.4689202  76.5025282  63.2802677
   2.5103897  75.4817295  62.8749228 101.5127945  75.7504892  55.2470398
 101.0007763  76.5029430  55.5434847 100.8786774  75.1909447  54.7986698
  94.8229408  29.1267729  56.1581898  94.1828918  29.8219991  56.3106203
  94.2939949  28.3470821  55.9892750 100.8042717  28.2503963  54.5745230
 101.5278244  28.8330698  54.3438816 100.1905537  28.8082123  55.0524616
  75.8925390  53.5747480  38.0751300  76.6080904  53.9991713  38.5485029
  75.2215815  53.4233236  38.7408042  20.1138920  60.9633255  23.7374473
  19.4723172  61.3284636  24.3467855  20.8149380  61.6144466  23.7091684
 104.4050694  47.3494244  78.7011623 104.1603565  47.3255205  79.6262455
 104.3476677  46.4379311  78.4145975  18.0810589  57.9336214  32.6182985
  18.9383072  58.2790518  32.3692393  17.9661125  57.1586657  32.0683336
   8.0219883  96.1726475  61.8449831   8.4606880  96.3836098  62.6691628
   7.1085781  96.4194965  61.9898272   9.8521656  87.2281265  48.4348965
  10.5216927  86.6822243  48.0226326   9.1079373  86.6396618  48.5615778
  20.4971356  89.0577507  12.0848680  20.3266949  89.9664211  11.8368793
  19.6580262  88.6142063  11.9608104   8.8080830  24.2220449  52.2420263
   7.9543156  24.3041730  51.8170881   8.6232609  24.3340254  53.1745148
   0.7284874  37.7225661  36.2420607   0.7641167  36.7876935  36.4444852
   1.1684269  38.1443787  36.9801402 116.7823696  70.8731222  47.8436565
 116.0280323  71.2661409  47.4046373 116.5660477  69.9426794  47.9046059
 116.8161583  66.4747524  53.1952715 116.2694454  67.2332001  53.4004450
 117.0277405  66.5760422  52.2672606  59.9561071  66.7771673  39.1598272
  60.0313807  67.2242355  40.0028563  59.1481447  67.1202469  38.7780833
 117.1874809  26.3486552  60.9689617 116.8024158  27.2247005  60.9466648
 116.5155411  25.8019614  61.3762093  19.9706215  73.7591457  37.4465466
  20.3335709  73.2617521  38.1794190  19.2489380  74.2578268  37.8295803
  13.8689083  59.9342966  33.1975007  13.3474583  59.8819017  32.3965168
  14.1100544  60.8580685  33.2663083 112.3742962  43.2721710  38.0310202
 112.5468349  42.6359463  37.3369837 112.6097965  42.8154325  38.8385868
  26.1350865  52.1470404  52.2442627  26.4433998  51.2976170  51.9285774
  25.1821274  52.0610952  52.2710514 111.7107487  69.7582626  43.4295416
 110.8188152  69.6279144  43.1075287 111.6148758  69.8263645  44.3794870
  92.2179413  62.3074532  49.0632248  92.2340012  63.0998945  48.5265541
  92.2579288  62.6276398  49.9643946  26.6378350  66.6119719  39.1000271
  27.3511071  66.4777946  38.4759498  25.9484047  67.0352602  38.5884166
  26.1395973  48.1067371  74.7746038  26.0066933  48.5058403  75.6344175
  25.7487053  47.2363806  74.8515415 109.2373943  49.5325136  40.9500122
 109.1890049  50.4872179  40.9007406 109.8410320  49.3602657  41.6726303
  72.8549939   7.5364293  80.2743931  73.0532056   6.8447341  79.6431215
  73.6891633   7.7081622  80.7113166 112.3243046  81.3872337  77.4095774
 111.4560223  81.1934280  77.7627897 112.9033375  81.3644791  78.1714344
   6.6068405  10.6362748   9.9013621   6.5474076  10.4764330  10.8432484
   6.0401577   9.9718189   9.5094383  17.3902363  58.2814932  24.7834516
  16.9452137  57.7322388  24.1380811  17.5179524  57.7077484  25.5389214
  72.6629782  19.8255372  89.8836136  72.8997707  19.6928596  88.9657021
  71.7224693  20.0025535  89.8651695  20.3378052  60.8268929  87.0679188
  21.0392803  61.2136507  86.5439129  20.7820839  60.4708672  87.8374004
  89.2814922   9.9845183  47.6781082  90.2354145   9.9084419  47.6997089
  89.1123772  10.9165704  47.8156281  30.6133789  53.3719397  78.3627462
  31.2956185  53.9548397  78.0295753  31.0712189  52.7888393  78.9682293
 107.5171089  61.6014576  81.7075920 106.5824795  61.8006611  81.7624950
 107.7272224  61.6925335  80.7781887  86.5661240  46.8835068  43.6244392
  87.4031162  47.3384094  43.7179279  86.5990543  46.1846828  44.2777300
  13.7362141  35.1445508  66.4967775  12.9832119  35.3638411  67.0455313
  13.9924950  34.2672586  66.7812300  77.9657364  40.5888081  70.6461430
  78.3117485  41.0923862  71.3829756  77.1964979  41.0812092  70.3597021
   0.3561634  56.5986061  11.1105430   0.7147927  56.5847111  10.2231729
  -0.4218727  57.1524096  11.0457897  89.5647335  53.6099529  64.9850607
  89.4022846  53.6157322  64.0417624  88.6920929  53.6132002  65.3784037
 104.1951847  71.8891478  63.9152765 103.3078194  71.6003513  64.1283703
 104.1828060  72.0215988  62.9673624  94.1321754  49.7186518  48.0257654
  94.0910339  50.4614830  48.6280394  93.6519623  49.0213633  48.4723282
   6.0738415  50.1321888  26.5263724   5.3201050  50.2336597  27.1075869
   5.6912178  49.9856186  25.6613040   0.3396935  33.9446688  32.2942138
   0.3647942  33.5827637  33.1800032   1.1725945  34.4070077  32.2006845
 111.9656944  57.8578377  74.4741392 111.0632038  58.0441713  74.7330141
 111.8884182  57.1661854  73.8169670  67.8958416  34.9931979  56.7216539
  67.6676846  34.9748158  55.7922268  68.8439226  34.8624229  56.7381763
   1.0125679  49.1848660  25.3355670   0.9989876  49.9355268  24.7418046
   1.5676731  48.5412407  24.8952937 107.4307442  42.0741558  34.6083426
 107.5184536  41.6077280  35.4395986 108.3138847  42.3894024  34.4162416
  83.0487347  68.5218716  21.9052315  83.8540745  68.2419682  22.3403358
  83.3194160  68.7294817  21.0108805 104.4299984  49.0880299  76.9190216
 103.7295532  49.7055006  77.1295881 104.2400074  48.3183098  77.4553728
 110.0307083  73.1655169  12.5376725 110.8197021  73.6065626  12.2227275
 110.2983952  72.7534056  13.3590984  11.8450970  21.2775707  45.3693151
  11.6629261  22.1195006  44.9519444  11.3915009  21.3243246  46.2109184
   3.9919609  71.1056519  86.4246464   4.2012734  71.1200094  87.3585701
   3.3911843  71.8407583  86.3025093  40.9615177  43.7281752  26.5349579
  41.1215443  42.8215075  26.2730932  41.8345303  44.1135025  26.6098166
  88.7874603  60.9846163  39.2000151  88.5195827  61.4525890  38.4091449
  88.0806732  61.1462784  39.8249555   4.1618485   8.4585172  87.4785423
   3.8693947   8.7651622  88.3368397   5.1002640   8.3037174  87.5864887
  17.1835083  50.7769060  32.4054074  17.8617710  50.6762648  31.7375255
  17.2204727  51.7024422  32.6467490   4.4384140  28.6582947  44.9516439
   4.6113056  29.0449429  45.8100414   4.1525597  27.7653313  45.1443577
   8.1240792  63.9482069  37.0751452   8.5840649  63.7580824  37.8927660
   7.6301331  63.1501675  36.8870640 115.6625271  14.6048856  54.0053844
 115.6831837  15.3579581  53.4148884 114.7532368  14.3068099  53.9816809
  24.0681023  43.4071445  60.9677982  23.4702248  43.8590860  60.3723860
  23.9124054  43.8157129  61.8193054   4.9081272  75.9641838  47.9648924
   4.9570126  76.2658024  48.8720179   4.0117974  76.1631775  47.6942968
 113.3730125  52.7255487  25.0001001 112.8443050  52.2857237  24.3343258
 112.7927113  53.3945513  25.3633213  11.1213536  37.7956247  38.3429599
  12.0738835  37.8151250  38.4353995  10.9568352  37.1016645  37.7045393
 116.7008305  66.3238239  72.5903988 115.8605480  65.9759140  72.8889322
 116.8039417  67.1455669  73.0703354  82.7808666  48.1419611  44.5943499
  82.5685501  47.3770571  45.1292038  83.7017536  48.0233765  44.3616676
 115.2736568  54.5850420  27.1317077 114.8382568  53.9463139  26.5671825
 115.9715366  54.0895033  27.5602365  97.3829842 105.1692581  38.2887077
  97.0418930 104.9709892  37.4165940  98.2960320 105.4143620  38.1387663
   5.8419937  49.5074415  59.4865799   6.5095372  49.1268826  60.0573635
   6.1038822  50.4229403  59.3890285  93.5127926  14.5301449  45.7644558
  93.0077553  15.3422499  45.7238054  92.9304504  13.9074647  46.1996222
   6.3962979  23.3683753  17.1009552   6.6895813  22.4572349  17.0947075
   7.0874829  23.8456273  16.6419113  94.5710468  63.0529642  36.6333079
  95.2036190  63.5570192  37.1451783  95.0541210  62.7860832  35.8512330
 113.0346298  80.5267811  83.1901932 112.2967339  80.6734467  83.7819958
 112.8297520  79.7007608  82.7520657   6.8814511  37.1651649  59.0337467
   6.5969033  36.7949009  58.1981850   7.1156925  38.0700278  58.8273811
  18.6428398  86.9465733  74.0869617  17.7559704  86.7723656  73.7717724
  18.8340515  86.2187862  74.6785593  -0.2193409  38.5357952  30.0308537
   0.3906674  38.6513090  29.3023062   0.1938195  37.8750730  30.5867100
  12.0561737  66.2841511  36.3717580  11.6597790  66.3957453  35.5076671
  12.5323815  67.1004057  36.5240359   2.5327820  29.9832749  33.5717750
   2.9183621  30.7027411  34.0717077   2.9769463  29.2003584  33.8973475
 113.5225677  24.2490053  43.5183334 114.0998459  24.8797584  43.0880642
 113.2853413  24.6672392  44.3460035  11.2905163  51.0251045  57.3108244
  11.4348549  50.6218815  58.1668663  11.6295761  51.9152594  57.4051332
  99.2529202  50.8695555  72.1925640  98.4432793  51.2163973  71.8178415
  99.7296429  50.5120707  71.4434528  14.9596924  62.0552254  30.2427077
  14.4520802  62.5689363  30.8709311  15.7694382  61.8419552  30.7064486
  26.9062084   7.0610374  27.1125078  26.3408703   7.4085784  26.4227009
  27.3918194   6.3526142  26.6899538  71.2331057  56.1769581  83.6250305
  72.0260763  56.5438652  84.0159416  70.9160089  55.5474472  84.2726326
  99.9773502  47.4921227  66.4770269 100.5309296  48.2729578  66.4676762
 100.5730629  46.7789268  66.7066002   4.9813790  76.4365625  50.8951664
   4.2718643  76.2108803  51.4967346   5.7394451  75.9560919  51.2279081
  37.4725306  94.5125700  89.1157116  37.4576246  95.2589894  89.7147663
  37.9768622  93.8437463  89.5789083   9.6739144  19.7303855  13.4227908
   9.2039437  20.5072117  13.7259400  10.5687279  19.8528755  13.7398708
  85.4455471  41.8520784  20.6391525  85.3183365  42.5517368  21.2798738
  85.9861088  41.2061882  21.0939622 100.0010395  55.6538486  20.2944779
 100.4145050  56.4478779  20.6332994 100.1358795  55.0015640  20.9819198
 109.3628216  52.7032423  37.5211716 108.9101410  52.8821278  38.3453727
 108.7914276  53.0740595  36.8486929 104.7790813  98.0498314  55.0624990
 104.7751713  97.9364967  56.0129595 105.6761169  97.8429031  54.8003054
 110.0427246  76.6306162  70.0417233 110.7211685  77.1985579  69.6765089
 109.4154358  77.2332096  70.4412699  13.6228318  84.6841240  76.9194078
  12.6736874  84.6137619  77.0213985  13.8748116  83.8814831  76.4627886
  65.2807027 107.3066713  31.9118094  65.5432397 106.3927393  32.0215011
  65.5749684 107.7383201  32.7138829  94.0909749 103.9873981  28.9407396
  93.6424237 103.1728320  29.1677046  93.3995420 104.5544641  28.5992956
  75.0013351  39.1589594  22.9477048  74.5302629  38.5669446  23.5340858
  75.4640102  38.5789943  22.3428845  99.6597195   4.1433090  44.8435354
 100.0672722   3.3845299  45.2611303 100.3501320   4.8060364  44.8249006
 102.8870678   2.6984185  44.6316814 102.2150803   2.5873473  45.3042364
 102.9814625   1.8294188  44.2416048  92.6705456  40.3624249  53.9298630
  91.7511845  40.6112242  53.8344049  92.8479958  39.8057580  53.1716633
 101.3322067   5.4194736  40.6255198 100.7042599   5.4621643  39.9043465
 101.4967632   4.4840944  40.7447672  22.8552670  51.0239506  44.9001408
  22.7640003  51.9337320  44.6169519  22.2593827  50.9440184  45.6449652
  48.2595122  47.8585798  88.1472095  48.8246596  47.0930583  88.2512506
  48.8638365  48.6003483  88.1188680 111.8767929   7.8164297  36.3898969
 112.7254295   8.2048655  36.6024232 111.6617489   7.2789496  37.1521974
  89.8430538  19.2264295  15.6737077  90.2308273  18.8623488  16.4695120
  89.2976952  18.5197818  15.3280723 105.1599693  21.8622446  53.5192585
 104.6203232  22.5848532  53.8399696 104.6111584  21.4236808  52.8691053
   3.3595795  12.8479779  37.1416640   2.7822346  12.0958030  37.2725749
   3.3867401  13.2804692  37.9951549  15.7328266  15.5440700  50.1412010
  14.8124642  15.4048574  49.9180984  16.1918778  14.8098826  49.7331905
  24.3520970  20.1064181   1.1364996  24.7585816  20.9463096   1.3500217
  24.4384617  19.5882344   1.9366607  44.4397795  79.0698529  77.5879105
  44.7487032  79.0410329  78.4934302  44.6634924  78.2102991  77.2310491
  57.3891622  94.5605039  11.7125082  56.6343671  95.1250588  11.8792224
  57.4438172  93.9991104  12.4858654 115.2809143  11.8687427  41.9555569
 114.9703217  12.3075509  42.7475262 115.4280567  12.5785744  41.3304806
  62.1800691  78.1212985  13.0624831  62.1560365  77.1714531  13.1784487
  62.0357305  78.2518946  12.1252835  91.4940148 104.4042872  44.9401236
  90.7560140 103.8090389  45.0715399  92.1928960 104.0433716  45.4855919
 100.5271149  17.0737314  23.9494252 100.0915432  17.1988857  23.1063104
 100.0848198  17.6832032  24.5403171  72.1332913  98.1601333   4.0271795
  71.8606359  97.8599190   4.8942226  73.0611878  97.9309510   3.9751980
   6.7664110 109.5341540  89.7380604   7.4550306 110.1222468  89.4279351
   5.9542143 109.9262381  89.4173677  42.8585016  47.9426432  93.7244499
  43.1960642  47.1503550  93.3066411  42.0206034  48.1037796  93.2906424
 101.0986787 105.8152970  21.5729904 101.6788369 106.1680122  20.8982778
 101.1107427 106.4739256  22.2674632   7.9467530  13.0822313  12.1358573
   7.6107067  13.3430839  11.2783837   8.7892765  13.5305190  12.2094095
   3.0465168  21.8138027  22.2259593   3.5874981  22.6002073  22.2976041
   3.6352200  21.0960293  22.4593282  35.4749626  16.8209875  40.9910917
  36.3660569  16.5711331  41.2355280  35.4746002  17.7773130  41.0320091
  37.8391039  58.2426182  91.7092477  38.6167013  57.7029205  91.8516992
  38.1840288  59.1181851  91.5342041  64.7713357 109.2276931  13.0366898
  64.8048860 110.0769657  12.5964141  64.5761949 109.4387722  13.9497042
 105.8324337   8.8109750  34.8894382 106.4495087   9.4561410  34.5441628
 104.9703312   9.1553712  34.6562099  72.7762175  31.6917396  17.4706733
  72.5146914  32.6111293  17.4200761  72.2060061  31.3171291  18.1420600
  93.2069874   5.5355132  16.3800073  92.9491425   6.2330139  15.7773101
  94.1322899   5.7032371  16.5586519  66.6914749  19.0128219  14.5663357
  67.2331619  19.7974193  14.6512985  65.9361887  19.2977691  14.0519631
 112.9718208  28.1823897  31.1082077 113.6631584  28.3773041  31.7409015
 112.4316692  28.9724684  31.0926628   5.0560231  34.6276236  54.4924641
   5.3019661  34.2106152  53.6667204   4.6187920  33.9359903  54.9891567
  88.4414750 108.8775811   7.2898716  88.8323957 108.2834603   7.9305232
  87.5574571 109.0378842   7.6200944  78.8539010 107.7305194  74.6122599
  79.3075830 107.5326188  75.4315519  79.3524152 107.2615286  73.9431047
  21.6850978 107.2319635  45.7550526  21.4915067 108.0046002  46.2858868
  22.4940854 107.4544700  45.2943373  67.5998574 108.8640218  74.4671154
  67.2832566 109.3078177  75.2539062  68.5390073 109.0482133  74.4497442
  97.5021458  12.8228450  68.1319904  98.4252930  12.9744887  68.3345556
  97.0273972  13.3919871  68.7377262  99.5964050  28.5897684  33.7211084
  98.9261913  28.2848573  33.1094861  99.5254326  27.9969311  34.4692659
 102.7538013  44.8069859   8.1728691 102.7643681  44.7857571   9.1297752
 102.2283363  44.0471888   7.9222292  52.1002561 109.4278259  40.5991411
  52.7282983 109.3113095  41.3120270  51.7496472 108.5509213  40.4431009
  18.1080305  70.2709842  82.5468607  17.8556692  69.4537712  82.9766341
  19.0113413  70.4196108  82.8264530 105.5877686  23.7124062  42.4475241
 106.4151669  23.3702350  42.1090746 105.3194141  23.0770326  43.1112432
  91.0616779  56.4989519  55.2568293  91.4474678  57.3727083  55.3196239
  90.2028275  56.5860605  55.6703711  94.5393467   8.6889988  56.5979147
  94.5926094   9.4613653  57.1608019  93.6932564   8.7711936  56.1579037
  28.8094961  80.5338693  74.4214507  29.2407095  81.2962723  74.0354033
  27.8770411  80.6796981  74.2617746   3.7325329  10.9344471  61.7101622
   3.2331127  10.7540739  60.9137487   3.0685944  11.0269082  62.3934412
  13.3328671  48.6250162  41.7893553  13.0589623  48.8232231  42.6848555
  14.2097611  49.0021276  41.7180824   7.1444268  11.5990484  28.0996418
   6.8474716  11.4593136  28.9988184   6.5741104  11.0420895  27.5697684
  77.3314285  56.3511848  37.0167875  77.8196001  55.9151506  37.7152133
  77.7018023  55.9968042  36.2084150 102.3085880  40.7350969  46.2260771
 102.2629261  40.0332594  45.5767918 103.0718422  40.5171871  46.7610407
  34.9630701  42.3533655  90.9366800  34.3659842  41.7683149  91.4029779
  34.7962248  42.1774734  90.0106903 108.4668350  19.2131484  84.5163727
 108.7142563  18.5637212  83.8581467 107.8179264  18.7672317  85.0607014
  83.8095570  36.4938521   6.5606707  83.6458874  36.6269398   7.4943364
  84.1428185  35.5985165   6.5011644  38.4660035 104.6060078  73.0128908
  38.5790092 103.9229249  73.6738443  38.7658864 104.2028963  72.1981525
   0.1941246  42.0735455  82.3013592   0.4967636  41.2985516  82.7746773
   0.1475281  42.7585268  82.9683399  95.6074524  14.2339611  13.6774206
  95.7136250  13.3585787  13.3050394  94.8252296  14.5828009  13.2500279
  96.7243081 109.9630686  50.3331280  97.6705819 109.8483972  50.4206657
  96.4738637 109.3608288  49.6325445  71.3924676 104.2409443  45.7031775
  72.3108941 103.9726310  45.7302141  70.9272080 103.5504310  46.1753654
  93.1476956 101.3182878  13.1668532  92.9898912 101.1157339  14.0889716
  93.6847383 102.1104532  13.1841409  79.0949202   4.4670963  35.6649613
  78.6487675   4.1089666  34.8975492  79.4683075   5.2942544  35.3606200
   1.9952721   6.8000990  17.1136475   1.4149899   6.0770905  17.3519027
   1.5972847   7.1782148  16.3295138  78.8099861  45.7147884  32.7459240
  79.4710875  45.5598211  32.0712686  78.7029505  46.6658449  32.7624011
 104.5540333  11.3260508  44.9290800 105.0276852  11.1359394  44.1192961
 104.2565346  12.2299838  44.8259735  87.9604912  40.1986170  48.6006975
  87.6722050  40.0409889  47.7016592  87.5652981  41.0382938  48.8352108
 103.6155796  26.4562201   6.0874176 102.6908684  26.6166377   5.8992344
 103.7611198  25.5494499   5.8175695  86.0803890  50.9824991  22.3290205
  86.8597126  50.9719419  21.7733383  86.2961674  51.5946054  23.0325818
  68.0802011  10.1704192  14.8726058  68.7652063  10.5402339  15.4295945
  68.3803797  10.3395104  13.9795589 106.0979557  14.2226839  45.4981995
 105.2944946  14.1609561  44.9816084 106.0636997  15.0948763  45.8910561
  68.3341294 106.7969524  47.4193239  68.0440217 107.6042502  46.9946575
  68.6596280 106.2527575  46.7022943  10.4289860   8.0854166  24.4636846
  10.2518982   8.7990659  25.0765252  11.0046524   8.4730995  23.8044834
  56.3358927  26.0716510  16.7918742  55.5298901  26.0342336  16.2769020
  56.8772602  25.3644514  16.4411354 113.0385876   8.0866277  42.3980999
 113.6107922   7.6609224  43.0365229 113.6369991   8.5462308  41.8091154
   4.4817681  23.7821031  42.2495079   4.2989582  23.3124495  41.4357281
   5.1572174  24.4176531  42.0127010  97.4968433   3.6735612  56.7659569
  96.9333172   2.9123574  56.6272640  97.3265743   3.9359680  57.6706028
  44.6556073  81.0175644   5.6729573  44.9712258  80.2344953   6.1239809
  44.0456945  80.6851756   5.0143558 104.9659920  30.4635382  50.7208776
 105.9058094  30.4970288  50.8993673 104.6935081  29.6006846  51.0330772
 112.4141788   8.8062263  22.1721053 111.7364979   9.1922152  22.7270699
 113.0675793   8.4742326  22.7877975  73.1470853 104.1328978  40.4511070
  73.1387979 103.1791650  40.3701353  72.2742730 104.3532311  40.7765198
 116.6986179  22.9090858  59.0333748 116.6544056  23.6317134  58.4072065
 115.8030319  22.8192520  59.3590736 102.3398399  27.8353095  22.1177983
 103.0672646  28.4531832  22.0448160 101.8758869  27.9119921  21.2840700
 102.2253418   6.9429535  42.5819159 102.2241402   6.4277315  43.3886242
 101.9949055   6.3155770  41.8966913 102.8863907  18.5247624  40.3904295
 102.9743671  17.8492129  41.0628319 101.9813824  18.4460473  40.0887918
  87.5072843  79.0107357  42.3832369  86.6189462  79.3584358  42.3045683
  87.6686364  78.5743534  41.5467167  61.9398385 104.2028283  51.6070318
  61.8405896 104.5845305  50.7348585  62.1914941 104.9396937  52.1637440
  98.5710430  23.3096004  55.0488615  98.1018734  22.4780369  55.1167727
  98.9535713  23.2978272  54.1714954   4.2195553  14.6493876  20.6950760
   3.4084267  14.3334889  20.2969384   3.9575047  15.4271376  21.1876869
  12.3258538  63.7733889  17.3101962  11.8091339  64.4240808  17.7854085
  12.7300877  64.2644691  16.5948856  25.1212353  18.7058759  30.7164168
  24.2055935  18.5522211  30.4835916  25.2783341  18.1290412  31.4639544
   4.0925068  26.8785310  28.0403018   4.6348709  26.0939026  28.1204629
   3.2698292  26.6460395  28.4708619  13.9453930  11.0697925  43.2730293
  14.7763390  10.5958354  43.2397127  13.9467377  11.4956045  44.1303015
  21.2369103  72.9135132  10.3566504  21.2909836  73.7769270   9.9469805
  22.1349663  72.5828028  10.3377938  29.7067971  14.0736806  50.3518105
  28.9373059  14.4721866  49.9452353  30.1584000  13.6348689  49.6308899
  14.6238179  40.5482244  25.9784150  15.1902432  41.2090206  26.3768458
  13.9919705  40.3298330  26.6634727  31.0678810  23.4087253  58.1279993
  31.3868565  22.5172877  58.2688141  30.9521717  23.4747744  57.1801186
  85.4851723  17.1244156  43.6124039  85.5043507  18.0595577  43.8158131
  86.2012959  16.7525721  44.1273165 103.4626961  57.0292139  47.4853563
 103.4615135  57.6163340  46.7293644 102.5375557  56.9206047  47.7057171
 106.2836075  25.7532620  56.8634939 107.1153355  25.2811098  56.9025612
 106.4302731  26.5405607  57.3877907  10.2918762  21.0760713  18.3293295
  10.1022667  20.7366419  17.4546492  10.9241337  20.4571342  18.6945629
 102.5882339  68.8254738  68.5584307 102.9012585  69.3100309  67.7945900
 101.7224216  69.1926622  68.7366962 104.4448757  50.0659513  23.0460525
 104.2635727  50.9046316  23.4702921 105.3589439  49.8810720  23.2617784
  94.5258999  34.4579458   9.1558385  95.2651596  34.8430896   9.6263576
  93.8510704  35.1365757   9.1733551  94.8131371  30.2636576  47.7724075
  94.4372082  30.7922125  48.4763527  95.7148457  30.1017928  48.0498028
  92.7522659  20.5512762  15.6525755  93.1715679  20.5998898  16.5116775
  92.0653248  19.8931146  15.7582319   6.0330242  42.5127888  47.6175976
   5.3873581  43.1514311  47.3151445   6.4336438  42.1787357  46.8150091
  10.4047341  18.0725551  18.8204777   9.5309204  17.7177417  18.6567974
  10.8257050  18.0785191  17.9608393  80.2747440  34.4428229  41.3807774
  80.3147030  34.3676662  42.3341846  79.4740677  34.9398351  41.2130499
  97.5761795  36.6125059  27.5616503  97.2877979  37.4200749  27.9869723
  96.8388081  36.0109520  27.6648498   7.7366108   0.5575961  54.9009657
   8.2691902   1.1732507  54.3974257   7.0234913   0.3180222  54.3090963
 102.0763588  25.4170990  61.2201691 101.9554615  24.9166203  62.0271015
 101.2179565  25.4002404  60.7969856  88.6020184  56.7647266  30.1006198
  87.6617908  56.6914606  30.2644491  88.8497448  55.9125757  29.7418690
   2.9313702  49.9225903  55.5518723   2.1144909  49.9711943  55.0552988
   3.2506699  49.0328836  55.4012203   2.4413914   4.2194861  27.8301167
   2.8165955   4.5498416  27.0138335   2.4551243   3.2674283  27.7319860
  76.5563679  15.8582401  13.7070119  75.7291651  15.7846642  14.1829872
  77.2273731  15.8454704  14.3895209  19.5170636  58.5238504  29.3780208
  18.6620564  58.9198065  29.2094231  19.8946137  59.0577507  30.0770473
 114.8349667  44.6028996  47.9420853 114.3183517  45.3013802  47.5402546
 115.1794338  44.9919176  48.7459707 101.5033817  19.8039162  21.0271454
 101.7177105  19.7749352  21.9595909 102.2652912  19.4188619  20.5941796
  82.0377254  28.7280679  46.1878681  81.4602280  28.3493495  45.5250645
  82.8525448  28.9101863  45.7197618 110.3618622  20.0168538  49.9452877
 110.4937840  19.8979568  50.8858681 110.7500076  19.2370105  49.5485258
  66.2440836  60.3818233  89.1859181  65.4126799  60.6820346  88.8186826
  66.1124956  60.4128999  90.1335211  86.1583519  19.5940530  33.8127732
  85.9082699  19.3629956  32.9181743  85.5899811  19.0584695  34.3662572
 104.8143387   7.0226115   0.6100233 105.0573540   7.8253013   0.1486520
 104.3376732   6.5072775  -0.0407108  79.5696545  40.8734226   5.6240147
  80.2889061  40.4300213   5.1742375  79.9955082  41.5583754   6.1394900
   3.4148354  25.8758736   6.4001894   3.8764614  26.4900374   6.9710964
   2.5705380  26.2940860   6.2314045  85.4094601  57.2301960  65.5543756
  85.6610680  57.1356869  64.6356869  84.7369671  56.5623522  65.6884432
   4.8558754  44.6113920  19.4660366   4.5367092  45.1285458  18.7265015
   4.9556107  43.7267399  19.1143644  93.8832474  21.4376569  36.9597697
  93.8980389  20.4895377  37.0904684  94.6219349  21.7620015  37.4749017
 116.4295387  26.6291356  46.6099453 117.1420574  26.1053276  46.2436581
 115.6339359  26.1588955  46.3606787   9.8658144 106.1244679  92.3450650
  10.7875597 106.1759568  92.0921268   9.6786463 106.9749070  92.7424999
  91.4824581  51.0222864  74.6404934  90.7168198  51.2280083  75.1768732
  91.7908287  50.1805496  74.9760866  14.2437596  58.9342594  53.6005163
  13.5806317  59.6103954  53.7395906  13.9561886  58.4755135  52.8111553
  92.3659992   4.6930355  30.2923203  92.4649715   5.3475565  30.9837246
  92.3607254   3.8550013  30.7548165  23.2543129  62.1759081  34.8389792
  23.2619328  63.0792809  34.5226097  22.3644394  62.0441961  35.1661110
  77.8834200  45.6893158  29.9544191  77.2283697  45.4901648  29.2854786
  77.9124403  44.9049234  30.5022478 107.6059055   5.2428126  18.2277930
 107.8028011   5.2467245  19.1645157 108.3893013   5.6084007  17.8168559
 116.8804169  59.6048403   7.5564307 116.4033413  58.9979076   8.1223482
 117.0729733  59.0965557   6.7685217 106.1378860  56.0721302  52.4525547
 106.1816597  57.0182848  52.5907803 106.2993431  55.9592009  51.5158510
  98.5235405  31.0713005  41.8392515  98.5635948  30.9054327  42.7811193
  98.1650162  30.2646780  41.4690399 106.4140034  42.2660255  38.1576252
 106.7439842  42.7598190  37.4069500 106.7448044  42.7403069  38.9204240
  15.7046074  19.4216335  36.1072063  16.3736195  20.0285983  36.4238358
  15.9822125  18.5665309  36.4357924  89.8832226  35.7773018  11.6087770
  89.1063690  35.3704214  11.9924247  89.6305752  36.6896343  11.4671850
  54.8525029 107.3991122  34.9723482  54.3897039 108.2228302  34.8189259
  54.2219335 106.7212321  34.7292519  78.9934540   1.8903255   3.0304170
  79.1235876   2.4682420   2.2785464  78.0470943   1.7507195   3.0642328
  23.8738388   9.5256364  20.6417704  24.0025372   9.9174821  19.7779846
  24.3740506   8.7100899  20.6117511 107.6023579  14.6921456  58.5659599
 106.9312668  14.0221965  58.6964989 108.2209396  14.2952251  57.9527426
  81.8317109 107.1473732  37.6346636  81.2174398 106.9662794  38.3460760
  82.2977620 106.3214751  37.5045753  81.2871075  32.0559716  45.6731510
  81.1184311  31.1901999  45.3013706  81.4261913  31.8930626  46.6060781
  85.2456474  18.2708168  66.0034800  84.4060993  17.9147756  66.2943840
  85.3151321  19.1150582  66.4491892  16.8591732  54.4645166   4.2604464
  17.1460480  55.2469778   4.7312826  16.6143650  54.7838831   3.3919388
  77.9523516  43.7953186  52.2926903  77.0949078  44.0185976  51.9305182
  78.4651423  43.5106850  51.5362120  11.4038891  17.3213780  55.4459286
  11.1507553  17.2308087  56.3645935  10.8604473  16.6832066  54.9837112
   3.4946675  17.0250046  30.7644868   3.5482830  16.4302659  31.5125799
   2.9419178  16.5655339  30.1323581  63.0541211 108.6113933  57.7862644
  63.2919961 109.3409427  58.3584547  63.0246049 107.8511747  58.3671474
  87.0994759  54.6255541  19.4367146  87.2833633  55.3154230  20.0742865
  87.7412701  53.9425135  19.6310949  12.5815720  40.6145525  28.1765389
  12.1955151  41.4448833  27.8977156  12.8354115  40.7623816  29.0875506
 102.6049423   1.2871674  35.0728154 103.5515785   1.3109449  35.2125931
 102.4838829   0.6610112  34.3590212  59.4290686  24.7923660  30.4819083
  58.9192820  24.1328430  30.0114036  59.1440535  25.6264901  30.1087642
  83.6268806  23.6946249   0.2256016  84.2433167  22.9944873   0.0110351
  82.8648090  23.2408071   0.5854963 107.7420712  38.4482193   7.1530014
 108.5363483  38.6979508   6.6807938 107.0334816  38.8776970   6.6737503
  79.6614915 106.0892980  51.7573214  79.9785119 106.9351976  51.4408016
  78.7488729 106.0531162  51.4708853  15.9722275  13.7215269  34.8863649
  15.0262589  13.8671327  34.8731065  16.0942120  12.9951417  35.4976916
   7.7181572  49.1166925  61.3744545   7.9068703  48.2120371  61.6238880
   7.3106427  49.4993496  62.1514654  81.7614746  43.1165028  33.6939883
  81.2881851  43.9433193  33.6011982  82.1066284  42.9386044  32.8190875
  91.6176510  60.1903296  26.3853860  91.5435123  60.6365681  27.2289538
  91.1835194  59.3480873  26.5209866  26.9967615  95.0343157  89.2429371
  27.2926485  95.6810666  88.6023201  27.6641810  94.3486787  89.2168839
 111.6519642   7.2428125  53.9478207 111.8522835   7.2672355  54.8835039
 110.9970379   6.5501565  53.8610935  59.6040392   8.7315786  74.2113447
  59.4291639   9.6398413  74.4577408  60.5484104   8.6290282  74.3291569
  94.8676109  53.7121677   9.2298871  95.6761742  53.1999731   9.2406541
  94.5558262  53.6486006   8.3271247  66.8376637  42.7467108  12.4852431
  66.2501383  42.5749111  13.2211280  67.5965595  43.1763124  12.8798938
  93.1924039 103.9216774   5.8229220  93.5470182 103.0326592   5.8341527
  93.8160497 104.4348126   6.3367176  24.9270309  91.3036333   6.8345885
  24.3738807  91.1028610   7.5895361  25.6705917  91.7809759   7.2026686
  98.8986683  48.1528139   8.6817670  99.8485374  48.1957769   8.5716200
  98.6302185  49.0635252   8.8033181 106.0682106  70.3172779  42.4830484
 105.1801777  70.6624222  42.3908901 106.0402584  69.4650030  42.0482111
 110.7151413  45.1661539  27.2184730 110.0092125  44.7830868  26.6977453
 110.4342937  45.0485849  28.1259608  98.4817410  20.7800174  52.4043894
  99.2440319  21.1745715  52.8280258  98.0951691  21.4924717  51.8952656
  29.5394081  64.2907953  30.9869552  29.1063065  64.6035051  30.1926851
  30.4702229  64.4503164  30.8308411  22.8876156  28.1557536  38.0108237
  22.0163483  28.5047388  37.8228831  23.3752770  28.2776046  37.1962214
   9.6222269  88.9035869  94.5413528   8.9167463  89.1303731  93.9354666
   9.7636282  87.9668380  94.4044618 108.4621239  79.7526312   5.1283205
 107.7610207  79.3442297   5.6361616 108.7903404  80.4525089   5.6928384
  13.1754917  29.6637774  41.8883848  13.6169953  28.9758158  41.3903618
  13.8362164  30.3492308  41.9875765 104.2861652  72.5995779  39.6020317
 103.9874077  73.0693197  38.8233638 103.7587261  72.9587650  40.3154993
  59.8398680 100.5350982  34.1669325  58.8969749 100.6848298  34.2359595
  60.0946087 100.9806166  33.3589320   6.8547159  36.2146401  82.8527164
   7.3679769  35.8659005  83.5815334   7.3917800  36.0449934  82.0787525
  41.1546067  85.2503525  28.0032305  41.1342549  84.7641240  27.1789794
  40.6565607  86.0477267  27.8233008  40.9122419  65.7027912  86.9241047
  41.6309500  66.1522436  86.4794827  41.1734819  64.7819567  86.9311810
 100.1760119  23.3392215  68.8681030 100.9124666  23.5914159  69.4251156
  99.4618672  23.9158440  69.1396475  90.7742089 108.0956708  24.5513491
  91.2419909 107.6571713  23.8406233  91.4643210 108.3966218  25.1424555
 111.5386641   7.4890613  11.3605742 111.5418852   8.1360864  12.0659689
 110.6206978   7.2312831  11.2762026  13.9444065  96.6903114  89.4275379
  14.5038426  96.6523647  90.2033043  13.1380129  97.1052265  89.7338200
   6.3864297 107.1346198   6.2953810   5.5423874 106.6982995   6.4113383
   6.9380063 106.7781268   6.9917349  49.5208937 100.9305726  46.6005187
  49.8184079 101.8282424  46.7485384  49.2304915 100.6294642  47.4614672
  96.9913936  24.6444129  14.3130545  96.7989171  24.1956662  13.4897570
  97.8538430  25.0364446  14.1762118   2.7399451  59.6614885  85.5434132
   3.6690518  59.7606802  85.3356838   2.4467875  58.9374828  84.9901485
  52.8665918  69.7290633  35.9494738  52.8384429  69.7576021  36.9058280
  52.9454559  70.6455348  35.6847243  21.0451263  75.5272756   9.4001250
  21.4792317  76.0532509  10.0717883  20.4699141  76.1441241   8.9475111
 113.6213506   0.7011174  42.3270468 114.2282713   0.2494048  42.9134230
 113.9162267   1.6117524  42.3323588   5.3511603  10.2614641  29.5830874
   4.5433838   9.8586129  29.9015955   5.9307367  10.2706575  30.3448252
  65.4019058   6.0320138  37.2337775  65.7671976   5.7422637  36.3978152
  64.6350384   5.4746675  37.3661093   8.5528928  62.5639057  77.4036598
   8.2427192  63.3716679  77.8129768   8.6733323  62.7932692  76.4821863
  99.8505891  14.5268201  24.9533419  99.9630010  15.4220294  24.6336607
 100.4090703  13.9973354  24.3841509 111.2568033  17.9232787  10.7545714
 111.8217528  18.5723686  11.1737971 111.3024199  18.1328677   9.8217158
   6.4254230 109.2003690  55.2233271   6.3163752 108.3459912  54.8057417
   6.5634602 108.9987431  56.1488204  76.6860360 104.1960440  29.3898634
  76.9367141 104.1831551  30.3135638  77.3416561 104.7540627  28.9715247
 115.6181252  43.8717603   7.0688777 114.8130453  44.3838739   7.1451334
 116.3203514  44.5076036   7.2060351   0.8802993  23.5926389  47.7715353
   0.2197225  23.9421701  47.1734576   0.4101855  22.9433393  48.2946352
  72.7406532   8.4615564   7.6888232  72.3326505   8.1088161   6.8980364
  73.6477217   8.6317062   7.4348406  52.7540100  26.1120557  26.5628771
  53.2289756  25.3676652  26.9323782  53.3940471  26.8237352  26.5534358
  60.3417719  22.9229926   3.3406214  60.3475809  23.8282584   3.6515765
  59.6620334  22.4952268   3.8613944 107.5256050   0.1961183  28.9000277
 108.1637228   0.9026002  28.8004164 107.6367176  -0.3394986  28.1145339
 111.5102542   4.3245792  18.8969283 111.3732469   5.1660632  18.4617667
 111.6364181   4.5493888  19.8187594  34.5261359  41.5739584  87.9573822
  34.1523314  42.4018145  87.6554585  34.7664428  41.1125088  87.1539211
 104.5505923  95.4830418   2.6791148 104.8838920  96.0572158   3.3686499
 103.6229962  95.7081662   2.6075415  77.5972885  72.6279424  33.5963301
  77.9589027  72.9618154  34.4173007  76.6629046  72.8294979  33.6466746
  96.3105016  89.8795605  92.8304768  95.4987770  90.3811646  92.7547932
  96.7552524  90.0160122  91.9939327 102.8665388   7.0374488  26.0405974
 102.5984228   6.2014198  25.6592803 102.7169621   7.6771640  25.3444438
 100.4487717  31.5979718  13.0992560  99.5879019  31.7507886  13.4888415
 100.9846175  32.3284482  13.4082942  79.0753164  26.8721151  12.6264052
  79.8135627  26.3132142  12.8690199  79.0987932  26.8980932  11.6698412
  76.9599197  23.8419675  15.5494360  76.9707965  24.6916913  15.9899859
  77.8718360  23.5515451  15.5666880  64.4416517  79.7045122  13.6065058
  64.6713776  79.5099078  14.5151286  63.5863799  79.2930303  13.4822993
  84.0278119  20.3159427  20.1936392  84.1434354  19.9835920  21.0838179
  83.9465332  21.2636804  20.3004984  65.5329395   9.1520929  15.0784926
  66.4233327   9.4645023  14.9177699  65.6502521   8.3140516  15.5258803
 107.5507939  28.4571218  26.5090804 108.0627454  27.6956224  26.7815642
 107.7521122  29.1272496  27.1622614  49.2987353 104.9135361  58.5081629
  50.2465218 104.8992978  58.6413149  48.9754635 105.5411492  59.1545538
 103.2436455  30.6088304   5.6720404 104.0444053  30.6156110   6.1964087
 103.5502684  30.6474447   4.7660975   9.2680162  74.8542690  79.7381449
   9.6138918  74.7624588  78.8503504   8.9195335  73.9883375  79.9501657
  37.6275182  22.0301485  83.5650635  38.5384274  21.7429137  83.6280727
  37.1229482  21.3119268  83.9468956  90.6060362  21.1058807   3.5294394
  89.7582567  21.4623880   3.7947802  90.3942025  20.2734803   3.1069808
  96.4768081  25.4847741  89.9725342  96.4915949  25.3502536  90.9201145
  95.5480414  25.4629588  89.7419834  28.3998680  80.1774120  93.5811138
  28.4047818  80.7151222  94.3729973  27.9840255  80.7297516  92.9191208
  28.3297086  86.6510487  91.1143398  28.4523726  87.2491074  91.8515778
  28.3324456  87.2179222  90.3430557  96.8592525  41.4020395  32.1726660
  96.3312912  40.6049966  32.2196631  97.4404359  41.2606382  31.4253668
  84.7253639  19.2550754  22.8670077  85.3012640  18.5865497  23.2380061
  85.1941926  20.0781917  23.0045180   4.9790114  97.3852692   9.4552378
   5.9357375  97.3844538   9.4853262   4.7104854  97.3321257  10.3724627
  87.5276262  18.8897228  41.0551028  86.7546308  18.5886859  40.5775218
  88.0517972  18.0993938  41.1849265  98.1592744  70.0259542  91.3156414
  97.7344304  70.8827400  91.3563728  98.8358360  70.1256943  90.6459045
  82.0215273  21.7216443  29.3502669  81.4950294  22.3120021  28.8112692
  81.4651627  21.5252828  30.1040129  36.8050100  72.0989416  35.9250884
  36.0220450  72.5651382  36.2181048  37.4418156  72.2358166  36.6264967
  99.3867648   7.0530557   4.1616396 100.1615298   7.4072122   4.5981555
  98.7545669   6.9185256   4.8676543  56.0798216  61.7287016  83.2125378
  56.9701624  62.0644665  83.3164024  56.0965490  60.8705044  83.6361504
  17.7705176  12.7211284  18.2974391  16.9811232  12.4412822  17.8340010
  17.9676182  11.9981431  18.8929896  27.1771914 107.9959307  50.8053069
  27.7589208 108.3338748  51.4862017  26.2969369 108.2101069  51.1143546
   4.7192192  32.2299504  89.7319126   3.8277239  32.4667954  89.4762230
   4.6306384  31.8896008  90.6221581  79.7319889  24.1395616  22.5109725
  79.8481165  24.0629815  21.5639357  80.5836425  23.9006376  22.8768019
  70.5461252   5.5789089  32.4202399  71.1170996   5.1113509  31.8106417
  69.6601189   5.3282785  32.1586947   9.9433106  96.4651547   0.4244952
   9.1904158  96.3873635   1.0104422  10.4926223  97.1370660   0.8282618
 110.8628166  37.9380655  12.8024439 110.7207072  38.0753660  11.8658595
 111.4741719  38.6296319  13.0558447  56.7149556   9.3249416  32.2029929
  56.7629326  10.2267217  32.5203471  55.7836879   9.1787051  32.0368914
 108.9446169  42.6721621  87.1811295 109.1730791  43.0141354  86.3167763
 108.8255226  41.7324829  87.0431137  91.5878570  20.2120590   7.5283675
  91.9370640  19.3360233   7.3644881  91.7457676  20.3623533   8.4604125
  70.6341416   3.0829191   9.2790560  71.2871558   2.5702428   9.7554640
  69.8063088   2.8807925   9.7150187  67.4878663 108.0660544  39.5059065
  68.4089226 108.2387601  39.3108134  67.0689458 108.9257060  39.4642787
 103.7622184 103.0935012  16.2513594 103.4784955 102.9365550  15.3507571
 104.7133607 102.9894028  16.2244277  44.2970431  90.2724777  24.3893294
  45.1028055  89.7557841  24.3919806  43.6514786  89.7072731  23.9650397
  27.9367590  64.3027115  74.3101263  28.4782648  64.0517759  73.5617733
  28.5383964  64.2945051  75.0545740  46.7238987 101.6549598   5.1522212
  46.3530994 101.9361172   4.3157534  47.6601845 101.5577470   4.9785857
 115.9047103  89.3805896  11.5938143 116.1343979  89.6565400  12.4811224
 115.8194661  88.4290586  11.6534285  20.2849579  50.6500387  58.0068779
  19.8711956  51.2250900  57.3631811  19.5565355  50.1751423  58.4070110
  21.0927415  72.1715593  82.2477627  21.9488931  72.4139023  82.6006126
  21.0331535  71.2270594  82.3913002  98.0958855  47.0495557   6.3580660
  98.3729351  47.4990415   7.1564631  97.1562636  46.9098424   6.4756255
  59.2718309  96.5245734  31.0556845  59.7002739  96.4092122  30.2075247
  59.9250907  96.2397633  31.6947131  58.4344262  81.2703334  40.0602297
  57.6003570  81.0239802  40.4600672  58.3106893  81.1033784  39.1258673
 115.2455509   7.4544858  13.8657813 114.9869216   8.3322715  13.5850005
 116.1959184   7.5059222  13.9677004  38.6136074  93.0443869  14.2452673
  38.9540418  92.1584807  14.3697886  38.8958737  93.5213362  15.0257067
 109.2642551  58.3018112  74.8212481 108.4446960  57.9559898  74.4677544
 109.1694837  59.2523146  74.7596455  22.2938615 102.0469437  42.2506861
  22.5769764 101.1911450  42.5726943  21.3801354 101.9170247  41.9967989
   5.6628174  65.7150364  58.8812065   6.1485827  64.9810266  59.2573690
   5.2576214  66.1451340  59.6342421  94.4059896  89.4349443  95.6965351
  94.4513964  88.5352241  95.3730106  94.2250048  89.9607741  94.9174500
 100.9284413   3.7146758  15.0568537 100.2823413   3.4414243  15.7080988
 101.1310661   2.9155111  14.5705275 100.8302105  21.7248153  30.5768256
 101.4269340  21.1490583  31.0550074  99.9574674  21.3911723  30.7847552
  57.4788416  22.8395843   0.7120566  57.8617490  22.7391481  -0.1594491
  58.0221093  22.2902250   1.2771277   6.4179868  33.2029390  88.0215645
   6.8514788  32.3581433  87.9005814   5.7118076  33.0230737  88.6421967
  83.1488622  13.2335042  42.5081210  82.8547350  12.9125642  43.3605914
  82.3706130  13.1861781  41.9528536  83.8812608 104.2183696  39.9369387
  83.2398862 104.4477139  39.2644267  83.3556622 103.8966904  40.6693987
   4.3316966  63.1147861  89.0630817   3.9605910  62.9906893  89.9366474
   3.8262334  63.8361311  88.6883831  82.6896641  27.9757165  20.7679228
  82.0144874  28.5411882  21.1429076  83.5134387  28.4181070  20.9726576
   1.5458997  73.2372379  90.9540462   0.8265132  73.8000488  90.6677532
   2.1316117  73.8227129  91.4340401 112.8466928  11.1287402   4.5341925
 112.6929653  11.4266538   5.4307704 113.2214535  10.2535724   4.6335463
  43.0256844  59.3371773  87.7830219  43.8159609  59.8489285  87.6103878
  42.3078632  59.8994207  87.4917316  70.5044306   7.9103135  28.0766539
  70.8401066   8.7963485  27.9406600  71.2837220   7.3546075  28.0654387
  95.9138549  31.4386892   7.2558741  95.0674308  31.4531946   7.7026228
  96.5571869  31.3917779   7.9630904   0.3280289  23.8261699  10.2005152
   0.9162027  23.1112289   9.9573092  -0.5409329  23.5204458   9.9403719
  92.9101193  24.6124648   1.7233328  92.2719026  25.0400781   2.2943549
  92.4720264  24.5564746   0.8741145  31.7628956  91.8565750  81.0852909
  31.3255000  92.2536659  81.8384361  32.4726629  91.3392448  81.4658546
  88.4699095  37.0977544  27.6158099  88.1006527  36.3065957  28.0081706
  87.8399194  37.7865934  27.8275828  80.8331836  31.1341523  41.4377837
  80.0855837  30.5382871  41.3901000  80.6125942  31.7389917  42.1461157
  51.2734634 106.6070424  14.0831332  50.7044989 105.9435426  13.6928992
  50.7151312 107.0594750  14.7154288  95.7769072  22.2647332  27.9602484
  95.2877403  21.6248178  28.4774069  96.5447498  21.7849922  27.6496081
  90.8714122  88.6936317  28.6561923  90.2626151  88.4501825  29.3535666
  90.3271884  89.1419779  28.0088572   2.4107201  18.6952304  22.8465895
   1.8654902  19.1405296  23.4951834   2.1488173  17.7763414  22.9038291
  98.0640567  58.3799028  11.0262160  98.0316484  58.1441449  11.9533591
  97.6821459  59.2568063  10.9885745  79.4584632  63.5878610  13.5763125
  80.0312622  62.8329229  13.7112669  79.3936308  63.6722993  12.6250510
  73.8786349  15.4523849  19.5299487  74.4273398  15.8617114  18.8609175
  73.0357725  15.3153037  19.0974860  45.8028829  99.0859900   9.0798049
  44.9996561  98.6584483   8.7827067  45.8713150  99.8711406   8.5365920
  21.0211349  40.4971457  80.4431152  21.3039446  39.6318054  80.1474190
  20.1532817  40.6108570  80.0556469  71.0159493  12.3788928   8.8635783
  70.5193687  13.1771135   8.6833529  70.6836421  12.0757150   9.7084956
  70.9059381  87.2405243  86.8625259  71.7247200  87.4671936  86.4215565
  70.2272367  87.4093056  86.2089825   9.5172436  64.6755933  34.5639281
   9.4439346  64.6451902  35.5178313   8.7653620  65.1967859  34.2824130
  26.2289596  60.5727291  93.9821053  25.9234500  60.9901476  93.1767082
  26.2728930  59.6410036  93.7672043  87.8054303 107.8171264  -0.3538461
  87.9182643 107.0141803   0.1548628  88.1253356 108.5120736   0.2214293
  80.0479350  43.7150239  37.6305060  79.3760693  44.0224981  37.0219950
  79.9214064  42.7669572  37.6679282  14.1982412  82.0888996  84.3431473
  14.7538853  82.8090477  84.0450287  13.3048403  82.4148369  84.2343616
  32.9191828  89.7154331  89.2933750  32.0695853  89.6542835  89.7300434
  33.4329414  90.3007126  89.8499107  60.2812147  61.8684292  73.5543442
  60.4176235  62.3859024  74.3479776  61.1488819  61.8101215  73.1543589
 115.3965342  19.0502404  36.6881232 115.4423464  19.1474914  37.6392703
 115.0169099  19.8735904  36.3811831  11.3151295   9.5230579  19.4085936
  11.8407375   9.5564222  20.2078776  11.0843451  10.4357385  19.2354350
   0.5094130  13.5651349   4.6569876   1.2892468  13.1255531   4.9958949
  -0.2087705  13.2230090   5.1893382  83.2068450  45.8731698  24.5064787
  83.3470393  44.9263715  24.4946246  84.0349532  46.2417840  24.1989188
  87.5012517   7.6731109   9.2376761  87.6717651   8.1638240   8.4337096
  88.3700693   7.4890184   9.5947413  96.9314957  31.6147088   9.6851401
  97.6305330  32.2481775   9.8473124  97.1557463  30.8644151  10.2355914
  97.0485807  35.7833623  38.8418822  97.3343075  34.9196290  39.1394667
  97.4439323  36.3939428  39.4640688 102.4911075  79.5524025  71.5491009
 101.8381255  80.2500248  71.4927959 103.3146113  79.9748755  71.3049936
  96.1481679   5.4767656  58.6851744  95.2792490   5.6407069  59.0516905
  96.7402065   5.9927177  59.2324500  10.5043871   5.4791211  25.6446509
  10.7850630   6.3555145  25.3812365  10.2017767   5.5855083  26.5465025
  49.2386532  82.7890491  93.1712532  49.7386742  83.5922718  93.0261898
  49.9021006  82.1019077  93.2338047 104.0413750   1.5281200  12.1884303
 104.6858514   2.1309137  12.5592665 104.3744624   1.3301372  11.3131670
 114.3087304  21.9726943   1.3579230 114.8544300  21.2130164   1.1546092
 113.9301765  22.2277307   0.5165629  94.1176963  33.5591935  26.2963919
  93.3417034  33.1090402  25.9625868  94.6579111  32.8617811  26.6678767
  89.9451125  27.6907491  18.0510764  90.6610239  28.3259248  18.0351595
  89.1614330  28.2170629  18.2094054  84.3807042  14.2090081   1.5334277
  83.7744969  13.7370109   2.1043543  83.9142317  15.0116300   1.3001112
  32.0163441  70.7008123  77.6761532  31.9251299  69.8083591  78.0099726
  32.8941298  70.7254934  77.2952127  90.1387662 103.2955657   5.5045371
  90.6931752 103.8605414   6.0427432  90.6960744 102.5475894   5.2896647
  70.6726188 106.9402800   3.9807562  70.0036162 107.3580704   4.5230822
  70.6867045 106.0300551   4.2766051 100.2179134  14.5126914  14.9294142
 100.3713262  15.2050399  15.5723433  99.2816604  14.3256139  14.9976878
 109.2529958  58.4272623  64.2815733 109.7023355  58.8465595  65.0154114
 108.5026609  58.9945841  64.1044474   5.7485611   4.6821451  15.9711890
   6.0517246   4.7027492  15.0635008   6.0012133   3.8151216  16.2884669
  83.2143903   3.9184427  14.1559748  82.8230316   4.4788312  14.8260741
  84.0605843   3.6619281  14.5225577   8.5443670   3.8197374   4.3165259
   9.2562563   4.2432784   3.8368849   7.7672655   3.9773940   3.7803416
   8.9521963  19.7369146   8.4488348   9.0551216  20.2575015   9.2454772
   9.5112974  18.9725923   8.5882811 115.2804554  38.5426950  17.1172194
 114.4483126  38.1550454  16.8461089 115.1746834  38.7056493  18.0544905
 113.4565628  64.6290921  54.0824084 112.8608215  64.3123674  53.4034209
 113.2582987  65.5624246  54.1586546 100.8999050   3.7294578   3.7945418
 101.2634838   3.6294936   2.9147486  99.9868858   3.4550285   3.7089972
  73.4256855  27.3117780  40.7735877  73.1467924  28.1290578  40.3606658
  72.6660097  27.0293187  41.2828402  85.7491565  13.4744214  11.8855624
  85.7804358  13.5130691  12.8414683  86.5403498  12.9953050  11.6391997
 105.5812347  27.3350000  20.3279643 106.4984000  27.2414922  20.0704817
 105.5110133  26.8438863  21.1465697   1.8796427  28.3321142  49.3803076
   1.8244869  27.3769426  49.3513731   2.6625616  28.5111474  49.9010901
 103.7599600  47.7028798  24.7496657 104.4161976  47.2334146  24.2347102
 103.0061567  47.7791833  24.1646914  83.5047382  21.0062217  24.8922591
  83.6481297  20.2435540  24.3318896  83.3003837  20.6371068  25.7514624
  65.1031328  28.9816808  17.0155959  64.6941483  28.2047509  16.6343550
  65.5459094  28.6586236  17.8003268  93.0182350  43.4854364  15.0334506
  92.6505578  43.9485406  15.7861666  93.1843865  44.1720819  14.3875842
  73.8054020  14.0017413  30.6174712  74.0544004  14.8452806  30.2397494
  73.8002771  14.1545772  31.5623717  97.0238805  24.3017482   8.7569003
  97.2202945  23.3691167   8.8454966  97.7090597  24.7398280   9.2617278
  63.5191298  11.6217756  33.9955000  62.9728771  11.8556165  33.2450537
  63.6304152  12.4423122  34.4756751  30.7301664  66.2450123  81.0596275
  29.9419594  66.6362762  81.4362907  30.4104567  65.4889250  80.5673409
   7.0041067  28.1000852   7.4768881   7.2285587  27.4201631   8.1121497
   6.1775810  27.8064012   7.0936923  80.4121226   1.7036723  34.7057108
  81.0378909   2.3984384  34.5008997  79.9127749   2.0424842  35.4487376
  48.7614894   4.7439898  93.7878323  49.5578748   4.7252978  93.2571220
  49.0742511   4.8595465  94.6850872  74.4365770  38.0253934  16.4005904
  74.4635216  38.3579683  17.2977499  74.4781319  37.0739126  16.4965109
  77.0205265  26.6896867  40.2770476  76.5138820  25.8812951  40.1993708
  76.7216106  27.2308492  39.5462756  48.0897582  26.8972444   2.4147086
  48.5022104  26.0532903   2.5987296  48.0667270  27.3423433   3.2618098
  17.0248015  10.1462459   6.7301230  17.6553089  10.8660602   6.7538123
  16.2203819  10.5433511   6.3962893  79.9180308   5.0268745  40.9764342
  80.4553405   4.2390775  41.0595469  80.4955238   5.6680583  40.5621676
  82.0233786  41.8310499  18.2693533  82.9016084  41.4673566  18.1567912
  82.1168486  42.7567434  18.0444102  14.0302879  34.2508363  15.8862357
  13.2665665  34.7748994  16.1277251  14.6095163  34.3072843  16.6461997
  92.1137393  17.7305221   6.6344409  92.0475149  18.3144330   5.8788638
  92.4466670  16.9087981   6.2736659   7.2107250  12.2178363   7.4104552
   7.0813257  11.6550063   8.1738143   6.4447720  12.7918577   7.4035124
 100.9207976  67.1319532  29.6575026 101.5400970  66.6683625  29.0937762
 101.1107028  66.8090581  30.5383639  78.2517580  34.0709352  28.9228587
  78.1914715  33.3575677  29.5582442  77.9116657  34.8353051  29.3879561
  62.6105666  16.0748529   7.2397761  62.4038136  16.1161327   6.3060812
  63.3005548  15.4144668   7.3033385  56.3737446 110.6269036   9.0341143
  55.7178408 109.9736033   9.2774634  57.1226770 110.1132499   8.7316470
  89.4556320   0.1776027  27.4918227  89.5959771  -0.7401467  27.2588686
  89.4966770   0.6454086  26.6577391  42.3071957  85.4437065  93.3158207
  42.4103546  86.3680077  93.0894375  42.8269958  84.9773216  92.6612091
  22.1602821  92.6483631  91.9309139  22.6442957  92.2104931  91.2307453
  22.7333760  92.5838375  92.6948738  50.0178808 103.2465611  21.8670706
  50.3520352 102.5656758  22.4509863  49.0849608 103.0508052  21.7800478
  86.1541576   2.7068090  13.8299613  85.8201099   3.3058023  14.4976859
  86.1649293   3.2262468  13.0260329  33.9113116 108.9691268   1.2691550
  33.5259545 108.3385001   0.6608347  34.4746015 109.5163499   0.7218985
  85.9718025  43.8623666  22.5199847  85.1841736  43.9233064  23.0604987
  86.6943235  43.8702630  23.1477789   0.3559456  77.7531481  91.9569778
   0.8945588  77.7471161  92.7482414  -0.1989790  78.5274029  92.0508766
  70.1201290  15.2564085  93.0144024  70.7591981  14.6155680  92.7027225
  70.5930704  16.0885943  93.0086422  45.5652142  76.6960573  81.2541294
  46.4269686  76.2887239  81.3418198  45.5102301  76.9438696  80.3312016
  88.7904942  75.7298230  29.5514731  88.5816706  75.5491781  30.4679827
  89.1253162  74.8990773  29.2138724  55.5359298  83.4925996  39.1958479
  55.0654131  84.3235813  39.1301398  56.4596194  83.7419973  39.2246680
  58.4575468 100.5738078  60.3343634  58.8570589 101.4275370  60.5009894
  57.6407474 100.5901395  60.8331637 111.0069383  27.5483083  38.4762625
 111.3340581  26.9032621  37.8492503 110.5187548  28.1751107  37.9423766
  55.2612770  25.4719114  33.3055453  54.3112767  25.4168081  33.2021384
  55.3926552  25.6062269  34.2441229  45.7712269  86.2857914  79.9599695
  45.4201412  87.0650482  80.3909206  45.4807663  86.3632965  79.0512037
  82.4796555  16.1357641  15.4226355  83.2394678  16.3052511  15.9795908
  81.8512714  16.8173980  15.6608347  26.8310785  59.3017817  79.2708445
  27.3464751  59.7676659  78.6124039  27.2507739  59.5210695  80.1027107
  22.3608088  75.4765701  88.4684277  22.9722810  75.2099943  89.1549206
  21.8144035  76.1455345  88.8809299  38.7148046  69.5689535  61.2923622
  39.5827723  69.6002245  60.8900118  38.1073809  69.5800638  60.5526686
  85.1892466  46.3440465  30.9080176  85.8378113  45.6430959  30.9733061
  84.3477887  45.8892011  30.8720545  29.4672990  88.5781097  92.8988361
  29.0027618  89.2701530  93.3694744  29.7711444  87.9840469  93.5851383
  94.9622572  50.6903219  21.4662508  94.8155117  51.6001558  21.2075858
  95.6775499  50.7341146  22.1008162 102.0959151  38.5009050  21.5081839
 101.4911902  37.9825258  22.0390563 101.5288484  39.0403985  20.9571700
  18.6503983 101.5820026  77.7692509  18.3613420 101.4686584  78.6746931
  19.0648901 100.7491016  77.5441027  55.5832052  77.6090384  84.2297077
  55.4272032  78.5412931  84.0787220  55.0394678  77.3949051  84.9878120
  67.7539170  27.7466630  25.5786662  66.9724286  27.5383996  25.0666766
  67.5812364  28.6178636  25.9356455 108.7440956  40.4285096  50.7182650
 108.3555186  41.2180089  51.0949950 109.5573199  40.3047990  51.2077479
 113.2138861  15.8355998   3.5346465 114.1469658  15.8736991   3.7447505
 113.0327142  14.9030732   3.4171443  52.4490547  93.5661316  75.2604771
  52.4461603  92.8887653  74.5841694  52.8483009  93.1436062  76.0209417
   9.7754753  86.6235256  84.5982552   9.0826756  86.1624813  84.1252899
   9.5219517  86.5573215  85.5188942 101.5277398   1.3704204  13.5943656
 101.0257399   1.4309978  12.7816157 102.4421776   1.3681649  13.3114676
  25.2498817  78.2366371  86.1299992  24.9938440  77.7677250  85.3357697
  26.1890101  78.3895302  86.0256481  91.7971218   8.7114715  55.6882147
  91.2851608   9.5077419  55.8299403  91.4152539   8.0711746  56.2885623
  46.6311193 109.3443261   0.9966235  47.1748239 109.8821841   1.5722327
  47.1157205 108.5236989   0.9073977  73.4475962  33.6210298   3.3397536
  73.0015001  33.5119008   4.1795878  72.7396471  33.7320089   2.7051501
  83.8479203 104.3580924  22.4007468  83.8705796 105.0287543  21.7181544
  84.1828507 103.5698567  21.9732718   8.9609861  96.8611336  80.5970287
   8.9721912  95.9813595  80.2200603   8.1307793  97.2367382  80.3039265
  99.9547828  42.1224069   2.6295237  99.1991508  42.3965120   3.1492476
  99.6008265  41.9723939   1.7529158  21.4775825  64.8151112  81.8843174
  21.8941998  64.3285131  81.1730576  20.5402827  64.7523451  81.7005634
 111.8931663  69.9128675   9.3513922 112.1958220  69.1082334   9.7723345
 111.3607419  70.3464269  10.0183157  80.4104634   2.7031755  21.7447714
  80.9947530   2.4665403  22.4650816  80.4308254   1.9449567  21.1608843
 110.0334084   2.4329805  17.0742087 110.6565416   2.2915983  16.3614993
 110.5400718   2.8843402  17.7493338  68.5076666  85.5072975  86.9161415
  69.2595673  85.8067417  87.4272251  68.7469387  85.6912613  86.0077667
  44.6392507 102.1817838  26.9477801  44.2022848 102.9804431  26.6520934
  45.1358748 101.8842183  26.1855177  33.1407595  65.4054117  94.4778824
  33.5120702  64.6592236  94.0071774  32.3031926  65.5692816  94.0444565
  96.6625011  33.6418962  18.3983473  97.0634830  33.0918073  19.0712885
  97.1466768  34.4663953  18.4431414   5.6528122  19.8242664  39.6911864
   6.3972456  19.5905446  39.1367201   5.3754789  18.9955043  40.0816683
  70.1075596  93.7218104   4.4152312  70.4055733  93.9872609   5.2852683
  70.4212517  92.8226481   4.3186144  76.2890102  41.2771749   7.8995375
  76.7459012  42.0638990   8.1971221  76.2166666  41.3864469   6.9513468
  75.6283468 102.5484954   7.6692156  74.9954170 103.2117520   7.9443984
  76.2667436 103.0302439   7.1432929  61.5969467  59.1208839  95.0037956
  61.2894249  58.8306952  94.1450500  60.7967615  59.3179893  95.4907131
  14.8293424  70.2498722  94.9989223  15.5294991  70.8778334  95.1768970
  14.1424179  70.7691431  94.5809269   5.5601294  36.9002103  51.0580878
   5.2855475  37.3811864  50.2773814   6.5126831  36.8442678  50.9822611
 105.7336510  11.4428949   8.3821444 106.6223634  11.1967611   8.6387400
 105.2950633  11.6508149   9.2071490  43.8108054   1.3145579  91.4838982
  44.6788865   0.9254015  91.5898418  43.7080887   1.8824519  92.2475529
 103.5451138  25.9687280  18.7053256 104.3463242  26.4368963  18.9401011
 103.1012571  25.8199548  19.5402483   6.3574761  62.5478220  84.6840572
   5.5613166  63.0763340  84.7391415   6.0432017  61.6563034  84.5335388
  97.1904290   5.3733348  20.0230269  97.7024556   4.5649766  19.9982600
  96.4432860   5.1664972  20.5844740  23.4675837  52.9548359  83.5814476
  24.2665529  52.5371504  83.2598686  23.3226013  53.6874104  82.9826641
  41.6993851 105.5013905  15.4287390  41.1795661 105.7767783  16.1838393
  41.9352746 104.5933638  15.6186728  29.5351774   6.4160394  22.0252661
  28.7998230   5.8035945  22.0052676  29.2044050   7.1716785  22.5108866
  25.5605824  14.1863298  21.8308596  25.2338297  14.5387553  21.0030512
  26.2209112  14.8178958  22.1160368 112.4725330  57.1137285  15.8130602
 113.1721747  56.7880487  16.3793330 112.7274883  58.0139303  15.6109290
  49.9288256  17.6081418  19.0681128  50.1550085  17.6641082  18.1397013
  48.9970286  17.8246927  19.1010909 109.0252436  20.9229898  12.9628615
 108.5602796  21.5194511  13.5496096 109.3057359  21.4751958  12.2330527
 116.9214118  22.2181463  29.5837550 117.1954811  21.9182061  30.4504542
 116.5234769  23.0743217  29.7413687  45.7281923 100.0539970  76.7106915
  46.2335014 100.0562954  77.5236416  46.2657213 100.5499172  76.0931587
  99.7599018  50.4170942  33.2985549 100.3481329  49.7219514  33.0035929
  99.7960198  50.3720521  34.2540125  54.4420546  95.3949986  47.7794604
  53.8211221  96.1190472  47.8596453  54.2535371  95.0115453  46.9229273
  97.4592293  25.2100801  47.7458910  97.1438849  24.3822622  48.1085257
  96.7344165  25.8211088  47.8782515  23.7155771 107.3838711  83.3345890
  24.2588639 107.4541283  84.1195393  23.9122534 106.5151119  82.9841518
  81.4265171  33.9666890  23.4417395  80.6499631  33.7556981  23.9600806
  81.5112907  33.2361364  22.8290896  72.4072284 109.9669181  43.5047392
  72.9664320 110.5236445  42.9629187  72.2503156 109.1901789  42.9678206
  79.5133649  19.3496703  10.0790457  80.1103799  20.0719833  10.2741675
  79.0506211  19.6282148   9.2887835 106.1272920  30.5092286  34.4284205
 106.1818254  30.3372621  35.3684668 105.1892960  30.5828523  34.2524199
   0.1419332  63.7829876  95.5035210   0.3763982  64.6828032  95.2763844
  -0.4838381  63.5208178  94.8283100  26.0390973 101.3414764  84.4910526
  26.8333316 101.7297935  84.1241360  25.8652115 100.5817127  83.9353943
  16.0639298  81.1136627  87.6575375  16.6949797  81.8310547  87.5995731
  15.9143579  80.8522415  86.7489624 114.0024364  42.2609853  14.5797495
 114.2796243  42.6155710  15.4245429 114.8112381  41.9488000  14.1740279
  18.0603010  20.9143209   9.8683505  17.2294457  21.3329410   9.6432547
  18.4265930  20.6413554   9.0271906  97.8899086  31.6581582  20.1466326
  97.3238445  30.9233999  19.9101309  98.7765348  31.3444089  19.9686198
  86.0957694  61.6061067  24.3498282  86.5434134  60.8309316  24.6888594
  85.6095529  61.2883329  23.5890154  20.0738365  38.4333276  68.2796053
  20.7609779  38.8228368  67.7389102  19.9970467  37.5347852  67.9587321
  69.2600793  36.6920709  24.2840724  69.4429016  35.7965230  23.9998011
  69.3023730  37.2115564  23.4812121  95.6354809  51.6356134  57.6186518
  95.0005770  50.9220361  57.5558714  95.2756691  52.3260354  57.0618014
  82.0212382 106.8519650  10.2646784  81.4716643 106.0683022  10.2561526
  82.6990241 106.6762982   9.6120123  20.3734715   3.7035512  20.7243781
  20.1153261   4.6045780  20.5301051  21.0821516   3.5192251  20.1079134
  47.6558382   3.2714986  34.0963797  48.3021814   2.5880575  33.9192442
  48.1720907   4.0729951  34.1819434 104.6743715  69.7208642  46.0870509
 104.2698014  70.1774644  46.8246607 104.0681160  69.8576211  45.3590540
  58.9486802   5.3215932  56.2030272  59.4171191   5.4405546  57.0292525
  59.3303144   4.5302343  55.8231120  92.5722623   7.5588464  49.0728526
  93.5238064   7.5368070  48.9713149  92.2354555   7.1978378  48.2528166
 108.4041488  17.1482133  22.9608683 109.3332017  17.0347738  22.7603201
 107.9739487  17.1575498  22.1058421  76.7135406  16.1243200   6.9522242
  75.8070815  16.3712787   7.1354632  76.9190020  15.4611730   7.6112036
  34.8305297  75.1675558  68.5119200  34.7668791  75.5828762  67.6518679
  34.8855162  74.2309713  68.3221340   4.9810393  15.0722646  36.8489794
   4.2636521  15.6078100  36.5101866   4.6823675  14.1703557  36.7324214
  29.2335272  94.8664474  82.6520538  29.1745925  95.4297352  83.4237194
  29.4743466  94.0078831  83.0000591 106.4412892  19.7545194  26.6970877
 106.3642371  19.7783231  27.6508860 107.3740495  19.8881339  26.5287451
 109.5682800  13.0188798   7.1639399 109.0774262  12.5148296   6.5149169
 108.9595831  13.7008571   7.4478869   4.6463902  15.5187988  14.0080695
   3.9915402  15.4131078  14.6981673   4.1719992  15.9374809  13.2898097
  25.2703840  52.0343923  15.1926283  25.1522047  52.8742074  14.7487978
  24.9741203  51.3834810  14.5564131  12.1162350  28.7971830  37.1401648
  12.5993473  28.0315160  37.4509482  11.6776211  28.4967565  36.3441805
   5.1735241  23.7501287  21.9366602   5.0360520  24.6048641  22.3450140
   5.7805140  23.9233112  21.2170748   6.6521055   3.5414600  40.7870726
   7.3517735   3.7459230  40.1666789   5.8559401   3.8645124  40.3651862
  79.9884558  76.3516331  93.8588047  79.2175055  76.8147469  93.5310936
  79.9273348  75.4793310  93.4694767  13.5409624  28.2285928  21.5433554
  13.5605938  28.2178258  20.5864100  14.0591175  27.4665117  21.8021349
  38.6998820 109.0223694  88.0984497  38.9951849 109.2466831  88.9808941
  37.7831841 108.7702465  88.2095051  57.5406742  79.4347811  87.3346996
  57.7381325  80.2255154  87.8366756  56.8231344  79.6916676  86.7555809
 104.8426330  35.3813218  40.8666281 105.5802667  34.7828435  40.9847502
 104.2393554  35.1609277  41.5763525  86.1626786  89.8922300  10.8737711
  87.0352847  89.6350431  11.1715083  86.1842305  90.8491658  10.8672003
   1.8559820  14.1921901  19.6336894   1.3447315  14.9792003  19.8220210
   1.2255604  13.4751176  19.7015528  18.1240685  54.2806291  28.8437514
  18.3310539  53.5890245  28.2151846  17.1687872  54.2717885  28.9036326
 107.5492323  35.8254098   6.7520957 107.5838769  36.7396974   7.0333533
 107.8267992  35.3275728   7.5210909 102.7691305  22.6405811  18.5871176
 102.7442921  23.5913657  18.4792761 103.6039889  22.4707555  19.0234713
   2.8213675  10.6483554  31.3283114   3.4226114  10.9131765  32.0244460
   2.8285200   9.6916055  31.3567595   5.3328259  57.1231794  16.7532973
   5.3313858  57.8555249  16.1369280   4.4810278  57.1735048  17.1870379
  15.4019606  72.3191452  87.8005791  14.6970296  72.9331064  88.0063915
  15.0739658  71.8198442  87.0526886 102.4579561  46.2724447   3.9747862
 102.1911276  46.8846750   3.2890658 102.3635590  45.4082155   3.5742430
  15.8384497  33.5889768  10.8649497  15.9969647  34.4930600  11.1364798
  16.3021977  33.0592965  11.5134959 111.7769969  24.2007779   5.2806811
 112.6303470  24.2345189   5.7129912 111.7508900  24.9904012   4.7402720
   8.7552340  44.1293000  37.2523455   8.4958107  43.7483930  38.0913023
   9.4561131  44.7423314  37.4741416 112.8904569  60.9001111   0.1412253
 113.1984556  61.7640638  -0.1325555 111.9369710  60.9815263   0.1628642
   9.0039093  16.9606876  23.1333594   8.5573990  17.7943038  23.2814745
   9.7711403  16.9951009  23.7046771  53.4626627  81.7658806  89.3537426
  53.9154911  82.3241329  88.7216473  53.3619499  82.3162746  90.1303768
 106.0151184   9.3636321   5.1714091 105.1143873   9.6509599   5.3209452
 106.1800826   8.7228870   5.8631281  14.6529658  47.8718614  33.9345698
  14.4456370  47.1544408  33.3357672  14.8035366  47.4442529  34.7776083
 110.5301941  30.7383680  24.5156054 110.0587404  31.0523938  25.2871947
 110.8405936  29.8672532  24.7626643   2.6599629  52.4012517   1.9574599
   2.9749138  51.5165662   1.7720370   1.8421633  52.4724340   1.4651446
  87.8811843   5.7071828  30.7650523  88.7302363   6.1194896  30.6058363
  87.9415757   4.8578882  30.3276877  14.3518908  46.8335676  52.9676299
  14.5089609  46.6137933  52.0493369  13.6293919  46.2632417  53.2302050
   2.8840859  10.1261043   8.0691771   3.4364445   9.9256801   8.8247923
   2.4457581  10.9442376   8.3031897  12.4304945  21.4411306  49.6686797
  11.9181902  21.7498731  48.9213805  11.8517525  21.5607929  50.4216532
 100.0862253  21.2835550   7.6173262  99.4021499  21.5985154   8.2081465
 100.0382078  21.8690347   6.8615870  20.4855711  32.3765134  17.5320010
  20.6838591  33.2291936  17.9191165  20.2574045  32.5731897  16.6234355
  92.4581123  52.7799272  34.4878058  92.8225994  52.8788137  33.6082606
  92.5049615  51.8399095  34.6621851  35.0955629  97.1305466  78.8033772
  34.7922206  96.2301826  78.6869574  36.0483980  97.0571423  78.8576794
  23.3863807  95.2978134  60.2118492  23.8123488  94.8408794  60.9370995
  23.3607864  96.2139606  60.4879856 109.0664375  33.7794637  19.7657351
 109.1667974  33.5500573  18.8418631 109.9575675  33.9573621  20.0665144
  62.5416136 105.4082584  94.9183559  62.0440340 105.5103779  94.1070461
  61.8757629 105.3761673  95.6052589  43.3589846  96.9109927  39.0119128
  43.8436505  97.4661694  39.6227412  43.0022830  97.5204287  38.3657126
  11.7338211  37.2357702  24.0318732  11.7634041  37.7301549  24.8509840
  12.6091654  36.8575048  23.9486746  28.5354328  92.8318882  89.0663433
  29.1622877  92.2780609  88.6009789  28.9816427  93.0673981  89.8797607
   2.4035103   0.6281661  52.7811198   2.3577292   0.3293227  53.6893229
   1.6733153   0.1872539  52.3467974  40.5559492  99.2600441  75.0839281
  40.6007242  98.6638927  75.8314753  40.5395460 100.1336098  75.4748821
  91.2393082  29.9023103  14.5188002  91.0601676  28.9620256  14.5195155
  91.1385286  30.1646375  13.6037783 113.9113868  31.8615865  42.1015601
 113.4535492  31.9223356  42.9399638 114.4959128  31.1102437  42.2017531
  93.8966728  20.3023004  29.1142134  93.8003064  19.8547076  28.2736163
  93.0107177  20.5889844  29.3358664  43.3209085  77.1923971  83.0730820
  44.0207386  77.1415901  82.4220181  42.5136900  77.1310854  82.5623226
  93.1708634  49.5220994  45.4452662  93.0465889  49.7489976  46.3668398
  94.0325857  49.1064691  45.4150252  27.7125771  36.4549302  15.4250960
  28.2318098  36.7790365  16.1610178  27.6657087  35.5089139  15.5632643
  78.7188994  26.6912698  27.6674799  79.0992689  27.5324392  27.4145464
  78.0281337  26.5372800  27.0229868  40.6447966  23.2226228  25.5297427
  40.7540877  22.5115966  24.8982958  39.7794659  23.5834407  25.3367571
  90.0267637  24.3244457  14.7268347  89.6329248  25.1043939  14.3359236
  90.7060564  24.6651935  15.3087954 106.0699690  26.4734124   7.3821311
 105.2879107  26.3480138   6.8446402 106.2598193  25.6042146   7.7352290
  11.0048515  36.8740987   8.9293818  11.2941773  36.4113950   8.1429820
  10.2455504  36.3771676   9.2339472  16.8635780  20.3557920  52.2530131
  16.5318138  19.5308828  51.8984847  17.4191935  20.7088899  51.5581374
  11.7706215  91.3266087  94.5139790  11.8802762  90.9509945  95.3875446
  11.5153849  90.5853176  93.9648247  71.8098516  11.3922166  41.8439345
  72.5656796  10.9734058  42.2557024  71.5894610  10.8195686  41.1092619
  33.5786278  50.9059476   1.7380576  32.6487953  51.1330842   1.7456584
  33.8564570  51.0641622   0.8358244   6.4680512   8.4425687  38.0446772
   5.9779913   7.8217601  37.5055365   7.2846157   8.5834169  37.5654940
 107.0941818  38.7498140  14.0901427 107.3547590  39.6560811  14.2544798
 106.4841569  38.5438012  14.7984175  83.1660205  12.2623443   3.9472823
  82.6021150  12.2380971   4.7203688  82.5585923  12.3129176   3.2092433
 104.2506183  25.0251531  31.8552165 104.4886172  25.8188485  32.3344187
 104.1587127  25.3123521  30.9467558  39.0344954  94.5289516  86.8553066
  38.3442259  94.3098259  87.4812031  39.3953705  95.3553486  87.1763325
  55.5307102  75.8999252  88.7972736  55.6260824  75.8621168  89.7489643
  55.1275396  75.0638247  88.5635662  65.3164816  51.6345739  94.4703579
  64.4274282  51.8323612  94.7648048  65.3198433  51.8712759  93.5429001
  28.5305864  40.7817125   1.7612319  27.7678949  40.8935022   1.1937480
  28.1644613  40.7062005   2.6424174  18.9239342  70.1767110  26.7643599
  19.4665320  69.6314191  27.3339896  19.5130045  70.8682966  26.4627985
  57.7663612  80.0360298  83.0241299  58.6430168  80.4198933  83.0431461
  57.6400280  79.6836567  83.9050961  65.4676694 105.2176772  51.0168128
  64.9057096 104.4644032  50.8351378  66.3497561 104.8503218  51.0734229
  75.3316385  49.0911245   6.3110499  75.5640008  49.5845460   5.5244402
  75.6764803  49.6158551   7.0335249   2.5400908  53.5976934  14.8924880
   3.3050854  54.0462446  14.5321898   2.4605114  53.9380788  15.7835822
  38.2897902 103.2054424  70.4302883  37.7769542 103.2542038  69.6235323
  37.8676105 102.5147343  70.9410906  89.7609711  22.2847032  18.8339381
  89.0517247  21.7668103  19.2147116  89.6166790  22.2304057  17.8892378
  93.5015548  52.6476144  31.9608264  93.5781265  53.4582757  31.4576392
  94.3757749  52.2594976  31.9242053  12.7456028   6.6841220   5.8080821
  12.0991690   6.0170841   6.0391955  13.5789616   6.3262462   6.1141543
  11.3755114  17.6844692  21.6074996  10.8785326  16.9574785  21.9826369
  10.9035904  17.9085635  20.8054404 111.0140074  30.5191564  41.0799174
 111.0687292  31.2625264  41.6804461 110.0868738  30.2811384  41.0772757
  20.9567809  84.8882484  82.0648098  20.1480842  84.4192123  82.2703648
  20.7658553  85.3479004  81.2471962  86.7718792  96.4185715  79.9458981
  87.7270317  96.4412689  80.0041676  86.5889359  96.4286137  79.0063953
  32.3219204 105.8880435  60.7344107  32.0777065 105.6968270  59.8288588
  33.2749689 105.8002101  60.7491068  99.8328388   9.9477338  24.1747527
  99.7574318   9.0026235  24.0431838  99.8731673  10.3102826  23.2897810
 114.3731487  15.1269435  25.2259211 114.3380130  14.6598958  26.0607104
 115.2097619  15.5915784  25.2464537  41.9044876  69.2998886  89.9583626
  41.2699127  68.6254644  89.7160912  41.8120956  69.3859005  90.9072113
 113.9998377  38.5039663  36.5073637 114.7835791  38.6155462  35.9692912
 113.4820903  37.8463411  36.0429339  98.8547814  22.8940295  25.6870703
  98.9155472  23.8480043  25.6373934  99.2053497  22.6763582  26.5507655
  93.6827362  26.9581365  33.1580500  93.9288056  26.0382699  33.2557063
  92.7255857  26.9506597  33.1518225 112.6613129  52.5353002   8.4757285
 112.4028218  53.3888292   8.8234286 113.6060489  52.4925565   8.6236434
  14.4156439  26.9947004  43.7255625  13.9314062  26.9312047  44.5487933
  14.7617085  27.8871297  43.7194590 107.4000872  41.0226774   9.7334818
 107.6223076  40.1633310  10.0917773 108.1079376  41.2162637   9.1189055
  20.8638048  35.6376576  50.0157833  20.1404858  36.2598062  49.9384928
  20.5040574  34.9147749  50.5298376  92.8537524   0.1191615  42.5364642
  93.1078852   0.3009605  43.4412341  93.1333447   0.8939552  42.0488600
  18.8176405  74.6673727  70.1862192  18.5527492  74.0024805  70.8218145
  18.1903398  74.5764494  69.4689608  63.0379498  19.2728423  28.5298495
  62.3808694  19.7938346  28.9914183  63.3324492  19.8373937  27.8151564
  20.8325911  89.9830627  84.1376114  20.4691553  89.0984917  84.0965557
  21.6211224  89.8934269  84.6727848  29.6442063  25.6202554  15.2006583
  29.6842701  25.5949735  16.1566882  29.4129307  26.5259313  14.9944930
  99.3051541  33.2593297   5.6543974  98.4177387  33.6031198   5.7570414
  99.2630136  32.7193212   4.8651843  90.4385984  25.3876066  47.3458628
  91.1686802  25.0893449  47.8883128  89.7030080  24.8346185  47.6091914
  19.7404075  89.0101337  92.2552586  19.2306232  88.2053661  92.3485756
  19.8643279  89.3205261  93.1522083 108.9187587  46.8242120  20.5476717
 109.6889460  46.3211107  20.2832274 108.3671820  46.8465375  19.7656874
  52.7876377  96.2941360  75.6546879  52.7904797  96.5810108  74.7414923
  52.3966503  95.4207802  75.6301689   9.5362628 105.2545224  43.3760981
   9.9965919 104.5656834  43.8555007   8.9960635 104.7843419  42.7409987
   4.9108756  96.8994294  28.1989054   5.0506461  97.0831977  29.1278414
   5.0920261  95.9637461  28.1099467  12.7258146  93.4889984  93.3225155
  12.8088987  93.6863232  92.3895741  12.3819590  92.5960732  93.3487701
  97.5836104 106.8806134   9.3493895  97.5264472 105.9719811   9.0538268
  97.2013778 107.3895274   8.6344485  14.5923936  73.0121231  80.9407425
  15.1637685  72.2494698  80.8506393  13.7093174  72.6665354  80.8104515
  45.6688976  92.1142483  64.8639202  45.9430265  91.3204765  65.3232718
  46.0590839  92.8289795  65.3670597   7.9290754  63.5060167   8.6655764
   8.5458500  63.8816213   8.0372862   8.4177620  63.4684991   9.4877772
   4.5646555  46.0561895  27.8617339   3.7680323  46.5346574  27.6321845
   5.0413639  45.9744405  27.0357184  71.6726685  29.4261979  11.8843321
  72.1961642  30.1083516  12.3048739  72.2534365  28.6661290  11.8491225
 110.4744613  37.4966478  27.8818278 110.2248657  36.5854215  27.7281813
 110.2258742  37.6630163  28.7910895 111.7796934  51.7894029  22.7522425
 111.8351066  50.9989785  22.2152094 111.7153371  52.5048017  22.1195464
 104.1596430  84.3416691  83.4850788 103.3809775  84.2112160  82.9438782
 104.5186072  85.1786804  83.1904602  43.1917381  89.3771172  70.2770710
  43.9365101  89.9768543  70.2339506  43.5744905  88.5379314  70.5329943
  84.0447587   9.3873156  92.7971458  83.4950227   9.6986998  92.0780659
  84.2648143  10.1778067  93.2900429  18.5279925  37.6662206  42.6690154
  18.9929659  37.7390813  43.5025172  19.1930420  37.8536176  42.0065836
   9.2312033  13.5686778   8.6248831   8.5427076  13.0333232   8.2304148
   9.9327500  12.9484510   8.8233428  94.8757714  30.3218688  73.7192106
  95.4155320  29.8347224  73.0966473  95.4923743  30.8974493  74.1716766
  11.6087420  44.2003106  47.0926528  10.8696301  44.5399045  46.5880446
  11.8192179  43.3645391  46.6762213  76.4415138  48.7946748  26.7835097
  76.9201070  49.4758367  26.3110785  76.7942338  48.8270330  27.6727633
  45.9392405  63.7140942  93.4787273  45.3320312  62.9964828  93.2982731
  46.0044003  63.7383604  94.4334030  10.3231604  89.4143152  18.9762549
   9.9370176  89.7273778  18.1582598  11.2520725  89.6329259  18.9016871
  44.7885592  28.1223535  13.3469634  44.0394766  28.1443738  13.9424662
  45.1236708  29.0189599  13.3503489  60.4586792 106.3349533  79.4680595
  59.5413017 106.6078281  79.4815826  60.7151937 106.4027309  78.5483646
  64.4744462   5.0190295  93.5747814  65.0381726   5.1753176  92.8171444
  65.0800413   4.9415720  94.3120003  89.9320048   4.3204440  73.4751606
  89.8706454   4.0225256  74.3827486  90.8664435   4.2784632  73.2719517
  77.4666977 101.0077095  90.0150776  77.0431519 100.1756382  89.8041439
  77.2906113 101.1366081  90.9470749  20.2553320  77.8307915  94.8440456
  20.2988863  77.2302532  94.0999413  19.4831312  77.5489187  95.3344440
  35.4735930  38.2323217  31.2448172  35.2995808  38.0119848  30.3297190
  36.4183743  38.1148958  31.3439612   2.3385889  46.1318540  50.9688906
   1.7631561  45.9678220  51.7160277   2.7512581  45.2860402  50.7941775
   9.1964895  58.5481309  21.4853625   9.8189003  57.8290128  21.5935854
   8.3453066  58.1610154  21.6899542   1.8407900  42.2265958  14.0383582
   0.9254343  42.2475099  13.7592272   2.0899183  41.3046502  13.9736704
  23.3068705  95.9215260  79.9649763  22.7789569  95.5595589  80.6766796
  23.3833385  95.2048588  79.3350744  10.0101883  29.8360681  27.3337607
  10.3150828  30.2295827  26.5161948  10.7857163  29.4092988  27.6979880
 110.9647763  80.2404641  31.3652853 110.4865587  79.7756814  30.6786112
 111.6516960  80.7164525  30.8985857   7.3843128  42.2521734   3.7103705
   8.2751639  42.3050069   3.3642058   7.1957428  41.3143491   3.7442545
   4.1729958  52.8179406  20.4834227   4.5659907  51.9746446  20.2584128
   4.2839319  52.8885221  21.4315562  98.2492322   0.0836886  83.7442112
  99.0854377   0.5491389  83.7254238  98.2768649  -0.4894506  82.9780674
 108.4233320  43.0886983  14.7006182 108.4565437  42.1379899  14.5943598
 109.2666519  43.3155011  15.0925402  60.6013060  69.3259239  93.9379597
  61.2413311  69.6161509  93.2880592  61.1291838  69.0485096  94.6866989
  77.7814849  65.2750158  16.2471537  77.3832591  64.6544694  15.6367735
  77.0407907  65.7533979  16.6196398  57.8338415  73.0828046   7.3524336
  58.5000689  73.7161874   7.6192622  57.2964651  73.5542535   6.7158846
  91.5413261   6.0640191  25.7172732  90.7260371   6.3485479  25.3042559
  91.4033294   6.2191915  26.6516737  12.2163660  31.2295388  22.5297789
  12.9198773  31.8228959  22.2666697  12.5393088  30.3583001  22.2998099
  44.2743063  74.0348148  94.2041588  43.3557653  73.8346624  94.3843079
  44.6590137  73.1934977  93.9583492  76.6653262  35.3676557  55.8191542
  76.3843248  34.4755983  56.0228686  76.2328095  35.9112787  56.4776663
   5.2413876 101.6127347  22.9991297   5.7909138 102.3922490  23.0804209
   4.4032986 101.9431733  22.6756339  30.3594715  43.9894246  28.0486159
  30.3965981  44.5314264  27.2605280  29.4908030  44.1571950  28.4139876
 102.5625122  64.8342370  28.3080821 103.3876479  64.3500947  28.3394770
 102.1489442  64.6577215  29.1530852   4.0800125  81.0884713  16.1810164
   4.2121012  82.0264959  16.0435347   4.9637873  80.7338285  16.2779955
  99.2681664   5.2331103  80.0597382  99.4625729   6.1616076  80.1875782
  99.9445695   4.7757853  80.5592918  10.0008471  70.1950692  10.4696040
  10.5538065  70.8265638  10.0095133  10.6187946  69.6157979  10.9154944
   1.7589981  54.8827886  22.7650599   1.9624788  55.8038854  22.6025824
   1.2196095  54.8925161  23.5557513 111.3626016  18.4285878   7.8316359
 110.5069626  18.7961435   7.6102309 111.4854586  17.7142524   7.2064452
   1.2737066  50.9812784  23.1462912   2.2126228  51.1674165  23.1516127
   0.9853465  51.2292909  22.2678999   0.6267590 102.7253723  66.8532944
  -0.1656490 102.1886635  66.8696308   1.3315052 102.1062469  66.6628790
  68.3527851  93.9826965  89.2721844  68.3499765  93.3917236  88.5192013
  68.9850807  93.5959148  89.8778534  34.1529448  57.2169351  38.1850867
  34.7557909  56.6715860  38.6904673  34.7206003  57.7419519  37.6208548
  62.3407412 109.8791027  94.3903923  61.9821262 108.9962482  94.2998791
  63.1708860 109.8503494  93.9147282  46.3597853  57.8835916  23.2182364
  46.9520266  57.1603917  23.0121855  46.0484583  57.6935052  24.1032080
 103.9984429  39.0782499  18.1910471 103.8693369  39.7148561  18.8941054
 103.9226282  38.2268762  18.6219267 116.7881787  57.7506589  42.1614031
 115.8567441  57.7615880  42.3817210 117.2309625  57.9668092  42.9820494
   1.5266649  92.5221443  89.2450619   2.3857929  92.7781105  89.5806408
   1.7080607  91.7896080  88.6562443 113.0838216   7.9930734  51.5792136
 113.7074459   7.2717189  51.6627078 112.4154532   7.8094911  52.2393755
  56.3352854  70.1036214  30.7517485  56.8517191  70.1947259  29.9509768
  56.0084707  69.2043447  30.7249693   4.8911936  37.7664708  34.7044425
   5.5190975  38.4887075  34.7228579   4.1770203  38.0554532  35.2724890
   0.4486687  52.7817106  11.2961630   0.2128942  51.9789266  11.7611174
   0.5989630  53.4245633  11.9892554   4.1867048  31.2951707  13.5560755
   4.9480469  31.7658185  13.2168345   3.9715273  30.6623029  12.8709368
   9.8043091  39.4184541  31.7754130   9.9968750  40.3243112  31.5333991
   8.8612539  39.4095754  31.9391112 112.0767892  23.1644916  15.2790980
 111.9939173  23.6695718  16.0879569 111.7222584  22.3026132  15.4975180
  42.9346354  21.3639402  37.9485659  42.5414068  20.7841396  38.6008219
  42.1907789  21.8164300  37.5508646 108.5653818  40.4882669  15.4513888
 108.3170188  40.7170915  16.3470320 109.4582689  40.1521444  15.5288844
  52.0048697  22.5014209  21.6550784  51.7344839  21.5920877  21.7824797
  51.2320120  22.9321765  21.2898783  41.1482603  57.1282529  31.4442591
  40.3809197  57.1259450  32.0164637  40.8418257  57.5360727  30.6343131
  15.5172474  27.7942132   5.5730967  15.2690107  27.1246385   6.2104849
  15.2351982  28.6185502   5.9695200   3.1100447  48.1906270  19.6410422
   2.6644880  47.9629087  18.8250498   2.4327738  48.6039972  20.1764540
  47.8275156 107.4914360  78.6203289  47.6440620 106.6575050  79.0529156
  48.7117147 107.3892021  78.2682371  22.6736004  29.8549508  33.3745913
  22.3930485  30.7585573  33.2296328  22.2953255  29.3664979  32.6434474
  31.1303122  24.8398113  46.8639998  31.1768086  24.3531322  46.0410742
  30.9765083  24.1698407  47.5301222  57.8473091 106.1434460  81.9920635
  56.9802761 106.5475368  81.9574261  57.7143240 105.2610588  81.6457367
  27.8121359  22.1036958   5.0329928  28.4635622  21.4025831   5.0509219
  27.3742706  22.0022392   4.1878848 101.4752072  21.1767710  62.4232149
 101.0523719  21.6125716  61.6832733 100.7610434  20.9949339  63.0340624
  19.1367228  76.9299077  22.6653151  18.9159615  76.0224771  22.4554019
  18.3503515  77.4263238  22.4385504  36.9895537  37.9495191   1.3014369
  37.6393969  38.6048173   1.0474352  37.2195894  37.1734857   0.7904772
  88.2705754   0.4440440  77.3944616  87.3833960   0.1165904  77.2463942
  88.8240165  -0.1034414  76.8375111  17.9074252  64.4870520  86.1297798
  17.7762365  63.7748289  86.7556858  18.7218654  64.2631721  85.6794453
 114.0504063  55.8277368  46.6256861 113.6350215  55.6388139  45.7842593
 114.8553741  55.3098726  46.6170363  36.2294626  87.8429413  58.0823517
  36.6732168  88.1178474  58.8846874  36.3452768  86.8930912  58.0579996
  30.0421555  55.3479623   4.1532378  29.7467262  54.5112085   4.5121150
  30.1539261  55.9110116   4.9192099  12.0920069  20.0573444  14.6380476
  12.6884682  20.7789850  14.4387965  12.5831301  19.5005178  15.2421717
 113.6145509  81.5735673  13.0505900 112.6739467  81.6313695  13.2183795
 113.9831364  82.3424386  13.4855895  50.9441645  40.1204061  28.8552527
  50.2440722  40.3808545  28.2566981  51.5973837  39.7039460  28.2930331
 115.8681882  24.4935941  30.4494051 115.9488690  25.2396631  31.0436301
 114.9352205  24.4548368  30.2389292  70.9835577 101.7017651  85.0245476
  70.3425169 101.9999790  84.3792820  71.4906311 101.0315609  84.5663548
  27.2238810  36.5847062  25.8218627  27.8824217  35.8917379  25.8703093
  26.7035610  36.4767312  26.6179995  10.3076727  57.8966378  52.3139910
  10.3302748  57.8961133  53.2709269   9.4229824  58.1895589  52.0954756
  74.6474880   4.5465888  88.7999916  75.3900236   3.9810599  88.5877419
  74.3146891   4.8341025  87.9498100 113.5665143  23.8980197  20.8189730
 113.3209288  24.4999646  20.1164202 112.7520836  23.4487962  21.0450987
  24.7438843  41.4785623  21.9444994  25.3492767  41.0598897  22.5564150
  23.8876564  41.4038896  22.3658423  61.1875409  48.4351004  75.1985359
  61.9827360  47.9631651  74.9512100  61.0198993  48.1652106  76.1014700
   8.3644468  77.7977895  11.1984114   8.8135178  76.9525575  11.2109904
   8.8930685  78.3411836  10.6140189  86.4403933   0.6962431  86.0578442
  86.2345523   0.6806887  86.9925213  85.6042880   0.5222739  85.6255341
  55.7379723 108.3128643  85.1731968  55.5400085 108.0240917  84.2823219
  56.6443920 108.0410480  85.3172302 103.7973731  16.3358891  65.6089878
 103.1670421  16.2249005  66.3207436 104.3525832  17.0624876  65.8918810
 100.1738196  49.9684811  78.4895229  99.5173591  49.5968580  77.9002953
 100.9804409  49.9775267  77.9742432   2.3669365  22.2030878  94.4437313
   1.6545026  21.6235733  94.7136116   3.0372697  21.6136551  94.0981102
  94.2252022  20.7137585  71.6355562  93.8614970  20.5341291  72.5025511
  93.6478120  20.2461934  71.0320377 110.2606105   6.6369742  78.4170532
 111.1648064   6.3978791  78.2133484 110.2679353   7.5934958  78.4523249
  56.8789369  97.7271138  10.3756766  56.8642968  98.1651030   9.5246844
  56.3937062  96.9141017  10.2349906  18.6709446  72.3539077   7.7585845
  18.2632417  73.1420372   8.1175475  19.1463524  72.6606189   6.9864707
  15.9879673  23.0506492  89.3797779  15.0920510  23.1971431  89.0762901
  15.8910096  22.7904510  90.2958202  48.3243120  86.3118397   6.4512972
  47.4301833  85.9724651   6.4911990  48.2202125  87.2341286   6.2172465
  41.6712517  62.7722953  27.9244666  42.4056781  63.1735800  28.3890395
  41.5975532  63.2750080  27.1132521  13.4466690  82.9964767  22.8969149
  13.9775986  82.6859914  22.1634726  13.1850475  83.8821517  22.6451830
  68.7654108  89.6948396   8.6553721  69.2493767  90.1648699   9.3344073
  69.1345924  88.8117610   8.6658911 113.5322362  19.3404174  86.1636734
 112.5999027  19.5444942  86.0906029 113.7656477  19.6022367  87.0542908
   9.0817446  23.6101151  82.5618458   8.5250467  23.6375141  83.3400249
   8.8354892  24.3894529  82.0636272  83.3700598   9.4517612  15.5971198
  82.6359228   9.6047544  16.1919837  83.1334150   8.6534356  15.1249842
  40.3004660  77.2413336  10.4001669  39.7565293  77.5049649   9.6579604
  40.2633979  76.2848578  10.3964858   3.6918363   3.2320610  81.3462353
   4.4918990   2.7346373  81.5156555   3.5880625   3.7888566  82.1178913
   9.7081727 106.6320000   7.6929526   9.2095727 107.0631610   8.3870272
   9.6580500 105.7000600   7.9055647  26.2514472   7.6040846  71.9051075
  26.4011669   6.7597675  72.3304844  25.4917765   7.4570239  71.3416338
  75.8926720  88.0605326  14.9009661  75.9902185  87.1979128  14.4977240
  76.6816968  88.1671511  15.4322867   0.6327521  74.1545105  79.0205574
  -0.3180544  74.0461588  79.0419626   0.7729206  75.0799608  79.2208815
   8.2332051  32.2582889  79.0951300   7.6764691  31.9486761  78.3806944
   7.6414204  32.3361778  79.8434353  38.4228867  90.9492646   3.0929236
  39.3673384  90.9728895   3.2468180  38.3298090  91.0969053   2.1517710
  66.3567370  73.4368549  17.0398955  67.1074695  73.0045305  17.4469904
  66.4942688  73.3207176  16.0997729 116.1401054  53.8289452  85.3004742
 116.2695336  54.2923355  84.4729805 116.9944231  53.8639641  85.7307625
  84.7676963  70.6059645  33.3561949  85.5391377  70.7242809  33.9103751
  84.5471066  71.4893721  33.0609660  36.6073579  75.6645237   2.8003459
  36.7112643  75.5012236   1.8629221  35.6938353  75.4438911   2.9820876
  15.7191801  35.4256463  51.8836546  15.7358420  35.6329083  50.9493113
  16.5526032  34.9836850  52.0458460   4.0715358  77.9819918  79.5659208
   4.5416081  78.2841349  80.3430748   3.3832520  78.6339378  79.4337749
  26.4750528  54.0588188  57.6053667  26.6031909  53.7740135  56.7005444
  27.3265743  54.4070292  57.8697300  14.7785985  32.5562215  66.6692686
  14.4157529  31.8216062  66.1743736  15.6389225  32.2500563  66.9562149
  91.7578715  95.4920111  11.1144499  91.5574855  94.7397672  10.5574851
  91.6002101  96.2527619  10.5553107  24.3135244  72.4307237   7.1172385
  24.6697062  71.9401930   6.3764624  25.0836450  72.7072368   7.6139121
  23.2953644  35.6819201  85.9328175  22.4162388  36.0471392  85.8329010
  23.5581470  35.9292626  86.8193817  29.6916819  11.7089236  78.3873081
  30.4386663  11.3174427  78.8400650  28.9828730  11.0761714  78.5032654
  41.9098810  75.4181014   8.5022120  41.3519897  74.9099050   9.0910487
  42.8010142  75.2377735   8.8015418  24.2305756  43.2400274  90.3841019
  23.9881301  43.3754587  89.4680691  24.6588373  42.3840380  90.3944778
  26.5658236  21.6362596  67.0333529  27.3236084  22.1545291  66.7624474
  26.9381714  20.8088112  67.3381805  34.2342499  68.4464227  33.5809187
  35.1147986  68.3674346  33.2140116  34.3764147  68.7083481  34.4905428
  50.8973611   3.9030837   9.3399100  50.4394162   3.9540338   8.5009150
  50.3877104   3.2762336   9.8532824  71.9988221  90.3646718  38.0184989
  72.1956557  90.7919370  37.1848731  72.3165935  89.4684015  37.9091792
  75.2928180  98.9751635  18.2143931  75.7592672  98.5768901  17.4795298
  74.3980950  98.6436759  18.1381087  56.3718659  93.5086547  24.3417124
  56.8641430  92.8541385  23.8462309  56.6869360  93.4153209  25.2407412
   2.9476821  38.9653349  81.2424564   3.7425175  38.6703730  81.6868210
   2.3706430  39.2532873  81.9497967  33.0868870  75.3498612  18.0771594
  32.6654279  76.1829840  18.2881312  33.5658199  75.5222426  17.2665171
   9.1321057  29.6539307  79.5798826   8.9362472  30.5769563  79.4189644
   9.8082656  29.6671224  80.2572823  56.0533619  29.9199629  85.2758217
  56.5586185  29.4184446  84.6359539  56.6820192  30.5409384  85.6438065
  19.9992907  47.4368763  75.7361555  20.3696871  46.6756678  75.2893829
  19.6429408  47.9781342  75.0316763  78.7954372  89.8775421  23.7990336
  78.9305419  89.9246774  22.8525881  79.3198842  90.5963264  24.1519312
  62.1357483  44.6323930   6.7023615  62.3054427  44.3592284   5.8007960
  61.1849612  44.7335742   6.7470316  39.9280182  93.3399902  23.5434298
  39.8553698  92.4695693  23.9349894  39.0409253  93.5443149  23.2475428
   2.9782355  18.8785875  73.0242300   2.5351727  18.1527400  73.4636307
   2.2918577  19.5320976  72.8899097 112.5432828  35.3800702  79.6383381
 113.1418508  34.8919058  79.0729713 112.8315997  36.2897539  79.5636320
  89.8316013 100.2975207  91.6502190  90.5700862 100.8748220  91.4563179
  89.1202318 100.6256514  91.1001968  64.5261264  15.3323554  31.2626414
  65.2333975  15.8053159  30.8241133  63.7989021  15.9544038  31.2834410
 114.9010422  28.2797885  68.1425095 115.8434218  28.4011173  68.0266142
 114.7465977  28.4730530  69.0671873 114.5091380  70.5378485  90.6919670
 113.7885853  70.2224779  90.1464558 115.2887134  70.4239607  90.1483440
  11.7176926  49.5986986  63.2685280  11.2812483  49.9504614  64.0444231
  12.0194077  50.3721523  62.7921152   5.1666504  14.8511481  95.3715897
   5.1687878  14.7698832  94.4178486   6.0884851  14.7820032  95.6199265
 109.0054488  15.3818941  68.0411720 109.0310794  14.4257009  68.0767965
 108.7099337  15.6461966  68.9124012 110.1624339  48.9076138  87.7086067
 110.7973939  49.1286993  88.3899117 110.6250858  49.0732527  86.8871689
  92.0307379  41.1866283  75.5525303  91.9370847  40.3563118  76.0194778
  92.6916795  41.0114813  74.8826694 110.6795126  45.5711985  73.5776091
 109.9766606  45.0484180  73.1916904 110.3825193  45.7504654  74.4697380
  66.0521144  94.5198427  16.9524245  65.4110164  95.2087317  17.1275286
  65.5344361  93.7157665  16.9111685  24.6666837  62.9315281  77.0696211
  24.4960237  63.7655163  76.6319323  25.1653266  63.1689692  77.8514242
  36.0735738  94.6107040  21.7320208  36.4444637  94.2174564  22.5219779
  36.8298876  94.9598442  21.2605147  45.6130505  40.0468397  83.9686394
  45.7953167  39.9356318  83.0355549  45.0364733  39.3152213  84.1889095
  67.4859137  79.5912634  18.7376074  68.3066100  79.6787177  18.2527976
  67.6187247  78.8261972  19.2973094  62.3980421  90.2560840  17.9377036
  61.8255371  89.7342716  17.3753981  61.8536300  90.4790984  18.6927561
  49.5401257  76.4538012   1.8056349  49.6262509  76.9267498   0.9779028
  49.2343408  75.5826412   1.5530257   2.4364428  40.3179169  71.7600060
   2.6721472  39.7305441  71.0419083   1.7952201  40.9174538  71.3784027
  32.7927470  81.4732776   1.4733748  32.0751763  81.1435209   2.0142893
  32.4024135  81.5992294   0.6085066  53.4965521  87.9581724  16.9923167
  53.1930632  87.4847494  17.7669100  54.4513637  87.9329215  17.0550017
   6.2635511  99.3160163  36.4111666   5.9414715  98.7019978  37.0710711
   6.6666311 100.0216161  36.9170146  47.0017600  85.4686724  15.3244452
  46.5466505  84.6763073  15.0393729  46.7940885  85.5421625  16.2559561
  18.0245578  57.3593092  72.6240969  18.1531906  58.3054113  72.6917553
  18.7862957  57.0484066  72.1348906  74.4620341  72.2120534  26.9266276
  74.6021289  72.1068106  27.8676466  75.2052921  71.7644928  26.5222888
 106.6706734  41.5843201  88.7402439 107.0847821  41.1130285  88.0173111
 106.8398720  42.5075388  88.5524273  43.5840818 106.2331448  24.0356116
  44.4630420 106.5403472  23.8136057  43.7176678 105.6374274  24.7728400
  52.7796680  97.0661412  12.1246295  52.3795539  97.9138718  11.9309954
  52.4877137  96.8607674  13.0127863   2.7965185  39.0692878  69.1256285
   1.9981895  39.0813160  68.5976553   3.3511204  39.7455740  68.7366724
  31.0593134  66.5575825  15.9287219  30.8919740  67.4995385  15.9595065
  30.4237402  66.1813842  16.5376143  61.8737603   6.3897800  -0.1586862
  61.0428727   6.3726901   0.3162531  62.2455478   5.5183362  -0.0223394
 115.1289833   6.3134145   4.8491721 115.1586497   5.7446622   4.0798430
 115.9241283   6.0984229   5.3367762  47.6283962 100.8547793   0.3261523
  47.5724781  99.8994504   0.3475432  46.7179400 101.1487208   0.3561072
  76.6295493  92.3123466  92.3592091  77.1436878  91.8646966  93.0311489
  75.7204633  92.1047508  92.5753021  62.3693079  57.3097497  21.0865931
  62.2695917  58.2435788  21.2716727  63.1205195  57.0397724  21.6148238
  90.1529991 106.8344407  56.1343002  90.0772058 107.0330535  55.2010059
  89.4781589 106.1747419  56.2943602  96.2873488  34.1466427  83.2689762
  96.9064599  33.5528064  83.6935806  96.3013535  34.9351764  83.8114262
  61.8682480  32.8903413  89.9932003  61.2134504  32.5030851  89.4122505
  61.9092560  32.2928429  90.7398987  37.7604980  98.6333762   3.4384398
  37.3354769  97.9463731   2.9250006  37.2024530  98.7362109   4.2093043
 109.1313177  89.8683643  85.0479794 109.7389787  90.3171062  85.6358624
 109.1356033  90.3970242  84.2500305  93.5893095   7.2082853  28.5814623
  93.2940698   6.2987613  28.5386328  93.9605368   7.2985124  29.4591193
  56.7510587  96.3381730   4.9063448  56.9280178  95.7160579   5.6119589
  55.8366114  96.5908395   5.0335364  28.8976669  54.8252392  72.1161556
  28.8195586  54.2083740  71.3884163  29.8176932  55.0892973  72.1086168
  36.5697803  96.8794404   1.5736441  37.3301697  96.4636765   1.1672263
  35.8169261  96.4794265   1.1384062  76.9798941  53.8562786  21.6871123
  77.8536314  53.5049198  21.8584685  77.1248287  54.7874976  21.5196089
  36.9049525  14.7324955  83.1896973  36.6194201  14.0296245  82.6060295
  36.2561989  14.7377849  83.8934898  61.5738148  97.4013100   1.4345030
  60.8946127  96.7397223   1.5657095  61.3002008  97.8726779   0.6476168
  98.1476360  36.5785193  86.6805267  98.5393387  35.7591319  86.3781929
  98.6757463  36.8313766  87.4377537  85.8177102  11.8398237   3.5996584
  84.9460072  12.1451568   3.8509230  86.1312461  11.3555335   4.3634562
  72.5794136 106.6352432  67.0718718  73.0832332 105.9517463  67.5137186
  72.5413322 107.3519888  67.7051640  50.0441092  70.4264282  31.2790732
  50.3759200  70.8540128  30.4895739  50.8218545  70.2817343  31.8179659
  18.5910118  14.2139661  85.8861446  17.6405394  14.1506839  85.9801197
  18.9116204  13.3375442  86.0990429  12.0489329  84.0500389  16.6192488
  12.0956630  84.1601859  17.5689463  12.9558271  84.1307913  16.3238577
 110.8883899  52.7936840  94.3341446 111.3409978  52.7817059  93.4908009
 110.5993163  51.8904209  94.4636822   3.8635004  46.5283966  91.3206196
   3.4295106  46.7363739  90.4931927   4.1194931  47.3790026  91.6772270
  28.0893016  61.1285448  73.0582094  27.8264499  60.8296919  73.9287424
  28.6456084  60.4260540  72.7216625  48.5755992  84.1863571  35.5702643
  49.1787607  83.4472333  35.4920058  49.0142614  84.9030433  35.1118235
 112.9479610  40.9854650  58.6154032 113.2456135  41.7217922  58.0811214
 112.1397048  41.2966061  59.0230179  92.7643741   3.7486314  35.3028159
  91.9590211   4.2201041  35.0898604  93.3765829   4.4316959  35.5764155
 101.0191888 109.4342862   3.2117037 100.4705638 109.5275460   2.4328951
 101.2262505 108.5004721   3.2483916 107.2303676  68.8564348  83.5513783
 107.3342567  69.0229893  82.6145172 108.0605107  69.1353989  83.9377403
  81.9971818  95.2685271  32.7203421  82.4149674  94.6220432  32.1513514
  82.5343341  95.2729855  33.5126071  44.7857922  99.6198855  22.3339228
  44.5263362  99.4358741  21.4311175  45.7074577  99.3647824  22.3749785
   3.0412379  59.7397995  49.7547579   2.9494971  60.4432058  49.1120815
   3.9312345  59.8388672  50.0928783  93.8908041   4.8789977  52.2276167
  94.5104623   4.5443439  52.8758864  93.3628834   5.5168771  52.7078681
 109.2023593  64.2845631  94.8315620 109.4834375  63.4522343  95.2116394
 109.1428297  64.8807716  95.5780411  81.1590117  61.3656793  19.3624548
  81.3591355  62.3017220  19.3648104  80.2892608  61.3057099  19.7576384
 106.4313620  36.6570163  76.7269754 105.8548539  37.0315194  77.3930264
 106.8501466  37.4149561  76.3190842  59.4692844 106.9453059  46.0433821
  59.2093915 106.8197070  45.1307349  59.5122093 106.0597668  46.4042334
   1.7636177  53.8504171  86.5184593   2.4822813  54.4726992  86.6303349
   2.1526200  52.9977560  86.7130852  39.3862861 103.9795600   6.8070178
  39.5834945 103.7764035   5.8926539  40.2006954 104.3454657   7.1521048
   3.4954789  36.9908786  89.8749447   3.3546036  37.3259234  90.7604599
   3.0048093  36.1694217  89.8487854 105.9799540   8.1875514   7.6141982
 105.0930608   8.2400846   7.9704241 106.1303819   7.2513675   7.4832015
  58.5533732  94.5825945  26.7804770  58.7517601  95.3709756  27.2857813
  59.2088980  94.5738660  26.0830264  32.4792147  52.4047327  80.4385471
  31.7916489  52.3504210  81.1022758  33.2955432  52.3285627  80.9325504
   6.9836086  70.0176144  93.4226894   6.5975529  70.3172207  92.5996304
   6.2733865  70.0891781  94.0604210  63.5488886  95.7371198  11.4825968
  64.4071049  95.6063567  11.0793547  63.6841124  96.4489327  12.1081118
  26.3499052   2.8714370   9.5612387  26.2433273   3.7986850   9.3489222
  25.4731114   2.5809049   9.8123412  35.1832766  94.5596562  28.8701586
  35.4562003  93.7799607  29.3537097  35.9267891  94.7617064  28.3021788
  66.2828172   2.4954366  23.2645659  66.8945015   1.7740583  23.4118323
  66.6769767   3.2401752  23.7186865  66.0189844  16.2060308  18.7140994
  65.1193345  16.2459420  18.3896403  65.9311474  16.2283277  19.6670012
  75.5397600  82.7382503  25.2104334  75.9269351  83.1841384  24.4570975
  76.0561413  83.0390178  25.9581713  26.6876698   7.6349717  80.9438992
  26.2303472   7.8196722  81.7642498  26.2680984   8.2074273  80.3016472
  44.1454363  48.8344908  83.3685589  44.2205524  48.3547068  84.1934204
  43.2930374  49.2669535  83.4197807  40.4722323  97.3279916   3.4478526
  39.5613353  97.6085625   3.3596568  40.4775183  96.7732154   4.2278723
  22.9965527  12.1657848   5.6122546  22.3111660  12.4970531   6.1925463
  23.7048943  12.8050136   5.6888918 116.4126825 106.4834414  28.9147334
 117.2636914 106.1360608  29.1818385 115.8048319 106.1688386  29.5838980
  25.4279822  79.1888367  18.1948714  24.8226112  79.9008332  18.4017996
  26.2880939  79.5249139  18.4468512 103.2229155  67.5354147  71.0341835
 103.0071336  67.7746534  70.1328325 104.1702681  67.6584148  71.0943842
   3.1805858  78.6590862  69.0498447   2.5914684  77.9884672  68.7042379
   3.3464602  78.3896637  69.9532461  64.8825282  82.8218041   0.5575423
  65.0313133  83.2182108   1.4160113  65.7105392  82.3906289   0.3460745
  69.3186373  84.2652093  24.0392642  69.0329951  83.6726509  24.7346072
  70.2564520  84.3800817  24.1926913  11.7990637  71.9914770  80.4871368
  11.6062009  71.6005421  79.6349573  12.1945047  71.2812185  80.9924984
  92.5658083   4.2717122  55.5390124  92.7620209   4.4842624  56.4514594
  92.2522652   5.0944709  55.1635222 113.2759226  13.3550977   9.6321063
 112.5440777  13.3113717  10.2475123 113.3441103  14.2828464   9.4065718
  44.0972006  99.0434514  25.5212168  44.7405631  99.7109423  25.7594828
  44.5829696  98.4276162  24.9725775  85.7340432   0.7941627  31.3694434
  85.7718909   1.4548444  30.6778483  85.5301023  -0.0210095  30.9110503
  26.2132043  91.0095106  15.4840235  25.3963524  90.7894431  15.9318594
  26.8361992  90.3471218  15.7829337   5.1173556  29.0184712  82.2068024
   5.9500766  29.4885015  82.2501278   4.4547662  29.7081709  82.1678066
  13.9556200   0.9727382  28.3015399  13.9343865   0.2353954  27.6915316
  13.3579476   0.7190275  29.0048460  10.8380246  59.4293404  76.1608124
  11.1910629  60.2769613  75.8903742  11.5928507  58.8408375  76.1494112
 100.9142173  16.0070943  20.1760916 101.4868224  16.4076041  19.5219187
 101.4780414  15.8728360  20.9378771  26.3770556  51.3041306  94.0818882
  26.9644213  52.0525074  93.9762402  26.9101906  50.5457115  93.8435650
  51.7834264 106.1410104  27.7291922  51.3068718 106.7739831  27.1920924
  52.3736984 106.6746484  28.2611994  29.5306921  45.3102970  93.8424683
  29.4545054  44.5979881  94.4773197  28.6271000  45.5743313  93.6691570
  70.4234380 103.9817296  42.8844504  70.0521010 103.1014739  42.9435782
  71.0309810 104.0354405  43.6221747  61.1292434  18.3588695  16.3154559
  60.5696154  18.4757804  15.5477480  61.9019473  17.9032516  15.9814314
  32.3507476  58.1301212  67.7377987  31.8576884  58.2137299  66.9216299
  32.2318792  57.2163534  67.9968977  82.9772263  39.8557472  77.5190783
  82.7330261  40.6797361  77.0976019  83.3036953  39.3087983  76.8045855
  65.3762639   3.6477613   9.8574690  64.5040131   3.5073137   9.4891219
  65.5182755   4.5914935   9.7837595  58.5600549  91.9007622  23.5340552
  59.0460724  91.2191830  23.9982371  59.2196435  92.3441635  23.0006079
  82.1676767   8.2674121   8.9461379  82.7555845   8.7059736   8.3311038
  81.6488263   7.6758432   8.4010939  96.3223571 107.1067105  33.8913588
  97.0624560 107.2166072  33.2943587  95.9489602 107.9841958  33.9740138
  22.0700145  57.3191595  86.8668652  22.1149945  58.0446672  87.4896336
  22.5665307  56.6147757  87.2834492  53.6066741  81.9116793  24.5670943
  53.6470157  82.0674883  23.6235194  53.8884801  82.7384291  24.9586348
  57.4321383  87.8278647  35.0139098  56.8979579  87.8925072  34.2222647
  56.8815404  88.1957756  35.7050852  67.7507198   6.5031099   6.4671568
  68.2916427   6.0952138   7.1433596  67.5279534   7.3625945   6.8247656
  35.5824587  81.3264070   1.6234545  35.8700118  81.9824253   0.9884886
  34.6267814  81.3765751   1.6035513  50.3615683 108.1560098  11.0944800
  50.6807858 108.6629163  10.3478961  50.8220452 108.5242949  11.8485026
  84.1415984  10.3330612   1.8060355  84.5470405  10.8190345   2.5241427
  83.5158968   9.7493839   2.2350459  20.8134127  56.7625093  76.8704414
  21.1502862  57.4527740  76.2992287  21.4838386  56.0798883  76.8422937
   2.3336338  43.9205027  88.1647778   1.4175487  43.7682104  88.3967876
   2.8029886  43.8712645  88.9975548  19.4861817  15.0820017  75.9680939
  20.2277970  15.0764656  76.5732431  19.4863617  15.9643805  75.5970955
 113.3749085  46.1947346  72.6633120 113.4552752  46.8067122  73.3949232
 112.4464860  45.9624147  72.6462698 107.3184311  59.0043974  49.3296385
 108.1121498  58.6698532  49.7471571 107.2536021  58.5135174  48.5104513
  94.8091369  66.9843674  89.2145252  95.3788357  66.7446566  88.4836292
  93.9964824  66.5054560  89.0518475  65.6715125 110.0600777  10.1422934
  64.9835295 110.3686343   9.5526270  65.3556293 109.2128144  10.4562907
  12.5171506  80.6179810  86.3089466  13.2374597  81.0075283  85.8133316
  12.5146437  79.6979618  86.0447598 107.8819066  58.4916353  86.0536671
 107.0639854  58.8726187  86.3731766 108.5519474  58.8304615  86.6473579
 112.3409665  13.2437181  13.7675337 112.1112001  12.8041314  12.9488711
 112.1224678  14.1631126  13.6152224  78.4218258   6.1820077   1.4758162
  77.6235557   6.1263990   2.0010809  78.3199727   6.9881772   0.9699015
  54.5678193 107.4398671  19.9890284  54.4914514 106.6952716  19.3923907
  53.6641246 107.7106772  20.1509909  89.5627135  89.2035018  45.4437594
  88.6303204  89.2648183  45.6514124  89.9061269  88.5661088  46.0698752
  11.8248510  36.2533998  73.7762737  11.0313892  36.2568474  73.2408857
  12.5257683  36.0289288  73.1642580   9.9645121  20.0095033  39.8073344
   9.2761929  19.5786332  39.3005805  10.4379112  19.2913579  40.2273325
  26.3288927  30.7610679  61.9569397  26.3934088  30.2041674  62.7327824
  25.7799602  31.4947510  62.2337246  41.1888477  91.5812264  35.0241332
  41.2695229  92.5247250  34.8843722  40.5475265  91.4976035  35.7297854
  14.4985616  27.8780532  83.2054424  14.7998035  26.9703960  83.2459450
  14.1795003  27.9847598  82.3093128  52.7553278  94.3949996   3.5614733
  53.5022253  93.8068138   3.4500651  52.2974950  94.3625150   2.7214961
  49.7795040 109.4503461  21.7857699  49.2216426 108.8909016  22.3261885
  49.5758635 110.3404961  22.0728163   2.9680943  44.7784281  95.0006104
   3.7339455  45.0084448  94.4744968   2.9291943  45.4557419  95.6758595
  84.3152541  99.0232526  17.0115237  83.9619750  99.7579013  17.5132422
  83.8121051  99.0253363  16.1972384  20.4207659  73.1814623  76.8020964
  20.2825809  73.1458426  77.7486038  20.0010514  72.3883963  76.4687538
  97.3883539  73.2819748  80.9232712  98.2127422  73.4563875  81.3773632
  96.7143803  73.6242199  81.5105247  13.7849414  40.9269190  84.6787643
  14.7116792  40.7742023  84.8633289  13.3211875  40.3753233  85.3087711
  44.6484631  83.0137406  27.2420744  44.7413469  83.9293848  27.5051360
  44.1407943  82.6122580  27.9472880  66.0030383  83.9144884   2.8240733
  65.4417104  84.1689573   3.5564570  66.6499919  84.6172820   2.7627043
  24.2013955  66.3389540  86.4396095  23.8352847  66.4251852  85.5594063
  24.1126871  65.4084444  86.6458035  30.0991423  21.3577365  19.3570094
  29.9345905  22.2952985  19.4576506  29.2335302  20.9543227  19.4218401
  33.8395524  46.9991493  88.7621117  33.9425063  46.1803532  89.2471027
  33.5478878  47.6314783  89.4188595 110.7621706  36.7955446   9.8458247
 110.8175886  36.7632722   8.8907771 111.5093720  36.2784433  10.1467089
   8.7138700  26.7989612  66.5525293   7.8347951  26.9233751  66.9102716
   8.5672599  26.4643812  65.6677723  72.3728246  69.7854589   7.5109725
  73.2116097  69.4419466   7.2032885  72.3624343  70.6948636   7.2124629
  23.4073466  75.2182685  20.7941679  22.7142281  75.8345853  21.0307555
  24.1891593  75.7622062  20.6986002  39.6643962 108.4499417  35.6407218
  40.3461546 108.0817090  35.0787215  39.1884346 109.0567170  35.0737051
 105.4984456  94.9542522  77.4277878 104.7525507  94.5771027  77.8942966
 106.1988598  94.9831200  78.0795670   0.3247959   7.0237445  38.0636839
   0.0251300   6.5555000  37.2844653   0.6158359   7.8742837  37.7348761
  69.8242039  89.7986804  14.0389018  68.9517325  89.8651515  14.4269900
  69.8957604  88.8840996  13.7656741  44.8510313  33.9842892  94.4383907
  45.1315737  33.0863523  94.2616558  43.9608145  33.8945317  94.7785282
  69.0086079  54.9902296  90.5264664  69.9656534  54.9948788  90.5428600
  68.7727833  54.0636349  90.5716038  13.4614098  11.1401057  71.1956358
  13.6138654  11.5124798  72.0641565  12.8738141  10.4007959  71.3517904
  54.4381571  37.3450661  89.1618824  54.2981339  38.2654119  88.9391994
  54.8132133  36.9612432  88.3692646  12.6526749  34.3658352  85.9972763
  12.7181435  34.3822312  85.0424576  12.6418757  35.2883220  86.2524891
  66.7013902  92.6610909  13.2404284  66.9204968  93.3797704  12.6473670
  66.9489259  92.9821621  14.1075282  22.9432631  49.8839855  75.8185959
  23.1814647  50.7928658  76.0014296  22.8586221  49.4801760  76.6823101
  95.8844614   1.1006879  17.2577147  95.9989727   1.9790649  17.6204447
  95.7290769   0.5446529  18.0211977  60.1580352  79.7713099  17.3928217
  60.4686850  80.6118308  17.7293543  60.6459397  79.1176616  17.8937487
 112.4252319  45.8069992  83.9493752 112.8152286  45.2609682  83.2667446
 113.0973371  46.4590788  84.1476154  78.6383646   2.0319318   8.6605982
  79.4831744   2.1639060   8.2303481  78.7005779   2.5378274   9.4708018
   6.7965090  58.9826918  79.2018795   6.7304456  59.6601248  79.8748970
   5.8887529  58.7831211  78.9730120  17.6940978  69.1049528  94.7039413
  16.7440987  68.9917707  94.7343540  17.8600574  69.5087004  93.8520813
   3.3683807  60.9612989  94.7783470   3.6454406  61.5705824  94.0940571
   3.1883118  60.1443863  94.3130875  45.8491695  76.2910615   1.1401515
  45.2893084  75.7105313   0.6246142  46.5092951  76.6002665   0.5197768
 110.6968850 106.5610801  35.2167658 110.7567138 107.3888694  34.7398810
 109.7691649 106.3286219  35.1776080  80.8999604  50.7633163  20.5864577
  81.5123576  50.7493155  19.8509268  80.9160775  49.8694931  20.9285883
  50.8321947  95.9539138  26.4704089  50.4823572  95.6368361  25.6377558
  51.7692775  95.7642327  26.4242606  17.9739738  61.6671228  87.3699093
  18.8715124  61.3389206  87.3157310  17.4622941  60.9165525  87.6716709
  42.5441992  97.7942239   5.5556159  42.7819118  96.9148265   5.2617125
  42.5488678  98.3228741   4.7576479  36.4267889  97.4601565   8.5302023
  36.3481748  97.8941451   7.6806693  36.7219348  98.1496201   9.1249804
   5.4525959  23.2180524  93.5483742   5.2689749  23.7050128  92.7450180
   5.2885628  22.3038173  93.3170795   8.8285720  71.5492678  83.0348301
   9.6245396  72.0645809  83.1656647   9.1376495  70.6466722  82.9572010
  61.5700334  59.9015508  21.4194254  61.2096757  60.0805567  20.5509047
  61.9738501  60.7274257  21.6860632  78.5902338  28.1769895   6.4395861
  78.6534316  27.6365995   5.6520514  78.9405726  29.0276098   6.1751418
  46.4641965  89.4518433  28.0794386  47.0734275  88.7347160  28.2549243
  45.9954804  89.5753275  28.9048342  35.8383650  98.8476096  14.4295268
  34.8952273  98.8670884  14.2672209  36.1115888  99.7626553  14.3642001
  25.7499027  52.3256922  82.2575951  26.3482690  52.1058702  82.9716492
  25.8545136  53.2698011  82.1395111  27.3387623  65.7828760  79.0524817
  26.8911505  65.6556416  78.2160091  27.7298951  66.6538858  78.9847708
  72.2450894  97.3586903   7.2976164  72.4150628  98.2916747   7.4275641
  72.7580017  96.9245683   7.9793028 109.4820583  15.1005124  20.2673583
 109.4207776  14.2293977  19.8753981 110.2623880  15.0600242  20.8202414
   6.5538585  23.1200266  88.9453793   6.1460090  23.6903000  88.2937050
   7.2777325  23.6380053  89.2974281  94.3676477  57.5360441  86.3445663
  93.5275655  57.8039551  86.7170143  94.9933844  57.6473904  87.0603180
 110.5602544  44.2604542  88.4572601 110.0668531  44.8989630  88.9721298
 109.9043792  43.8475657  87.8954983  44.7269058  81.2763558  30.7013659
  45.0081933  82.1691070  30.9016375  44.6131146  80.8633838  31.5573649
  31.9227815  86.3747883  52.8335667  32.6082826  86.3521576  52.1658802
  32.2381234  85.7876015  53.5205936  13.6506581   7.5772494  95.0714493
  14.2622590   8.3101261  95.1426411  13.1366169   7.7695882  94.2872238
  65.3475923  89.1392742   2.2346739  65.6591171  89.9917994   2.5386290
  64.9639195  88.7333976   3.0120329  85.6470609  27.4251603  13.2262377
  85.5712879  27.9184293  12.4094347  86.3761211  27.8383588  13.6888175
  38.3689037  98.4045707  10.2463774  39.1843422  98.7612258  10.5986361
  38.2626878  97.5642358  10.6922392  40.7105659 102.7660237  10.4762892
  40.7841176 101.9856749   9.9268488  41.3782823 102.6471625  11.1517577
  65.6321067  38.8753365  11.3352541  66.4691013  39.2098783  11.6573672
  65.3611249  39.5082734  10.6702857  39.5972538  45.5751419  88.2138062
  39.8174024  45.8449745  89.1054058  39.3104720  46.3807392  87.7836800
  94.0877408  98.1882106   6.6226630  94.8518342  97.6305400   6.7689375
  93.6263055  97.7755843   5.8925681  45.3755236  78.2140970  86.5468121
  45.0108910  77.7621031  87.3077202  46.3224459  78.1891060  86.6844368
  39.7102045  85.4332791  10.4304175  39.8920225  86.2876688  10.8218150
  40.5598906  85.1311336  10.1095252  57.6120752 100.2549039  37.0509486
  58.0724913 101.0895882  36.9640307  58.1549746  99.7432195  37.6506762
  23.2639790  27.2620606  88.6293030  22.4733686  26.8058634  88.3411217
  23.6928654  26.6460824  89.2233276  87.9412228  11.4037704   2.2221808
  87.7387297  11.7047166   1.3363699  87.2062248  11.7104196   2.7531962
  77.1789318  28.7513423  91.6693020  76.4512115  28.9353704  92.2632599
  76.8230491  28.9163256  90.7961750  79.6851558 106.8057214  14.4568972
  78.7743181 106.5306245  14.5614581  79.6307820 107.6464282  14.0024905
   1.6602499  40.8894872  18.5339217   1.8350584  40.0395345  18.1298880
   0.7565887  41.0894632  18.2897143 105.5743897  32.6171922   4.2309241
 105.0426567  33.2501649   3.7484030 105.2403772  31.7637777   3.9546160
  14.1438526 110.6011163  24.9196391  14.8855466 110.0584470  25.1872782
  13.6604041 110.0564585  24.2984633  44.8309982  85.8137642  27.7302317
  44.2423588  86.5497647  27.5627856  45.5363864  86.1867176  28.2589678
  31.2415201  85.1715670  20.1076941  30.5778182  84.9677859  19.4487528
  31.3178343  84.3707286  20.6264166  64.6788186 103.4312545   4.4059519
  65.6114215 103.4969865   4.6112875  64.6211595 103.6596690   3.4781985
  23.9881403   8.1654596  11.3331561  23.7586863   9.0259551  11.6840510
  24.3865568   8.3519506  10.4830222   2.6736719  28.0009507  26.1212973
   3.3176024  27.7864408  26.7962603   2.7617485  28.9460801  25.9979682
  93.3003587  89.1259442  22.8166632  93.8035029  88.7284075  22.1060042
  92.7906245  89.8161064  22.3923068  13.6757255  42.9180717  95.4929829
  13.5706997  42.6312971  94.5858097  14.5496130  43.3076143  95.5213928
 115.4267568  98.0899440   9.5213751 115.5079717  97.4942981   8.7764983
 115.1270026  98.9139853   9.1375308  53.6021668  95.3648721  27.1555762
  53.3661074  96.1428796  27.6607661  54.1421110  95.6991015  26.4393477
  60.9564847  90.7618581  20.2535586  61.8057794  90.7086812  20.6918578
  60.9335464  91.6436706  19.8819212  18.0666614  58.1679249  89.7172737
  18.4479272  57.5664186  89.0777016  18.7367022  58.8397837  89.8432922
  44.4328290  98.2907687  46.5985827  43.4948987  98.4754000  46.5492968
  44.7015816  98.6410485  47.4478869  12.7890027  32.3894382  74.3629551
  11.8459928  32.2327542  74.3138361  13.0676377  32.4618340  73.4500742
  51.7043251  75.9284697  18.3782248  52.0817810  76.7479907  18.0586295
  52.3217303  75.6236707  19.0431647  98.1470239   0.9300041  21.6312556
  98.4996379   0.9244680  20.7413916  98.8901866   1.1765861  22.1818404
  48.4833723  84.2074095   8.2697920  48.5438591  84.6054016   7.4013667
  49.3623537  83.8686930   8.4397845 100.8890570   0.2113008   2.5472502
 100.3943980   0.5623483   3.2877306 101.7952383   0.4647493   2.7228312
  17.6106352  15.3792704  67.5420380  17.9767698  14.8081244  66.8667841
  16.7515248  15.0032462  67.7337837 114.8147425  71.1713934  76.4502811
 114.4520296  70.8080101  75.6424284 114.9960899  72.0875597  76.2405396
  20.6279135  72.5518465  90.3453445  19.8932827  73.0614853  90.6871319
  20.5376434  72.6097727  89.3941784   3.7483281  44.7565889  74.6370506
   3.4082931  44.7280025  75.5313587   3.5653096  43.8861942  74.2832851
  42.6580524  51.6165066  90.5183411  43.4086370  51.6585255  91.1108780
  42.3299885  50.7220078  90.6104374   8.9150936  13.1285714   3.9287238
   9.1593773  13.6813115   4.6710448   9.0842802  12.2356128   4.2291121
  56.6627461 107.2317801   8.4534220  57.3341078 106.5956698   8.2067065
  56.5605003 107.7847110   7.6787905  99.6849382  18.9579105   2.1320109
 100.2974260  18.7992381   2.8502898  99.9881161  19.7742414   1.7346339
 108.2446158   4.7179317   9.2380576 108.0693925   4.0001439   9.8465876
 107.5314153   4.6716165   8.6013274  73.4370297  93.5812674   1.7913680
  73.0268806  94.4430362   1.7181353  73.5016102  93.4260498   2.7336936
   8.2175118  36.4491534  80.4770660   8.2305491  35.9232497  79.6773911
   7.6901203  37.2153783  80.2512550  71.1729819  22.1197891  42.4399142
  70.7170296  21.3053226  42.6520113  71.9272268  21.8434715  41.9193415
  39.6748814  61.2375627   4.2437796  39.1245900  61.5206353   4.9740462
  40.5583015  61.5127598   4.4888644  12.3170292  37.9991770  82.3255157
  11.6438520  37.4230361  81.9634056  11.8651223  38.4968376  83.0069447
  10.3159487  68.5437441  44.5275831  10.8052611  68.9029360  45.2677107
   9.4395041  68.3809566  44.8762608  32.5792778  84.1054164  27.0937113
  32.7109271  85.0511561  27.0267920  31.8923825  83.9134537  26.4553027
 112.8506398  67.1573591  83.2001877 112.3960241  67.0708466  82.3622894
 113.2212179  66.2898207  83.3623028  66.6082305  94.1009866   9.7202544
  67.4405164  94.2772566   9.2815451  66.7156905  94.4723330  10.5959181
  30.9895785  13.1016683   3.9977698  31.3337786  13.9279794   4.3368487
  31.7387945  12.6880788   3.5689883 104.3490141  79.2872620  91.5439796
 105.0394195  78.8344240  92.0282364 103.5376507  78.8777971  91.8444061
  74.8977107 106.8233214  17.3662047  74.0151590 106.4744674  17.4912600
  74.9597925 107.5469600  17.9896788  30.2237177  63.4137678  83.7109089
  30.4800200  62.8543091  84.4440842  30.6031847  64.2679453  83.9173508
  76.5796274 109.6631347   8.1092791  75.9755773 109.0896569   7.6376013
  77.4162120 109.1984378   8.0889563  86.4720565  54.9607754  78.4326649
  86.3345605  54.4907236  79.2550850  86.9228345  54.3314934  77.8696012
  77.9620551  10.9307431  20.3545050  77.0801451  10.7412814  20.0342421
  77.8975268  11.8096685  20.7280879 107.4177397  32.9610204  28.7788538
 107.7806533  33.3081960  29.5937113 106.4702356  32.9734849  28.9141898
  77.7694792 102.3767529  15.2247576  76.8887967 102.1791278  15.5434756
  77.8799647 103.3128749  15.3911929  44.9748534 109.1944609  24.0825800
  45.2936918 109.6752749  24.8463778  44.6363342 109.8719703  23.4972434
  16.5094006  38.6710811  85.3534222  16.1533761  38.2483840  84.5718861
  16.6462600  39.5816469  85.0919437  55.8907604  64.5999527  89.8066807
  56.6491890  64.7828674  89.2521000  55.1791239  65.1051378  89.4134998
  60.3590513  18.0895995   2.2440390  60.4158318  18.0459260   3.1985526
  60.3456283  17.1747493   1.9627909  13.8472199  26.5046906  86.5449715
  13.9405227  27.4492645  86.4212513  14.6948659  26.2233496  86.8893147
  27.5080085  45.9895802  84.1587543  28.2986212  45.9471083  84.6966743
  26.8810582  46.4776611  84.6925545  89.4374514   8.6738967   6.1449961
  89.7250510   8.9054584   5.2618842  89.3074465   7.7260827   6.1137347
  66.3234347  77.6433121  33.5336451  66.5988869  78.3927594  34.0615515
  65.7727641  77.1258984  34.1212420   1.9250192  69.5549583  43.1269932
   1.0818300  69.4974232  42.6776028   2.4972211  70.0055170  42.5058556
  55.2699995  67.2769260  86.6070175  55.2449656  68.1034994  87.0890808
  54.8278141  67.4685049  85.7799721  43.2022381  58.5188627  65.8628798
  43.6091089  59.1738367  65.2956963  42.2694731  58.5668850  65.6534195
  68.4062976  77.3986851  38.2693343  68.0700034  78.2755552  38.0843215
  67.9006475  77.1030484  39.0264086  83.4432811 102.8714095  28.0774550
  83.4000176 103.2593451  27.2034602  82.5294179 102.7989493  28.3528380
  74.8983273   4.8549556   8.3913474  74.5739186   4.0631723   8.8203768
  75.3330130   5.3447055   9.0895133  41.0724497  81.4754486  95.0093651
  40.3435564  82.0942593  94.9644375  41.7748356  81.9634914  95.4391289
  54.8443317  54.2662430  77.8006077  54.5876265  54.1348267  78.7133312
  54.7208166  55.2033567  77.6496124  87.0923329  17.5837230   6.9260077
  86.7374349  16.8672132   7.4522166  87.5785566  17.1485471   6.2256960
  50.3382969  74.6240616  79.3481779  50.8544111  74.0291548  78.8041735
  49.8808575  74.0504265  79.9629307 107.7014816   6.3029384  27.8878169
 106.7698419   6.3845825  27.6838259 107.8045857   6.7586898  28.7232165
  33.6207533  90.0503445  82.2011566  33.9801526  89.5430946  82.9289913
  33.9242148  89.5925045  81.4172363  42.3337740  69.0750085   5.3361945
  42.8671268  68.3772419   5.7168440  41.6514468  68.6151992   4.8470740
 114.7562383  68.8490772  84.8298168 113.9870959  68.2969999  84.6888924
 114.4249519  69.7442389  84.7579288  65.4448318  64.0144777  88.7477398
  64.5418835  63.7350512  88.8988590  65.9553623  63.5400629  89.4038773
  29.8289394  75.8710384  73.9342880  30.4845357  76.2306070  74.5318985
  29.3718815  75.2076292  74.4512177  19.1414005  30.8836316   4.5161776
  18.8092310  31.4617395   5.2029757  19.5344145  30.1504182   4.9896388
  65.2166605  16.5147685   4.7063403  65.9929264  16.8824243   4.2838721
  65.0004959  17.1412467   5.3970103  79.4550255  22.0631217   5.5799155
  79.2955634  21.4753150   6.3183455  79.5653151  21.4798784   4.8289828
  39.5959592  59.3955660  87.9521942  38.7434101  59.7599840  87.7143002
  40.2287197  60.0406456  87.6364040  38.6090851  81.1964989  57.5929880
  38.2284307  80.4051113  57.9738188  39.5045733  81.2178612  57.9304409
 110.4446137   8.2982301  14.0788321 109.9098313   8.5121297  14.8433451
 110.1343692   8.8925647  13.3956484  38.0413640 104.3502532  16.8892340
  37.8618261 104.2831527  15.9514288  38.8230989 104.8998414  16.9447188
  17.8485525  33.5278964  89.2931747  17.0946240  34.0323877  88.9876938
  18.5995126  34.0999985  89.1350842  11.6724002  65.5420971  72.0594931
  11.1678028  64.7601938  72.2836399  12.3959649  65.2151108  71.5249205
  43.2708073  63.1845760  79.5786667  42.4677181  63.1809187  80.0995064
  43.5013008  62.2600365  79.4873953  24.5406008  74.0832710  60.1308298
  24.3240380  73.3025885  59.6210623  25.0182819  74.6437263  59.5193195
 103.0489844 110.0321208  12.5475745 102.3559970 110.0059949  11.8877844
 103.6512155 109.3340646  12.2901587  18.0841184  68.3089495  77.1133947
  17.7229369  69.1265106  76.7707872  17.3173177  67.7644110  77.2915030
  64.3606758  56.0620022  80.9018230  64.3953943  55.2241325  80.4403019
  63.5036278  56.0653210  81.3280773  22.1227813  99.4540119  86.3163853
  22.0506907 100.3165722  85.9076977  23.0480480  99.3756294  86.5487003
   7.0102389   7.0874786  13.2451205   7.4076445   6.2210178  13.3320288
   7.0253212   7.4479245  14.1317324  36.6183281  68.2339001  55.3840446
  36.1437702  68.8967371  54.8823738  37.2560716  67.8768253  54.7659731
   0.1591255  95.4402447  84.5464230   0.2417858  96.2968445  84.1273308
  -0.3687520  95.6057167  85.3275681  16.5073550  43.2781887  75.6601048
  17.1495688  43.5348082  74.9983311  16.0757422  42.5085211  75.2892256
   0.5159886   7.0589589   6.7138056   0.2891261   7.9301500   6.3885455
   1.2345822   6.7724656   6.1500887  57.2008664  98.9401446   4.9571852
  58.1224924  99.1983901   4.9451022  57.2006029  98.0383263   4.6363120
  80.6874332  19.1261482   1.3057761  81.0122794  18.8134479   0.4614310
  80.9781123  18.4650134   1.9339804  38.8341641  56.8978500  88.4464550
  38.7685108  56.8218040  89.3983650  39.2143512  57.7641916  88.3010483
   7.5008757  46.7639112   4.1981844   7.7842314  46.1957692   3.4818415
   6.6018326  46.4900827   4.3797736  37.5925499  96.0534964   5.3423552
  37.4961639  95.1871644   4.9468760  38.5142333  96.0995494   5.5965476
  97.3650349  28.9722490  40.7481150  97.1222985  29.6542787  40.1218943
  96.9611526  28.1758355  40.4033808  59.8690814  92.2879086  33.5857062
  59.9739450  93.0091487  34.2062335  59.3655533  91.6303550  34.0656142
  97.1150655 109.7610913   0.3246741  96.7699212 110.0599776  -0.5166193
  98.0169553 110.0813351   0.3409533  98.4417146  66.3680744  49.5363998
  99.0359514  66.9657230  49.9901962  97.5717061  66.7405081  49.6799612
  41.1858034  69.0083027  93.0538368  40.9190607  68.0893993  93.0273247
  40.6437159  69.3953180  93.7412930 110.6341046  85.3583895   7.0841555
 110.0958747  84.8018823   6.5212683 110.7864493  84.8303328   7.8678565
   3.1656105  12.2559261   1.0456233   2.4870093  12.8269672   1.4056830
   3.9225275  12.8294753   0.9258132  47.9014427 104.7802411   4.7565226
  48.6375052 104.1827594   4.8886351  48.2768846 105.6527100   4.8751788
  35.8668336  72.9362772  19.5353846  35.3645942  73.7154554  19.7738604
  35.3551215  72.5254880  18.8385157  37.8282404  95.2719402  73.0920696
  36.9114685  95.5458450  73.1192017  38.2452512  95.8901405  72.4919319
  56.7597550 103.4165059  44.9386076  56.8306798 104.2438136  45.4147963
  55.9891111 102.9898511  45.3131918  94.3687219  84.3483792  15.0251822
  94.7501344  84.5262347  15.8849101  93.5269040  83.9353190  15.2174429
 107.7310145  22.7950858  14.6680407 108.3724821  22.9507112  15.3612380
 106.9539893  22.4770688  15.1277403  26.6935444  66.4985275  58.2410669
  26.6268349  67.0311832  57.4485636  26.4547133  65.6160879  57.9573536
  63.4839773  74.1435385  89.3710709  64.2339563  74.6840143  89.1227627
  63.3526802  73.5586929  88.6247826 111.9916737  16.5149116   6.0795931
 111.7672193  15.5884551   5.9928183 112.4845159  16.7174434   5.2844004
  68.5962957 107.9890834   9.8304228  67.9531592 107.5406514   9.2813162
  68.5169524 108.9115487   9.5875315  57.8666192  75.7457720   6.1065440
  58.6446566  75.2927218   5.7815222  57.1996874  75.5854164   5.4389147
  90.4898930  23.7031125   5.0547175  89.8213721  23.2720374   5.5871443
  91.0324419  22.9866361   4.7252612  37.5441098  82.5576496  69.9595833
  37.9395342  82.1243858  69.2031765  36.6915321  82.1341610  70.0595522
  26.7808795  39.3714738  87.5274658  27.5453568  39.8331285  87.8719616
  26.4870381  39.9098444  86.7925835 114.1124474  69.4821405  63.6440229
 114.9825075  69.1309881  63.8335466 114.1655674  69.7757578  62.7345181
   6.7635989  47.5552845  91.4856052   6.0237181  47.9262877  91.9664001
   7.3443687  47.2141504  92.1657276  15.7572258  67.0612097  77.8428173
  15.4585779  67.7163410  78.4735632  14.9526286  66.7222834  77.4504089
  17.2005975  47.0827341  73.8508320  17.7954221  47.8005123  73.6335611
  16.5634561  47.0751095  73.1365347   1.1786202  58.3982086  44.4017792
   1.9191834  57.7964592  44.3263102   1.3809142  58.9317703  45.1702976
  55.7620859  46.8860245  87.2591591  56.2821960  46.5383339  87.9836082
  55.2645588  47.6066208  87.6457310  99.7692240  10.8377551  14.6011500
  99.4010794  11.0736274  13.7496428 100.6786812  11.1333036  14.5590643
  57.7315807  71.4015293  82.6682472  58.4292793  72.0452881  82.7908230
  56.9320250  71.9239807  82.6050568  20.9378369   2.8524732  16.7906527
  21.3085587   3.5363817  16.2329154  21.2397892   2.0333862  16.3980250
  31.1477566 100.0739479  65.9221029  30.6539750  99.3222713  65.5943823
  31.1887240 100.6759834  65.1790714  59.9049682  72.8991626  19.0250163
  60.5795521  73.5725210  18.9369540  60.3905291  72.0978640  19.2209296
  16.6181643  29.6916913  19.9443297  17.1795113  28.9191293  19.8789744
  16.7685539  30.0228166  20.8297591  22.1607144  24.5126581   1.4427619
  22.3427517  25.4328965   1.2523703  22.6803000  24.0280389   0.8013491
  45.3502447  85.7673393  17.9658179  44.8243720  85.0041400  18.2050185
  45.4881281  86.2315117  18.7915091  12.9761350  93.0109024  87.8311634
  13.0361295  92.1388531  88.2212448  12.9243410  93.6051178  88.5797977
  35.6832671  58.5430574  41.9860983  36.2756968  58.4448481  41.2407017
  36.2146091  58.3083296  42.7468967  56.3092989 102.8972970  21.0426573
  56.3975042 103.5395156  21.7469363  57.1080166 102.3724471  21.0957007
  28.3525586  81.5150166  82.3082924  28.6600637  82.2473621  81.7741203
  28.3128786  81.8671894  83.1974602  49.7074270  52.7690935  73.7109518
  49.0459251  52.9834127  73.0531454  49.9100399  53.6062622  74.1284800
  15.6636459  11.9324922  22.3727755  15.6447346  11.7284583  23.3077864
  16.5629179  11.7437743  22.1045928  35.0999141  64.2691803  82.5648880
  34.6084833  64.6963120  81.8632603  36.0139537  64.3270159  82.2866535
  52.8639317  52.4116087  84.1933823  52.2846508  52.1739197  83.4693909
  52.3463345  52.2408342  84.9802494  25.8350086  54.5885849  78.7515402
  26.4844918  54.4954586  79.4484806  24.9929857  54.4728756  79.1918135
  23.6551094  66.0845709  93.3617401  22.9310131  65.4940891  93.5696888
  23.6100125  66.7647791  94.0336895  20.3582287  62.0122862  58.8501596
  20.2009058  62.3631954  57.9736090  20.0672913  61.1017847  58.7994242
  44.0724087  61.5271664  93.2770538  43.3454990  61.1094618  92.8151512
  43.7619162  61.6204166  94.1776848 115.4570804  55.7727480  83.3194160
 116.2375853  56.3268614  83.3189583 114.7986736  56.2868023  83.7868404
  17.0705307  61.0798788  81.7639160  17.9876864  61.1523342  82.0281219
  17.0471299  61.4419413  80.8781338  19.6782410  58.9395857  84.4853306
  18.8554275  58.4553289  84.5539379  20.1466274  58.7316990  85.2938080
  21.1329436  69.5024920  80.5775356  22.0380974  69.8120785  80.6104946
  20.9909987  69.2748070  79.6587038   8.7113887  81.7120457  80.2483845
   7.9685742  81.2382126  79.8742914   8.3129019  82.4077225  80.7713318
   6.5457428  39.2324328  56.2568474   6.6979742  39.5393014  57.1506500
   6.6171467  38.2796907  56.3152885  30.7933354  62.9385853  59.3925047
  30.9399629  62.0678425  59.0229940  31.4310670  63.0077839  60.1029539
  39.4531012  72.2055674  72.9784298  39.7498035  71.4801645  72.4288893
  39.6830392  72.9913425  72.4825287  47.0077085  62.0139742  85.6797028
  47.5225830  61.2672472  85.3738689  46.9365311  61.8845749  86.6254425
  23.0884916   9.0532827  32.5501303  23.1361420   8.9106845  33.4954504
  23.8687451   8.6208867  32.2030501  12.9308684  21.2059068  32.4053721
  12.6243670  21.4062022  31.5209727  13.1556160  22.0577573  32.7796320
  23.3760762  52.2678900  77.0593262  23.5628343  52.1250963  77.9872084
  24.1722488  52.6718807  76.7141724  16.4849217  59.0423250   5.0956397
  16.9276554  59.7116231   5.6174140  16.5788538  59.3424558   4.1915755
  83.7419004   2.4589729  10.4319052  84.6798516   2.6022720  10.5581717
  83.3236671   3.0246400  11.0810046  82.6945746  12.8199195  38.2917075
  83.6257130  13.0396365  38.2610945  82.5062225  12.4542617  37.4273924
   2.0127510  97.7903080  86.5633392   1.1804691  97.6185036  87.0038223
   2.5624645  97.0398426  86.7888355  81.1322636   2.5009393   8.1174616
  81.0438490   2.2374868   7.2014861  81.9302690   2.0648193   8.4161620
  38.4543085  56.6145754  68.2731390  39.0048122  56.4854288  69.0454721
  38.6567426  57.5032091  67.9805994  11.6894448  60.9211588  71.8753338
  12.5634193  61.1206532  72.2108936  11.5840781  61.5015554  71.1214972
  79.7720899   0.6984472  31.6734175  79.9639145   1.3823795  32.3150305
  80.6128738   0.2651214  31.5266280  -0.0195502  80.1830387  71.1592102
   0.5150720  79.4042730  71.0045242  -0.2852039  80.4686832  70.2851009
  19.3226719  65.5183792  91.0108757  18.3676481  65.4819107  91.0640907
  19.6090651  65.6280994  91.9176197  78.9980428  17.7616214   6.2383990
  79.8230574  17.2935390   6.1100249  78.3802588  17.0859384   6.5177302
  85.6717491  46.1213970  88.0302238  85.4743099  46.9589901  87.6110649
  84.8143864  45.7362413  88.2113743  31.8770909  61.4113331  57.2863483
  32.5068569  61.0141134  56.6848135  31.2250566  61.8184805  56.7159796
  39.4765329  89.1322136  89.4424438  38.5990477  88.7508106  89.4144535
  39.8629332  88.9064217  88.5963154  97.6947022  22.5686788  32.2201209
  98.6120403  22.7764129  32.3977904  97.7025521  22.1775960  31.3464884
 108.9130277  96.8542682   4.9606471 109.7227496  97.2663222   4.6593241
 108.4982366  96.5287886   4.1617445   2.9991419  48.3380079  11.3037066
   2.4540169  47.5511979  11.3062243   3.3482153  48.3846902  10.4136424
  43.3416080  56.2703228  74.1589117  42.5434208  55.7471085  74.0855932
  44.0402317  55.6831932  73.8700628  51.7465448  47.3865509  91.1762047
  51.7598629  46.4620018  91.4237309  51.8798113  47.3826742  90.2283382
  16.0905821  44.5586633  41.9210391  15.9857828  43.7207174  41.4703803
  16.9819815  44.8351239  41.7084174   8.8548214  15.1849937  20.8772616
   8.1027014  15.5482005  20.4096846   8.9356596  15.7293844  21.6604189
  89.8601532  57.0252179   6.6471819  89.1088772  57.4663972   7.0436339
  90.0528133  56.2998151   7.2412352  50.1541585  88.5090504   8.7831168
  50.2798098  89.3617497   9.1994719  50.6944496  87.9093610   9.2975955
  23.7191565  26.8547010  33.7048678  23.4159071  27.5091123  33.0755763
  24.1170342  26.1707639  33.1662135 111.1997688  15.7283258  31.1022143
 110.7874883  15.8786487  30.2515368 111.5868128  16.5727233  31.3333563
  35.3273988  51.3088799  81.2040710  35.2271390  50.3976345  80.9287357
  35.8802223  51.7034435  80.5295753  51.2333441  48.5427713  76.7884541
  50.3136110  48.7670898  76.6470098  51.6957474  49.3787098  76.7282486
  96.9719446  18.2337379  26.3845400  96.6998148  17.6035547  25.7174258
  96.4510405  18.0069637  27.1549086 109.8619687  99.6267700  56.6478205
 110.4458343  99.5630932  55.8919907 109.2732495 100.3509903  56.4353514
 105.2925044  67.9404879  77.7154541 104.8514276  67.3731995  78.3478022
 104.6271759  68.1220055  77.0516634  64.8129553  96.2432109   2.7421908
  65.6447810  96.6620551   2.9632620  64.9339241  95.3259908   2.9877429
   2.0822208  50.8526278  93.0845451   2.3677750  51.7649841  93.0366135
   2.6292443  50.4660559  93.7683296  95.7101989  35.2567338   2.3379950
  96.2753022  35.9590768   2.0161204  95.3293085  35.6060170   3.1436972
  48.0548096  75.7172108  80.9249973  48.7312317  75.3592825  80.3500462
  48.4619713  76.4860821  81.3241100  22.4766111  61.2639809  82.4159718
  22.5989938  62.0366001  81.8643284  23.3442473  60.8622694  82.4614334
  57.6397163  99.1854249  15.8179907  57.3106939  99.9622546  16.2702136
  56.9954401  99.0178119  15.1302008  62.3654241  91.7768393   5.4464488
  63.1670326  91.3303743   5.7190661  62.1836227  92.3957549   6.1536459
 112.7031029  41.7793702   1.0218768 113.0845273  40.9949922   0.6275420
 111.8172086  41.5157556   1.2707285 107.5031555  61.9453859   3.1264739
 107.5991857  62.8902673   3.0072646 106.9278324  61.6711282   2.4123148
  17.8097236  73.1777859  90.5090714  18.2174695  73.5468912  91.2924862
  17.9368687  73.8458776  89.8354816  15.0292373  88.0572987  84.4815254
  14.9707663  88.0302525  85.4365540  15.9685802  88.0863380  84.2998028
  20.1470787  16.3520574   7.6011996  19.5715220  15.6419944   7.3169856
  19.5699484  17.1117734   7.6785712  20.9943581  85.6570435  73.1695223
  20.2407146  86.2217522  73.3408785  21.5203714  85.7109547  73.9674187
  46.5217239 103.9696275  32.6363425  46.5710277 104.3180285  33.5265212
  45.8009869 104.4511519  32.2302489  65.1484531 108.6297141  34.7621970
  65.9547109 108.1196700  34.6845011  65.4420394 109.5406113  34.7798018
 106.6259921   7.2595548  14.8162703 106.8068350   6.4131069  14.4075446
 105.6715048   7.2966813  14.8779826  60.4764742 105.8439599   5.2780966
  60.7025904 105.9634505   4.3556933  61.1539287 105.2587233   5.6168990
  21.5403366  64.4158316  93.4063435  20.6475210  64.7609472  93.4092426
  21.4387941  63.4870815  93.6145401  30.1083231  62.7771473  90.6898594
  29.6942329  62.5816679  91.5304184  29.7263813  63.6134338  90.4234409
  62.3432160  10.1861715   9.4399695  63.1206858  10.5944585   9.0590815
  62.3140347  10.5175304  10.3375105  29.0578461  81.5559578  42.5669241
  28.7181950  80.6942177  42.8083324  29.2810678  81.9678497  43.4016323
  67.7009911 100.1905595   3.5489802  67.0415992 100.6615935   3.0395083
  67.5200457 100.4328261   4.4571642 105.0707662   6.7521858  27.4509005
 104.6415770   6.5038633  28.2696585 104.3535006   6.8505382  26.8247275
  14.2706072  55.5057240  92.2362423  14.5450854  56.0375690  91.4892292
  14.2279315  54.6134949  91.8922329  96.4691723  40.2681207  25.9993128
  96.1470509  41.1110162  25.6799559  95.6950212  39.8378038  26.3622908
  29.3990976  52.4731969   3.9511065  28.4821589  52.3765420   3.6939959
  29.8942692  52.2198533   3.1720976   8.2150435  16.1496735  69.4795847
   7.5637114  15.9956253  70.1638889   8.8009226  15.3945529  69.5322180
   5.5476588  91.1125088  78.9760685   5.8631802  90.4364395  78.3763981
   6.1868662  91.8205452  78.8964653 116.5146697  25.3127813  57.2687583
 115.6876886  25.7821607  57.3783831 117.1753681  26.0026883  57.2076373
  78.0491888  31.7303132  22.0419459  77.7886891  30.8097982  22.0098261
  78.5997893  31.7963266  22.8221468  42.9197359  79.9872160  91.0096264
  43.8498211  79.7888565  91.1183834  42.5020933  79.6089840  91.7834187
   5.8577950   9.4731998  18.5808234   6.0126907  10.0278568  17.8162341
   5.2835495   8.7778615  18.2599120   8.3825475  76.5214586  83.5064697
   9.1355681  76.4714003  84.0952682   8.0181628  77.3936510  83.6572647
 108.5782111  21.0880946   4.4545893 107.6926887  21.0334110   4.0952925
 108.7308109  22.0254897   4.5739035  10.7359821  13.2006597   1.7677359
  10.1771338  13.0512142   2.5303511  11.5500242  13.5485267   2.1318106
 108.3520639   5.0497817   0.4122881 107.9670370   4.5954704  -0.3370996
 107.6212538   5.5283784   0.8035521   4.8810656   9.4665193  27.0760588
   4.0450747   9.0006542  27.0939307   5.0511057   9.6886062  27.9914813
  55.7418782 104.5519839  13.6815409  55.5051428 105.3960238  14.0659670
  54.9046630 104.1102944  13.5393672  74.7935432 109.7573529  15.4638533
  74.4744414 110.3895579  14.8198657  74.1454572 109.0530692  15.4495959
 112.8487766  24.3745851  33.4200434 113.2473123  25.0740194  33.9379076
 112.5542772  24.8077821  32.6188998  59.7354698  56.7598820  28.4167528
  59.5291901  56.7197800  27.4829054  60.5982876  56.3518000  28.4891844
  37.3227334  71.8343401  69.5999241  36.8063974  71.0298252  69.6487999
  38.2221174  71.5522051  69.7664785  68.2759154   0.2832984  23.1505160
  68.7047869   0.8179664  23.8186793  68.9810324  -0.2468110  22.7789931
  82.2996238  25.0573968   2.5938754  82.1249622  25.8984708   2.1715884
  83.1816453  25.1489400   2.9542784  83.8501460  27.2399473   9.7403864
  83.6041797  26.7523240   8.9542822  84.0380103  26.5646028  10.3921752
  87.8365445  25.6749391  19.6431880  87.4632442  24.8597812  19.3079333
  87.0768577  26.2219953  19.8427729  14.3206811  60.1916456  59.6060610
  13.7513113  59.5147419  59.9719191  15.1719570  60.0352287  60.0148344
 113.9123428  27.4321889   2.3102717 113.3482159  27.6319646   3.0573229
 114.6881593  27.0268487   2.6976256  10.3677399   7.1783017  41.3388972
   9.5089848   7.5146436  41.0826830  10.7007773   7.8227329  41.9634203
 106.3847387  56.1143827  30.9278254 106.4557135  55.2014684  30.6489424
 105.5797422  56.4286756  30.5162005  16.7857277  80.0582886  45.8783770
  16.9663715  79.7944355  46.7805862  17.5581324  80.5591106  45.6160784
 113.2561910  19.8904371   5.7859950 114.1538823  19.9828243   6.1051230
 112.8618419  19.2386483   6.3655524  52.0726109  96.1058044  85.9696388
  52.3602295  96.0457230  85.0586510  51.4143705  95.4166222  86.0589314
 112.3266143 103.4076939  26.6688590 112.2516412 102.8602992  25.8872180
 111.7125911 104.1262971  26.5178065  48.4346962  69.2996883  76.5900564
  48.2770395  68.3588982  76.5107298  48.9884615  69.3851423  77.3661184
  12.5167400  19.1953038  23.9136939  13.4353239  19.4432830  23.8090662
  12.3222239  18.6652087  23.1407790   0.6570321  67.9476786  92.6956844
   0.6729832  68.0567598  91.7448521   0.8525633  68.8191223  93.0400562
 114.2823446  29.8708486   0.5258231 114.0368474  30.7553338   0.7972197
 113.7048424  29.2969178   1.0291247  59.4558591  98.6335717   7.2758059
  59.6787614  98.2713853   6.4182715  60.3012842  98.7973557   7.6937346
  71.1595541  80.6196499  91.6231823  70.5989748  80.5783081  92.3979473
  72.0187956  80.8704567  91.9623470  72.7515453 102.8134309  13.8221507
  72.1635860 102.3049317  13.2636218  73.2734317 103.3327447  13.2104544
  96.1070413  85.7110368  22.0176653  96.7485541  86.0075079  22.6632647
  96.4242572  86.0627065  21.1858420  77.8861159  92.5725494  29.8592906
  77.5174898  91.7851411  30.2597098  77.1722025  93.2097469  29.8825411
 106.1697662  28.3534478  24.0779166 106.5303982  28.2782125  24.9613814
 106.1887229  27.4601316  23.7346034  12.9297251  74.0872238  12.2393183
  13.3037180  74.5550559  12.9859690  12.4557632  74.7588239  11.7488627
 104.4014562   2.5944709  26.6965060 104.6626270   1.8443250  27.2306399
 105.1879061   3.1377458  26.6457228  67.7289343  52.4528122  95.2642345
  67.0662022  51.9811201  94.7597313  67.6480627  52.1033049  96.1516666
  88.6008156  28.1845426  10.5087904  88.2347405  27.3042058  10.4236941
  89.4829560  28.0448579  10.8530955 103.6383498  15.8545541  26.0027461
 102.9856146  15.3131389  25.5588679 104.0605271  15.2603626  26.6231780
  33.0784822  66.2022924  89.7946358  33.2997155  65.3850126  90.2411079
  33.3015299  66.8874264  90.4247761   4.0822649  48.5909128  50.8697796
   3.4597898  47.9298830  50.5668020   4.6202525  48.7831450  50.1017618
   1.3535240  33.9014268  78.3455038   0.7305417  33.3313513  78.7962103
   1.7752354  33.3331490  77.7009487  51.2277126  59.4148922  82.6241398
  51.2864017  58.4791470  82.4313354  51.0560083  59.8238993  81.7759323
  40.5596733  19.9307728  90.0011539  40.5699682  20.7693481  89.5397186
  39.6323347  19.7585058  90.1642418  56.0180569  59.5349741  72.4364185
  56.2410975  58.6756039  72.0786858  56.3108015  59.4986677  73.3470297
  71.2717277  36.2629937   6.6159777  71.3637090  36.7636537   5.8053545
  70.4044563  36.4982652   6.9457011   2.4777538  34.9898576   0.5019240
   2.7247793  35.4851102  -0.2790590   1.6980297  34.5009469   0.2388052
   8.7072546  20.7990836  25.7066874   8.0380137  20.8104324  26.3909583
   9.1257651  19.9427795  25.7951693  32.6966357  74.2636919  76.1725283
  32.1292305  75.0218725  76.3119793  33.1560159  74.4554758  75.3549576
  13.7310488  27.1524286  11.6530852  14.4463427  26.8926381  11.0724883
  13.3247502  27.8992128  11.2132315  46.6914988  69.5283079  93.3920956
  46.2586546  68.6765814  93.4506702  46.8601274  69.6475077  92.4574375
  51.4051742 105.9978543  18.5903029  51.6565508 105.4378854  19.3247942
  50.4604358 105.8702288  18.5042052  24.0347607  18.1490707   3.8527922
  23.1204540  18.4315252   3.8305525  24.0107186  17.2368430   3.5638384
 108.3390558   8.3185529   0.0349001 107.9436267   9.0467023   0.5141310
 109.2798126   8.4917783   0.0695471  33.5778761  47.1172619  93.2153702
  33.8670278  47.8089714  92.6202488  32.8785086  46.6690063  92.7397823
  37.6665878  62.3304176  87.6814461  36.9171214  62.9013920  87.8503227
  38.2671547  62.8694582  87.1666813   4.7854099  89.3451214  84.9970531
   5.4006386  89.4226933  85.7262325   5.1366115  89.9284458  84.3242741
  31.0625005  58.2344007  76.1398125  30.2792311  57.7678919  76.4315176
  31.0626507  58.1305885  75.1882601  23.6594510  49.1310215  91.6959000
  23.5235357  48.2950544  92.1419048  23.4128690  49.7910357  92.3438263
  92.4467439 100.3691588  15.6447749  91.5237159 100.1379262  15.7486205
  92.8599280  99.5673857  15.3243594   4.7751124  31.1419534   6.3004736
   5.2342493  31.1433362   7.1403651   5.3058989  31.7043924   5.7364134
  16.7882681  95.4267120  67.0595837  16.1560059  95.7135582  66.4006519
  16.3535404  95.5913830  67.8963232   3.4473908  77.4635172  93.8459492
   4.2875880  77.9191780  93.7942314   2.8080031  78.1575584  94.0063381
  16.8321013  81.5957165  82.0684052  16.4400816  80.7315063  81.9431591
  16.7923498  82.0043468  81.2037182   5.7225783  20.6988048   9.7775607
   6.2123949  20.9737109   9.0024809   5.6887848  21.4803314  10.3291945
 114.7989309  11.7572164   2.5007777 114.2972815  11.5390443   1.7152934
 114.2299474  11.5019321   3.2269434  60.6016874  90.2168846  88.2244682
  60.1996660  89.6971607  87.5284100  60.3704596  89.7564602  89.0311813
  18.0157125  92.3659992  73.9900780  17.5236523  92.1094322  73.2101583
  18.2646298  91.5373993  74.3995714  20.7037575  29.0100526   8.6290125
  20.0323660  28.5046243   9.0872817  20.7225687  29.8516988   9.0845541
   7.4245293  32.1192025   8.0831103   6.8403227  31.5373277   8.5692744
   7.0453865  32.9904699   8.1987242  13.1238014  50.7771539  23.0060915
  13.4828360  50.1785993  23.6611132  12.8410370  51.5409231  23.5090117
  86.2975490  35.3247976  16.8145804  87.1584857  35.0279378  17.1093611
  86.3085342  35.1882219  15.8672385  43.0472374  95.5435562  76.5773869
  43.6455822  96.1208153  76.1030579  42.2184610  96.0220432  76.5975857
  32.0083506  49.2065191  10.7887988  31.1173088  49.2656946  10.4441695
  31.9594319  48.5301732  11.4643721  27.2094376  13.5085391   9.8078494
  26.5860970  12.8084325   9.6141200  27.2607691  13.5258531  10.7635169
  74.2913836 108.2508717   7.8045325  73.9277977 107.6859675   7.1226840
  73.8403529 109.0871297   7.6884417  50.1427698 100.5648613  61.1931944
  49.2349720 100.3993702  60.9387445  50.1555252 101.4872074  61.4488220
  43.1452417  82.0938683  84.1886902  43.4043169  81.3351154  84.7115707
  43.4555483  82.8477001  84.6903610  22.2971749  67.4436808  88.0118942
  22.8232265  67.3542452  88.8065624  22.7608585  66.9210243  87.3576260
  34.4750547  74.1007805  89.6570301  34.6518207  74.5550346  88.8332272
  33.5201979  74.0860748  89.7223282  47.4379778  75.4507732  92.7043247
  47.0562696  74.6129084  92.4425793  46.7979717  75.8272648  93.3083725
  20.8717203 104.3564224  83.3425426  21.8004227 104.1319180  83.4003353
  20.7302260 104.9764538  84.0579319  42.6374578  65.5262089  82.9452038
  42.0405912  66.2371540  83.1787491  42.1451712  64.7277737  83.1359673
 105.5277288  22.7030658   3.3302645 105.7403982  22.9095268   4.2404227
 106.2580002  23.0621433   2.8262858  59.7323942  78.5075092  85.4542923
  59.6306324  77.6490974  85.0431824  59.1983032  78.4582138  86.2471008
  65.9731579  87.4382496  91.3812160  65.7978296  88.0791855  92.0701981
  66.2692308  86.6578579  91.8497849   3.8859684  36.0633706  12.7149825
   3.5085661  35.8019685  13.5549025   3.1323654  36.1551999  12.1319918
  60.7831383  93.0572414  88.0930233  61.3719988  93.2319450  87.3588943
  60.6685305  92.1069431  88.0872536  33.2628822  83.1647110  76.6650486
  33.7159395  82.7010345  77.3693085  33.9636064  83.4634686  76.0854244
  17.6491959  35.0442075  19.3900160  17.3439629  35.9450769  19.2827658
  16.9643385  34.5098161  18.9879946  43.4641249  59.3279981   2.6848940
  43.4313376  58.6339425   2.0265250  42.5482447  59.5678472   2.8258662
 107.5655806   1.0877179  17.3550848 107.4148882   0.6471681  16.5187602
 108.3376992   1.6326474  17.2030406  16.1933643  58.3129072  41.7674784
  16.3860066  58.7619161  40.9443621  17.0505745  58.1702661  42.1688132
  11.5845949  27.4537515  14.9739508  11.9896872  26.8637800  15.6096129
  11.1133654  26.8740320  14.3755297   1.8359167  29.4908952  16.1368327
   1.9443590  28.6379575  16.5575175   1.6062338  29.2836999  15.2309851
  16.1439592  30.0239419   2.8598933  16.7036135  30.1347017   3.6284976
  15.5669911  30.7876157   2.8716807  19.2033417  21.1479234  22.9333071
  19.0866072  22.0933294  23.0272059  19.5948488  21.0398483  22.0665507
  58.9326906  73.9460611  82.3343563  58.6837673  74.8371410  82.5798035
  58.5016394  73.8003254  81.4922237  63.5324907  63.6616993  79.8227596
  63.9035797  62.9201984  79.3445253  64.0986872  63.7605810  80.5881786
   9.3036062  18.2335805  33.9648013   9.0698797  18.6971282  34.7689967
   9.5646031  17.3607921  34.2586665   4.6526390  63.7879610  62.9726315
   4.1253477  62.9902601  63.0158043   5.4624540  63.5166740  62.5403881
  35.3864455  56.4356661  65.3843594  35.9628010  55.7071352  65.6152105
  35.7993436  56.8342638  64.6182871  47.9201841  58.7610483  91.0503006
  47.8313971  59.2256689  91.8824577  48.1224394  59.4465828  90.4136181
  62.1551514  49.6643782  95.4921341  62.8761721  49.1014767  95.7741070
  62.2841978  49.7644901  94.5489693  24.6856529  19.6950101   9.3198828
  24.9331505  18.7718868   9.2667727  25.1240141  20.1038312   8.5736041
 103.0378020  28.1006288  27.0093302 102.6542247  27.9317331  26.1487631
 103.5256851  28.9166211  26.8981223  93.0083442  49.9312639  27.2504096
  92.8544641  50.1334810  28.1732611  93.7479937  49.3237447  27.2584300
  32.4532175  66.2638044  87.0466423  32.8991413  66.4140844  87.8801918
  33.0225444  65.6543398  86.5769100  36.6180801  58.4357738  63.2224560
  36.6491628  59.3263960  63.5718250  36.6806054  58.5482502  62.2739458
  67.2909212  90.9846783  86.8652916  66.8188524  90.2476692  86.4777374
  66.8205452  91.7591953  86.5569115   6.4681227  18.8435077  20.8394198
   6.9545347  18.7157392  21.6538577   7.0229132  19.4232177  20.3175311
  56.8905640  83.8692093  93.8154411  57.5809097  83.9732552  94.4702911
  56.0777998  84.0189648  94.2983723   8.9019758  32.3508596   5.1806693
   8.2251627  32.2187852   4.5168070   8.5171444  32.9771756   5.7937483
  86.0392553  18.6757707  37.4606566  86.4505440  19.5315646  37.5818591
  85.5468363  18.5301303  38.2684664 108.5608805  45.8431768  33.0856566
 107.7334726  45.4512548  32.8063254 108.7929452  46.4433049  32.3769717
  21.9735050  59.5357084  88.7828827  21.8190384  60.1664925  89.4860840
  22.9014444  59.6361637  88.5705757  30.0014257 103.4272671  56.6917133
  29.9320984 102.5176811  56.9816875  30.3015327 103.9032841  57.4660301
  77.5899696  34.1602683  73.6441994  77.3972321  33.4607315  73.0199146
  77.0163774  33.9811158  74.3892717  50.5161667  57.2238016  86.6255665
  50.9347916  56.4127254  86.3372135  50.9251499  57.9065943  86.0938168
   5.8553011   7.1421098  24.5568995   6.7028982   6.9267415  24.1677622
   5.9332831   6.8644285  25.4696135  20.8835340 108.3572292  70.4838037
  21.2628341 107.7558327  69.8429489  20.0479126 107.9563713  70.7231379
  35.5201847  11.7698907   6.7689185  34.7496111  11.4266967   6.3165144
  35.5566818  12.6918315   6.5141253  44.4865131  69.2304516  66.0607195
  45.4257154  69.2016840  66.2432241  44.2695141  70.1627016  66.0682058
  34.2417550  72.2373915  81.1934853  34.2625809  72.6735830  82.0452690
  33.3358502  72.3306179  80.8987427  44.7293377  68.5533190  77.4099016
  43.9761877  68.6368752  77.9947233  44.7368956  67.6294518  77.1596146
  19.2395496  78.9265347  91.4681053  18.6009252  79.4122744  90.9461403
  19.1787946  78.0275440  91.1450577  44.4393969  97.9442883  78.1440353
  45.1572609  97.3112106  78.1550360  44.7935963  98.6999130  77.6751947
 113.7713182   2.3116683  20.5007128 114.5199573   2.1098470  19.9394278
 113.1463015   1.6073846  20.3287558  17.0444853  60.3106736  15.3289847
  16.9588215  61.0555314  15.9240298  17.9889328  60.1857709  15.2360110
  15.1965649  53.9183568   7.2412257  16.0244066  53.4899854   7.0234923
  15.2713043  54.1243600   8.1730036 116.1369098  28.2855558  40.6717162
 116.8218315  27.6739454  40.4014353 116.5952885  28.9417886  41.1965804
  50.2613831 108.2990742  94.3051815  49.5813322 108.9675140  94.3884945
  49.9188995 107.6891041  93.6518192   4.7897894  49.2100381   4.2743258
   5.6815512  49.4606828   4.0331416   4.8471911  48.2735490   4.4638876
  29.5141506  83.4507656  78.2295656  28.9053202  82.7173805  78.3172989
  30.2479482  83.2224751  78.8002300  14.2052586  36.6139840   1.0409693
  14.0731318  37.4886655   1.4066367  14.5289118  36.0934209   1.7761569
   5.6219608   3.3205032   3.7676386   5.2806885   4.1471147   3.4263567
   5.6572754   3.4490680   4.7155051  85.8664131  75.8896923  92.9218006
  86.1873245  75.4631233  93.7163353  85.1780128  76.4799881  93.2282162
  45.4556036  82.9496479  88.1577682  46.3901138  83.1307602  88.2583809
  45.4114056  82.0098972  87.9812717  22.5510771   3.0952262  13.8067584
  22.8067047   2.9892301  12.8904299  22.5380118   2.2042560  14.1563754
  30.9377033  59.7046136   1.6934638  30.0412733  60.0390291   1.7219977
  30.8764012  58.8984346   1.1810832 115.1200617   9.6400356  45.7154135
 114.9287904   8.7609910  45.3884177 116.0320413   9.7941160  45.4688792
  96.2489975  42.0795774  34.9580626  96.2091720  42.0560407  34.0019850
  97.1486867  41.8279504  35.1665740  62.4883730  43.8552808  12.6704268
  63.1643469  44.4805955  12.9317336  61.7737658  44.3994188  12.3395590
  90.8362788   9.1571940  83.4347916  91.2222403   8.4217490  83.9105797
  91.2418384   9.9326552  83.8226223  32.4423885  88.6143684  94.5443630
  33.2831860  89.0689087  94.5961285  31.8771553  89.0858364  95.1562881
  45.4462051  86.2515736  88.0923080  46.2336302  85.7722378  87.8345585
  45.0071144  85.6732082  88.7159443 110.2560437  51.2424135   5.2138667
 109.9888099  50.5281019   4.6354441 111.1008823  51.5285253   4.8665671
  40.0209951  88.6624908  71.2825966  40.9774637  88.6639309  71.2452316
  39.7963977  89.4935799  71.7010117   0.8011491  11.3968133  33.6059050
  -0.1153057  11.1301994  33.5333781   1.2260086  11.0036945  32.8435568
  52.9715872 100.9784698  75.8978748  53.1275988 100.1479244  75.4483366
  52.0455265 100.9503651  76.1384058  51.9135284  70.1923800  89.6160030
  51.6793633  69.6157408  90.3432465  52.2742510  70.9732056  90.0360203
 115.4261482  53.6742925  23.4541468 114.7929371  53.3114862  24.0735392
 116.2752998  53.3684778  23.7729792  92.8375340   6.8375968   6.1830954
  93.1127465   5.9299611   6.3122611  92.6539207   7.1600770   7.0654349
   0.0617368  43.6769532  22.4354796  -0.2382009  42.7994489  22.1983008
   0.5695088  43.9692544  21.6785388  30.4023576 109.3225479  65.0336838
  29.5358205 109.6273994  64.7645855  30.4444003 108.4174824  64.7249556
  68.9011496  99.2901192   7.8075461  69.4346732  99.5708953   7.0640807
  68.8637179 100.0572739   8.3787779 115.8186472  12.1846723   6.5101771
 115.9338105  11.2351655   6.4727740 114.9479115  12.3055982   6.8889002
  29.3164778  68.3778954  95.4365540  29.6868181  69.1841745  95.0774002
  30.0729370  67.8932190  95.7668400 107.6694048  17.0149278  20.4050116
 108.2667029  16.2716054  20.3217272 107.5372589  17.3178195  19.5066599
  29.0875370  56.9614839   7.3687319  29.9875719  56.9912671   7.0442633
  28.7145025  56.1760759   6.9684748  34.1124701  70.7347488  75.5962944
  34.7717118  71.2491560  76.0621452  34.5495319  70.4584360  74.7907734
   2.8760035  43.0629682  20.6778388   2.4033148  42.7109575  19.9235968
   3.5416443  43.6359357  20.2972273 107.7137864  31.5516423  14.6583323
 107.7810133  31.8502664  13.7513976 107.4659551  30.6296682  14.5891718
 102.3575700   5.9719085   4.8198370 101.8660295   5.2178191   4.4943099
 102.1318281   6.6823100   4.2193369  53.2683563  67.7340031  76.5497065
  53.6561680  68.6048555  76.6360235  53.6476994  67.2304201  77.2699356
  88.1010115   1.4348459  15.2157645  87.4330545   1.9942045  14.8192935
  87.7677685   0.5450200  15.1000552  11.4240963  32.2744035   3.4076170
  11.3276369  32.0967531   4.3432288  11.1329300  33.1804132   3.3045916
  10.1108820  23.7528991  18.9246516  10.0170595  22.8993081  18.5017924
  11.0459740  23.8236331  19.1165690  34.5230229  23.7983941  29.1692500
  33.7843544  24.0751647  28.6270289  34.1896946  23.8367032  30.0657229
  27.8029752  90.5702305  93.7131310  27.4413681  90.3311348  94.5665455
  27.5621819  91.4897251  93.6000729  88.9349079  82.9055214  94.5195866
  89.6240520  82.4811935  94.0084648  88.1367779  82.7622318  94.0109730
 108.4506381  30.8978509  32.7358965 107.7429283  31.4575719  33.0554156
 109.1348207  31.5091275  32.4629931  40.6722021  62.7318096  80.0177288
  40.0527811  63.4609318  80.0482273  40.1420546  61.9777870  79.7596216
   1.6922981  33.6039781  28.8239817   2.3705322  33.3728647  29.4586615
   1.9921477  34.4292306  28.4428458 110.3410042   4.0021610   2.1164565
 109.7527564   4.4915199   1.5413718 111.1711634   3.9726638   1.6408495
  59.8235416  85.7426929  77.9367113  59.6687984  86.4336395  77.2925949
  59.2610359  85.0215721  77.6542282  97.2231388  83.5282516  86.2965107
  96.7171097  83.7845039  85.5254745  97.0611286  82.5893211  86.3881302
  62.3456812  41.8779802  83.9136124  62.6608849  42.7764797  84.0115070
  61.9139862  41.6836262  84.7455406  97.5731707  14.1815423  27.7574210
  98.4912455  14.4323587  27.8596930  97.5504089  13.6841487  26.9399123
  35.4535229  31.0174798  31.0951666  34.9692757  31.3737344  31.8400244
  35.3746731  30.0682687  31.1901145  74.0215248   0.6006754  78.8517857
  73.4011692   0.2172316  78.2318163  73.4944004   0.8006705  79.6253347
  23.5569794  21.1731338  21.7639498  22.6286251  20.9399270  21.7652850
  24.0105612  20.3516769  21.9528918  96.3445092  17.2630405  23.5911898
  95.7973886  16.9376992  22.8763155  96.9045651  16.5215015  23.8207297
  98.1173385  39.4561433  44.9752573  98.0970705  40.0713872  45.7082610
  98.7197817  38.7677144  45.2569823  30.2685285 103.9688873  51.0527992
  29.8209310 103.2679939  50.5788469  29.8007250 104.7650814  50.8008718
 104.3000543   3.0313825  20.5789046 104.3763841   3.6080264  19.8187117
 104.2898763   2.1483421  20.2096323 106.6445541  94.8543453  87.2741127
 107.3685169  94.4667244  87.7658939 107.0637512  95.4824448  86.6858959
 112.0513018  59.3122530  70.4396105 111.7465853  58.4449434  70.1728678
 112.8933331  59.1499519  70.8649063   4.6231348  31.8922281  16.1551528
   4.5754082  31.6264486  15.2368311   3.8652212  31.4752054  16.5648894
  92.6656425  61.2404393   6.7422251  91.7933572  61.0865258   6.3793711
  93.2381165  61.2902593   5.9767012  34.8070645  75.0206041  87.2854805
  34.3665743  75.6606579  86.7264366  35.5054450  74.6637344  86.7367172
  29.4495225  93.3903980  71.3474274  29.8254442  92.5588894  71.6364241
  28.6657834  93.4990120  71.8861198 102.8801096  40.6231164  11.5568499
 103.6179865  40.2854108  11.0491900 102.1145404  40.4553556  11.0073142
 110.7608736  45.1166009  19.4919257 110.1056111  44.5821046  19.9404482
 111.5997136  44.7915792  19.8189406 108.0639279  12.9323434  23.3972125
 108.7441171  13.1623506  24.0301947 107.2442448  13.0215644  23.8834052
  93.7881726  10.0722636  73.2929420  94.5588130  10.3920496  72.8238106
  93.1786603   9.8113478  72.6025438 114.8874247  46.7350148  14.6104579
 115.5590690  46.8441247  15.2836756 115.0184167  47.4762105  14.0191035
  70.7274884 105.0325928   9.1708235  71.3922090 104.5524035   8.6770587
  71.1535114 105.2461825  10.0009493  14.5346863  42.8354883   4.9685912
  14.1047842  41.9877576   5.0816016  14.2402107  43.3549928   5.7166724
  48.3714479   3.2718695  89.6116924  49.1267413   3.6689604  90.0453758
  47.6652748   3.9068449  89.7315216  78.4264326   9.9365329  26.0169653
  78.8711877  10.2492523  26.8047671  78.8958818   9.1372585  25.7781939
   6.2875206  20.6114005  13.5300498   5.8871777  20.1209258  14.2479567
   5.9629423  20.1837968  12.7375655  20.2266169  95.6773281  89.0572929
  20.6352472  95.3855705  88.2423592  20.1748300  96.6293049  88.9718342
 108.9556635  19.3517064  34.6896224 108.9188135  20.2638339  34.9775271
 108.3431375  18.8938903  35.2653365  97.4729538  39.2697191  10.7381205
  96.5826702  39.6210622  10.7516436  97.4248755  38.4749269  11.2693743
 102.2054732  34.6580934   1.6464381 101.2752450  34.5102453   1.4759974
 102.3523367  35.5708169   1.3982348   4.3803150  21.1669921   5.5912833
   5.0567944  20.5722331   5.9151129   4.1177971  20.7953548   4.7491507
  53.9149094  64.6827507  94.9451160  53.6237288  63.7782717  95.0607204
  53.1691551  65.2123594  95.2272511  54.8440599  65.9708118  82.3162270
  54.3833160  65.1378298  82.2157669  55.5444098  65.7832861  82.9411793
  39.9626422  71.2932587  69.2172718  39.7817540  71.1597443  68.2868481
  40.9179544  71.3037682  69.2764425  31.4071178  95.7304573  92.3279858
  32.0334125  95.0067806  92.3448372  31.9434261  96.5077591  92.1717930
  85.3296852 107.6550961  81.9801807  85.1786804 108.5873604  82.1361351
  84.5639896 107.2220325  82.3575306 108.7922848  35.0361680   0.7584910
 108.7326849  35.8231115   1.3001589 107.9483760  34.6000146   0.8760314
  54.4086504  88.4327602  76.4401722  54.1495180  87.5492668  76.1783886
  54.8586512  88.3124924  77.2763920   7.9191906  44.7776937  18.6413435
   7.0095617  45.0575685  18.7437205   8.1782372  44.4812822  19.5138506
   6.6707451  31.2785672  37.0386271   7.3623020  30.6946706  36.7270903
   6.3551409  30.8679151  37.8436045  14.0555668 105.2759552  79.1000223
  14.1342044 105.1495361  78.1544733  14.4849455 104.5097923  79.4806337
  32.7579021  94.2681503  79.5496845  32.0318651  93.6445618  79.5649242
  33.5431194  93.7227249  79.5963383 112.1142614  17.6904105  41.0181193
 112.3445475  17.8328513  41.9362216 111.2375915  18.0645274  40.9302668
  89.8064626  46.9379281  19.7818522  89.9526489  47.8545236  19.5479445
  90.6829179  46.5538167  19.8045496  82.0417976  87.0638275  77.0776320
  81.8394566  86.8146896  76.1758423  81.9896126  88.0195999  77.0795250
  25.8423359  24.6294259   4.2007594  26.2759049  25.2128553   3.5779719
  25.6958897  25.1722478   4.9754481   7.9402477  24.7016715  12.2190909
   7.2815210  25.2589559  12.6335196   7.5309117  23.8374137  12.1774344
  10.8208544  13.8769340  12.7454714  11.3357670  14.6712302  12.8875689
  11.4569122  13.2309102  12.4383597   2.4163079  53.4854937  92.1155548
   1.6965657  53.4990120  91.4846611   2.1478118  54.1001654  92.7984238
  13.1424315  50.7204294   9.3413691  13.7562782  50.2024221   9.8620467
  12.4027378  50.8765840   9.9284796   4.0750582  28.5633230  40.4258017
   4.7499115  28.5200643  41.1032443   3.3161432  28.1294297  40.8156924
  39.1765577  46.1623048   7.0983843  39.1825564  45.2875661   6.7097620
  38.8216717  46.0313272   7.9776530  27.6392317  72.7576256  79.5142365
  27.5251555  73.6376667  79.1554213  28.3297157  72.3679543  78.9779282
  91.6443324  10.4603338   6.3744788  90.9708548  10.0546932   6.9204764
  91.2020374  10.6444215   5.5457930  52.8888941  90.5239964  77.0206499
  53.6500978  89.9772739  76.8260098  52.1604300  90.0856781  76.5808201
  16.7334366  75.0389051  88.6192417  16.6668403  75.6207323  87.8620911
  16.1780822  74.2917156  88.3967113  84.8714084   4.0977992  62.6253462
  85.5091781   3.4588088  62.3072577  85.0086278   4.8680628  62.0738983
   5.2361567  56.0313749   4.2761855   4.4180519  55.6411123   4.5838217
   5.5012304  55.4817914   3.5386710   0.4623110  22.5523948  23.1129317
   0.1091678  22.2711992  23.9570002   1.2263567  21.9926595  22.9745059
 109.0503395  11.8326711   1.2882666 109.3974245  11.1202049   1.8250708
 109.7870195  12.0987939   0.7380728  37.4564338  63.4648323  81.4005947
  38.1486750  64.0344000  81.0650063  36.8551397  63.3587694  80.6634235
  12.3246605  44.5037507  12.4264292  12.6844341  43.9169645  11.7612414
  11.8895514  43.9215612  13.0493121 111.7547834  29.9023008   3.7033991
 110.9737003  30.1892900   4.1764502 112.4442470  30.4986429   3.9953856
   8.9776481  96.8259345  39.0862898   9.7710193  97.2512017  38.7607913
   9.2867435  96.0074912  39.4746832  13.1709559  55.0522374  24.4623999
  12.3244364  55.2626561  24.8565535  12.9672033  54.8558282  23.5479884
 104.3719006  86.2052917  78.9030838 105.2542973  85.8760357  78.7322092
 104.4535446  87.1564674  78.8335896  12.7295096  47.3718786   2.4744753
  12.3806889  48.0310773   1.8744616  13.5959179  47.1641111   2.1246199
  53.5212118  69.8134851  12.3858408  53.0014403  69.1712617  12.8691725
  53.3756907  69.5954179  11.4652495  10.6595492  30.9537745  64.5782089
  10.8496046  31.8895626  64.6446180  10.8023512  30.7453012  63.6549664
 100.1903975  46.7859697   2.1367507  99.3276322  46.3777589   2.0644240
 100.0813806  47.6488351   1.7369895  15.6903393  49.9919843   8.5344748
  14.9408800  50.5774354   8.4258608  15.5061562  49.2562722   7.9505019
  57.1337461  60.8417273  93.8716888  57.6071501  61.5237236  94.3481445
  56.4118862  60.6009722  94.4523716  40.3518009 101.9779301  93.4982300
  40.1064348 102.9031086  93.5067081  41.1864042 101.9471836  93.9659119
  31.9982559  12.8137826   0.6563048  31.8079502  11.9480991   1.0177092
  32.5767166  13.2207202   1.3013033  26.7554259  95.7036209  91.8082714
  27.5169802  96.2601089  91.9713306  26.7179585  95.6221581  90.8552837
  19.6791887  74.5725536  88.3065891  19.3728793  73.8305283  87.7852440
  20.5647779  74.7417879  87.9851532  21.2965631  68.7858629  48.9338017
  21.1712766  67.9249668  48.5345602  21.7958117  68.6096859  49.7312641
   3.8649097  54.9834442  76.5735388   3.4510764  54.8326969  77.4233913
   3.3229598  55.6547403  76.1589479   9.3382866   6.2003803   8.3398776
   8.9009697   5.6404161   8.9812998   8.6234600   6.6066121   7.8497366
 106.6937483  16.2628364   1.2999873 105.7368338  16.2817239   1.2861971
 106.9549835  16.8302631   0.5747180   7.0723564  38.7408304   1.8803172
   6.5222008  39.2260789   1.2654166   7.7782137  38.3847951   1.3406519
 108.5342563  32.2204541  21.9941000 109.1817034  31.7240857  21.4934306
 108.5535848  33.0963849  21.6086058 104.8003304  22.8643894  12.4509863
 104.3203009  22.9100560  13.2778601 104.9687541  23.7781619  12.2210269
  -0.0158875  41.9906663   0.5820517   0.7410175  41.4106893   0.6653933
  -0.5280559  41.8314885   1.3748793   3.5884316  13.2279348  25.1094775
   3.7675459  13.2115030  26.0496192   3.8710386  12.3685312  24.7967581
  90.5476499  35.0255918   1.9171004  90.1644767  34.1563653   2.0348506
  91.3755298  34.8631429   1.4649348  42.9758236  -0.1911508  88.5740566
  42.8640953  -0.1580774  87.6239777  42.6360119   0.6481112  88.8845444
 102.5445807  32.8724431  14.4260935 102.7421844  33.4672975  15.1495032
 102.9421389  33.2864999  13.6601023  49.0167999  75.7211733  74.0334988
  49.5092583  76.5203571  74.2206526  48.7454796  75.4001045  74.8934650
  91.9679737  65.5644798  91.0477161  92.1151733  65.2903318  90.1424980
  92.8160858  65.4449415  91.4750957 116.1197245  24.5522498  19.3069033
 116.6244781  25.0770234  19.9282507 115.5161679  24.0489053  19.8533396
  29.3187404  69.5402718  68.7347746  28.6584949  70.2163458  68.5823536
  30.0862503  69.8410225  68.2482481  30.7209468  49.1064930  59.6213961
  30.0964260  49.6100187  59.0992212  30.5191469  49.3404150  60.5273676
  30.7056808  60.9046602  77.2588301  31.0396814  60.0286198  77.0658827
  31.4020395  61.3197660  77.7677536  39.5537502  77.4603795   7.7883296
  40.2954943  76.8578481   7.8432040  39.6213276  77.8444528   6.9141631
  29.7676975  45.6991338   9.8287062  29.7171337  45.7346677   8.8735060
  29.8315079  46.6150331  10.0994162  41.3171959  96.7839146  73.2672262
  41.0832596  96.4455509  72.4029255  40.8051729  97.5877285  73.3563805
  44.4835806  83.8614750  85.8240795  44.9508095  83.6403084  86.6296959
  44.7928095  84.7395039  85.6012058   8.1137545  34.9768972   5.8744578
   8.3909018  35.4412603   5.0846533   7.1641476  34.8969793   5.7845168
  36.3956451  77.8965473  85.9363365  35.7755971  78.0366945  86.6519642
  37.1380877  77.4526596  86.3461781  38.9916921  95.0883579  81.6844273
  38.6066437  95.1160240  82.5603294  38.4867239  95.7265854  81.1805439
  35.3499222  99.7389412  77.1559477  35.5064106 100.4751396  77.7473545
  35.3997374  98.9655876  77.7177954  52.1154308 103.1003571  93.8031673
  52.8997469 103.6465549  93.8555908  52.2544670 102.5553036  93.0286884
   1.6133625  47.1401262  14.3947176   1.1831123  46.7607164  13.6284499
   2.1211941  47.8727578  14.0460162   0.4198200  44.3991422  15.9197859
   0.5819518  43.4955262  15.6488280   1.2909062  44.7915887  15.9783415
 102.1086920  39.9434900  31.1261420 102.7242411  39.3817949  31.5971331
 102.6447690  40.6670999  30.8017401  33.5278606  87.1100998  90.1299381
  33.3705449  87.9146767  89.6358299  33.5882401  87.3966122  91.0412502
 110.0727332  33.4534025  32.8272299 109.9119342  34.3273782  33.1829695
 110.3990162  33.6116838  31.9413905  83.6406344  24.0252532  85.5157566
  83.3488959  24.9353541  85.4624367  84.5930022  24.0831221  85.5923843
  47.4143744  99.3583584  85.7350159  48.3276653  99.1551495  85.5329323
  47.3221111  99.1478252  86.6642094  25.0930292  64.3657254   5.2036528
  24.8657162  63.5580301   5.6642870  24.5698864  65.0421285   5.6338171
  49.1558599 104.5950317  72.9582262  49.8439932 103.9494228  72.7973366
  49.3803310 105.3312206  72.3891211  64.0344524  83.9118385  78.3930731
  64.2588282  84.8203087  78.1916428  63.1603336  83.9611626  78.7800026
  65.3152579  22.1405638  94.4392681  65.4579324  21.3550414  94.9673080
  66.1549777  22.2937621  94.0060997  49.7143650  91.5845585  91.7048454
  48.9828730  91.5669918  92.3219681  50.3538322  92.1717167  92.1080303
  75.7522297  68.5191250  89.2124176  76.7033482  68.5727644  89.3058681
  75.4427624  68.2343006  90.0722599  99.8576945   0.5721224  90.7941628
  98.9426249   0.7798995  90.9831333  99.9007100   0.5268801  89.8390007
 107.6945389  36.5634107  43.6682276 107.9248607  35.9996747  44.4067244
 108.4388268  36.4913701  43.0706648  10.2988274  22.8730392   2.7916293
  11.0578806  23.4201669   2.5898127   9.6761830  23.0585479   2.0886855
  36.3410456  34.8030710  18.9412169  36.5298159  33.9774560  19.3872599
  36.1920292  34.5539140  18.0291037  39.3138433  63.6014700  91.1895561
  40.2259350  63.3353472  91.3057423  39.0000892  63.7750816  92.0770454
  10.3919251  67.1813726   7.5843482  11.2791187  66.8283700   7.5172476
   9.8238308  66.4126348   7.5339655  46.4650042  31.3336229  22.3753218
  45.6019861  31.5363931  22.7363066  46.7101557  30.5068445  22.7907328
  25.6099445  20.6027889  45.8296542  26.1430294  20.1081895  45.2072196
  25.3005964  21.3595008  45.3317313  23.2686360  42.9962682  25.5769877
  23.8012535  43.5973405  25.0561671  23.8451225  42.7220105  26.2902026
  58.7658215  98.2425976  73.9420414  57.9830360  97.7231407  73.7586308
  58.8556337  98.8170624  73.1816769 115.8536136  41.5510129  20.4436545
 116.3911379  42.1638345  19.9419169 114.9597204  41.8779897  20.3423171
  43.7553389  43.8755845  27.2104887  43.9060003  44.0629434  26.2839751
  43.9785654  42.9497957  27.3070197  53.4793741  71.8208932   6.5201907
  53.6642344  71.9961976   7.4428706  53.4628279  72.6859044   6.1106829
  24.9637015  32.9230356  25.7233767  25.4959376  32.3133039  25.2123122
  24.4078428  33.3565759  25.0758509  34.1820557  91.4041948  11.6771464
  34.4055922  91.0274648  12.5282340  33.6696226  90.7234334  11.2410311
  77.2658777 107.3974514  91.1550999  76.5310907 106.7850018  91.1901569
  76.9093847 108.1748962  90.7253075  52.6615858 102.4622726  80.3111076
  51.8398905 102.5035763  79.8218822  53.0415821 103.3355618  80.2152157
  15.1023579  88.3337688  91.6926003  15.7414210  88.1685734  90.9993935
  14.8793602  87.4642658  92.0249653  41.1880827  61.5452480  87.1673107
  41.8602943  62.1133900  87.5435829  40.5725574  62.1471262  86.7488670
  55.0361729  97.4605465  76.1694765  54.1609907  97.0810032  76.0904598
  55.5701208  96.9621468  75.5508280  70.6179667  75.8258438  80.8567429
  69.8487711  75.5444956  81.3521385  71.1204910  75.0230217  80.7182789
  84.8718804   3.5536326  91.8842888  84.0750569   4.0210284  92.1349716
  85.3546876   3.4466589  92.7038574  35.7458973  66.0338354  95.5702496
  34.9080968  65.9576130  95.1136112  36.2873197  66.5686464  94.9896717
  80.3712177  92.3024368  92.4087524  79.9941826  91.5167141  92.8046322
  80.8121681  91.9854736  91.6205120  18.1166536  14.2649745   7.4025492
  17.4821503  14.0724801   6.7122035  17.5815565  14.4719791   8.1687407
  77.0776224  87.0725250  83.3975410  77.4884987  87.6910973  82.7935696
  76.8303347  87.6045895  84.1538334 107.9237640  49.2836904  21.4938025
 107.0816529  49.5614099  21.1333041 108.1703079  48.5229444  20.9677653
  44.9796946  65.2746438  10.6703238  44.5074160  65.8778524  11.2441973
  44.8035509  64.4080686  11.0367445  80.0748444  99.5820713  91.0589695
  79.4384766 100.2671719  90.8542442  80.7152176  99.6301365  90.3491497
  19.6244747  23.3324289  10.7229857  20.5251534  23.0117320  10.7694678
  19.1100390  22.5658702  10.4700522  27.8508694  19.4004726   0.2291541
  28.3651526  19.9232482   0.8443312  28.4115870  19.3180417  -0.5422254
  10.5116160  45.9024095  10.8246092  11.0945828  45.5521344  11.4981703
  10.2958996  45.1468229  10.2780013  36.9934392  82.8401184  91.8190956
  36.9888234  83.4949207  92.5172615  37.9173422  82.7419853  91.5888596
  11.2602741  57.8162431   6.1335043  12.2028525  57.9827832   6.1270480
  11.1230452  57.2456312   6.8896822  32.7012188  63.6236524  12.8055243
  31.8898375  64.0493535  13.0824332  32.4962170  62.6887082  12.8142313
 115.4589880  32.6176976   7.8197340 114.9799359  33.1455945   7.1809248
 115.8964575  31.9465303   7.2959094  19.6267206  11.7413043  14.2246966
  20.3694565  12.3360967  14.3286376  19.6451885  11.1954307  15.0107722
   8.4205372  44.2840719  21.3430266   7.8219349  44.0850114  22.0629458
   9.2907984  44.1029786  21.6981081 100.0279320  30.6214666   3.8712172
 100.8968723  30.5680036   4.2691092 100.1922977  30.5726194   2.9295020
  18.2895029  83.2048702  91.1409283  18.8530612  83.4321785  91.8805027
  17.7334809  82.4993134  91.4714813 108.9744246  25.1788949  35.0474410
 108.2490290  25.5206632  34.5247321 108.7086237  25.3309488  35.9543376
 116.3995684  47.9718351  16.9566111 117.2757495  47.6245641  17.1237807
 116.5371383  48.6719751  16.3185648   1.4404709  43.7737798   9.8052649
   2.3497898  43.7552976  10.1036410   1.4929802  43.5972833   8.8659434
  41.6305923  75.0512171  39.6063805  41.7466164  76.0004044  39.6489453
  42.0242071  74.7990274  38.7710953  18.6039531 106.8067360  82.7143669
  19.2929041 106.8096447  83.3788776  18.6579466 105.9375095  82.3171806
  26.0635757  79.4484568  82.4749184  25.2557039  79.9610996  82.4471569
  26.7624855  80.1024818  82.4717903   0.7717807  38.4224939  25.3729205
   0.3783400  37.7800988  24.7823576   1.6851837  38.4780835  25.0921492
  51.1627436  89.6261406  82.5247192  51.9607115  90.0163078  82.8814507
  51.2020493  89.8153210  81.5872288  29.3958974  90.2966404  69.6857643
  29.0915132  90.4101944  68.7853813  29.5545721  89.3562889  69.7681570
  55.0842619  76.0633039  91.4281940  54.2406464  76.5155697  91.4285469
  55.6720114  76.6523552  91.9012642  52.3060465 108.2133579  79.9386740
  52.7026844 107.3428631  79.9725771  52.5910616 108.5738850  79.0990210
  17.8507311  45.0383615  23.0207781  17.0648367  44.6443033  22.6422076
  18.2491858  45.5211686  22.2966532 105.9403628  19.1006602  75.1914978
 105.9866494  19.5028151  76.0588837 106.0324162  19.8334063  74.5825386
  75.3620428   9.2449511  66.1538172  75.3825516  10.1776255  65.9395075
  74.6530646   8.8913096  65.6166792 101.7518395  29.7469653  69.4676304
 101.8487185  29.4526614  68.5619640 102.2876233  29.1380538  69.9759579
   8.9745171  92.8224801  46.7005972   8.3740933  92.2356080  46.2409167
   9.5467980  92.2381448  47.1978621  76.6045523  90.7084656  95.2902412
  77.4707079  90.8857250  95.6571007  76.7746067  90.1424122  94.5373249
   3.0394156  59.5625638  13.1496577   3.0064327  58.6080121  13.0866961
   2.1808846  59.8097371  13.4932665   4.2288143  65.4719877  17.2423701
   3.6198694  64.8791169  17.6827387   3.9167959  66.3479184  17.4695544
  98.8969624  40.9889745  34.9446539  98.8487041  40.4641580  34.1456084
  99.7054565  41.4929055  34.8517661  51.0139353  22.4003076  44.7382121
  51.5965159  21.6444873  44.6635775  50.6768305  22.3554467  45.6329588
  53.0178928 100.5591297  87.0643902  53.5491419 101.1428452  86.5228271
  53.3476353  99.6825981  86.8664169  90.4414940  63.8420200  76.6344118
  90.4339600  64.2600346  75.7733440  90.0789452  64.5027113  77.2245646
 113.6166489  19.9474620   8.8955454 113.4761036  19.6194028   9.7837214
 112.9092658  19.5579528   8.3816103  44.6063232  82.2851562  65.7907534
  44.4652796  83.1093979  65.3249598  45.3022289  81.8485069  65.2995443
  78.0799097  14.8088397  67.3907280  78.8337535  15.3822936  67.2525263
  77.4388880  15.0948752  66.7399549   1.8946422   6.3742960  87.1279716
   1.8396009   6.2264479  88.0720806   2.7819217   6.7053069  86.9886971
  22.2506506  77.4957322  11.0029273  21.5072710  77.6675844  11.5809302
  23.0201084  77.6257276  11.5572505   0.2616841  36.8034696  23.1454043
  -0.0877064  37.0339155  22.2845511   0.5354054  35.8905839  23.0562548
  97.2497577   9.9579371  92.7877522  97.9230422  10.5671252  93.0907536
  97.5908631   9.0924681  93.0132389  61.7784500  77.2655392  88.9809132
  62.6489592  76.9730663  89.2509270  61.9460154  77.9567671  88.3403301
  78.3045292  86.4954758  89.2080593  78.0042839  85.9350204  88.4925270
  79.1926289  86.7493439  88.9569569  96.6927672  70.2444982  10.8989958
  96.0749531  70.8073854  10.4324202  96.1471892  69.5611715  11.2884001
  36.7677546  93.1936741  82.2388172  37.2493792  93.0333614  83.0503464
  36.6732907  92.3280239  81.8413830  30.8055973  82.0684433  73.3945513
  31.3408685  81.2759876  73.3530664  31.4040112  82.7747059  73.1509638
  24.9703819  37.0427274  16.3801054  25.8089716  37.1112203  15.9236960
  24.8703129  36.1075830  16.5582041  28.3740217  46.3816404   1.5772395
  28.8428337  45.9048414   2.2621493  27.5596077  46.6617631   1.9949679
  34.4183762  31.8960332  25.4680686  34.5988495  31.3274240  26.2166266
  33.4986622  32.1410608  25.5696635  10.5669672  43.7440538  14.3870120
  10.3190453  42.8487443  14.6176486  10.1221592  44.2902517  15.0351195
  26.9956953  48.3878183  21.8403677  27.8223450  48.1080007  22.2335391
  27.2475941  48.7702512  20.9998183 114.0765828  12.5788153  66.8658495
 113.2308692  12.2650851  66.5455818 114.4815463  12.9948176  66.1048126
   9.7716648  35.3096341  30.4770426   9.4346983  35.1594018  29.5937972
  10.1314432  36.1961889  30.4485564  83.9155686  34.5460080   9.4605593
  83.3357358  34.3638276   8.7210803  83.9698094  35.5011224   9.4927554
   3.4332336  13.5593070  79.1491318   3.6082900  13.3382166  78.2344151
   3.8799442  12.8769339  79.6501875  19.2020924  25.6868982  12.0461230
  18.9387304  24.9174070  11.5413813  20.1300509  25.5446862  12.2329478
  98.7283218  33.4994935  10.9928565  98.4654820  33.2848405  11.8878893
  99.6851695  33.4845018  11.0141139  70.0968522 106.3668977  27.8140597
  69.3792218 106.1097728  28.3929591  70.8785457 106.3151561  28.3640723
  78.2738227  15.8131922  95.0892353  78.5317582  15.5059279  95.9583092
  77.5089950  16.3664092  95.2480221  90.9160346 106.9727526  11.3828997
  91.5577144 106.6649304  10.7428031  91.3371724 107.7229939  11.8024401
  47.3635847  58.5311555  52.3439173  46.8256075  58.9667939  51.6828398
  47.0420534  57.6296949  52.3583369  90.1841247  53.9669465  13.3609061
  90.8686209  54.3526506  13.9076476  90.1653135  54.5165300  12.5774245
   0.5828530  37.5281858   7.4042182   0.0501306  37.1383714   8.0973868
   1.4720375  37.2237634   7.5856547   7.1413166  75.3809118  31.7386584
   7.7618916  74.8245096  31.2679724   7.6579506  75.7742452  32.4419360
   9.5843768  96.6098499  92.2723293   9.0856576  95.9650517  92.7740765
  10.2773058  96.8935013  92.8686714   8.3232654   7.9661120  92.0042324
   7.5219882   8.3423270  91.6400146   8.3235038   8.2439936  92.9202080
  74.9065685  84.8836994  90.6924915  75.0252247  84.0377235  91.1243153
  74.1070557  84.7792530  90.1766396  28.2449085  75.2934694  23.9691596
  28.1301958  74.4811487  24.4623236  28.9009077  75.7838296  24.4645838
 104.2758024  56.7803430  12.8678183 105.2005136  57.0186567  12.8019003
 104.2419756  56.1481809  13.5857729   8.9899141  40.2772950  18.6929469
   8.2207615  40.6048726  18.2267622   8.8387186  40.5217504  19.6059660
  35.8642037  55.6670045   6.5242247  35.1793511  56.0199022   7.0922713
  36.6815931  55.8753919   6.9766478  29.8311360  15.9813022   4.8304324
  29.1538841  15.6575870   5.4243807  29.4510204  15.8830404   3.9574580
   5.1729138  33.0393934  18.5672717   5.2945597  33.9880323  18.6061816
   4.9614174  32.8624296  17.6506571  31.0160620   0.4419755  27.8456454
  30.4292233   1.1288499  28.1619505  30.4623348  -0.3363419  27.7836661
  33.9218020  75.2429008  95.1191425  34.3312454  75.9935713  94.6889305
  33.4117270  75.6250048  95.8333206  29.8500187  23.4521579   0.7453589
  30.0404484  22.5682735   1.0595564  28.8953859  23.5160684   0.7740740
  87.1851033  21.5638674  72.3232079  87.5022048  22.4669112  72.3369026
  87.7947349  21.1046828  71.7455149  22.0098717  51.4136934   8.9446311
  22.7535278  50.9042310   8.6226897  21.2848646  51.1687803   8.3696417
  79.0007734 105.4035091  83.7963295  79.5019102 106.2188721  83.7794018
  78.2607365 105.5891800  84.3743515 104.3656701   6.4421881  82.8571033
 104.6521634   6.5630473  81.9518089 105.1471728   6.1351431  83.3166695
 107.6799929  23.2854842   1.5471987 107.5244844  22.3467302   1.4432959
 108.6330426  23.3733892   1.5330748   6.5171797  28.7665414  25.7091860
   6.7433245  28.4174012  26.5712790   6.7393191  28.0625486  25.0998644
  65.5657465  24.5957088   3.9585452  65.3294546  23.7734460   4.3878321
  65.6783182  24.3612527   3.0373625  30.5032570  38.5130643  41.4572482
  29.7978241  38.9411115  41.9424014  31.2054188  39.1631173  41.4321379
 115.9438384  39.9256276  10.9113078 116.6297734  40.0794935  10.2616553
 115.6033790  39.0566015  10.6989054  52.7593691  85.1955270  32.4679522
  52.7394564  84.8972749  31.5586237  53.2755549  86.0012769  32.4444823
 102.6852197   4.9994124  84.7123241 102.9883689   5.5878199  84.0208721
 103.1317681   5.3067721  85.5012226  32.0304346  95.8664608  75.1631641
  31.5720654  96.6366386  75.4992628  32.8366160  95.8241463  75.6774712
   9.2254812  47.4949312  23.3260588  10.1161320  47.3582792  23.6490016
   9.0450461  48.4179162  23.5043101  88.5399032  60.2409314   0.6740717
  89.3703747  60.6334161   0.9433417  88.4862602  59.4268464   1.1746935
  60.2513361  99.9680519  89.5625401  60.5472183 100.8200550  89.2419624
  59.3739605  99.8649883  89.1939926  99.0930450  29.9316549   0.6831603
  98.3611453  29.3194341   0.7589678  99.8557985  29.3748903   0.5267577
  27.7388222  61.5914869  33.5226779  26.7944986  61.4833497  33.4096007
  28.0364735  60.7502221  33.8689665  66.0926533 103.0205631  74.1978168
  65.8581495 102.9745674  73.2709312  66.9562769 102.6107121  74.2470026
  23.1184132  16.3572645  33.1326918  23.4100039  15.4933214  32.8414874
  22.1632321  16.3158845  33.0863051   1.5132696  19.1677379  11.0198073
   2.0900709  18.4958505  11.3832526   1.4599354  19.8338746  11.7051177
  25.3869373  57.2589826   6.9243769  26.1208708  57.7007913   6.4973216
  24.8266918  56.9732522   6.2027792   7.9064780  64.3346262  95.1678085
   8.4382993  65.1179790  95.0272465   7.2041464  64.6233463  95.7505703
  41.3170130  50.8879613  19.7607855  42.0265467  51.2861871  20.2649741
  41.6395456  50.8785581  18.8596110 116.4551986  29.8692369   6.7983679
 117.2355497  29.8850583   6.2442545 115.9176410  29.1655206   6.4349799
   6.2918819  12.4886168  92.4330902   7.2185195  12.3327292  92.6155186
   6.1714328  12.1888197  91.5320683  10.4624779  27.5026941  41.7901282
  10.1899750  26.7051267  42.2438483  11.0012371  27.1921014  41.0624556
  48.4107256  75.4868364  90.0142288  49.2688417  75.8225918  90.2733421
  47.8974152  75.4924488  90.8221340  21.0221464  52.4718808  25.1316027
  20.0926716  52.6714944  25.2432208  21.4602072  53.3193540  25.2098994
  35.7543165  18.9463043  13.4803252  36.6453774  19.2793321  13.5868315
  35.3445561  19.0809917  14.3348364  36.2156987 107.9494858  94.2566013
  35.4783416 108.2748318  94.7730160  36.3970137 107.0819187  94.6181297
   0.2724607  59.5666646  14.8062090   0.3150899  58.6959695  15.2015643
  -0.3831570  60.0332403  15.3245787  43.3329661  38.5955381  13.3486704
  42.8416140  38.3794641  12.5561385  43.5688955  39.5168733  13.2404856
  30.6704218  32.0991182   0.9865145  30.0991089  31.4630079   1.4168601
  30.3008444  32.1978425   0.1090769  36.0925896  61.4975023  15.6154685
  36.6682274  60.8261728  15.9817843  36.3706238  62.3090886  16.0400443
  55.0942135  88.6979961  88.6424065  55.5654669  89.4557858  88.2961369
  54.3260050  88.6150169  88.0774307  77.6711082 102.2434139  74.4751501
  76.8149805 101.8969250  74.2237091  77.4852419 103.1198788  74.8120308
  61.6406059  98.5871220  74.0802145  61.5294456  99.5112419  74.3035650
  60.7704639  98.2059669  74.1977215  12.2497160  42.7113580   9.8090796
  11.4399321  43.1922483   9.6381144  12.7587969  42.8056478   9.0039877
  76.1909849  24.0477561  36.0737757  76.9908888  23.6975049  35.6817297
  75.6573565  23.2752179  36.2599425  74.8998642  89.9440193  82.1468163
  75.2050161  89.2711926  81.5382004  73.9562893  89.7972107  82.2127151
  85.9369373  96.1757374  61.8980598  86.7050076  95.8846855  61.4065409
  85.4755592  96.7607403  61.2971210  19.0106470  52.5657415  20.8977847
  18.8989098  53.5030889  21.0563139  18.3507950  52.1487951  21.4518408
  43.6839867  90.8868027  89.5747471  44.5315504  90.6535149  89.1960049
  43.0725193  90.8413315  88.8397217  11.4455397  24.8299455   9.3706946
  11.6003306  24.7181844  10.3086619  10.6717045  24.2961883   9.1903739
  91.2904740  54.1207742   8.6375765  90.9913373  53.3017682   8.2426409
  92.1060515  54.3237256   8.1794505  72.0562935 103.1940842  76.1708593
  72.7697182 103.5130119  76.7236137  71.7599010 103.9681149  75.6920433
 113.0335725  50.6345796   4.2112402 113.8338054  50.3529977   3.7678675
 113.2887876  50.7291078   5.1289324  66.4928675  91.2227535  83.6109734
  66.1771965  92.0155239  83.1772709  67.2225285  90.9264565  83.0668831
 101.2332070  60.3488397   3.6355834 101.9030822  60.7309484   4.2025904
 101.1495316  60.9695768   2.9117732  10.4840452  28.3708429  17.2757678
  10.1142199  29.2496919  17.3599486  10.6378872  28.2646322  16.3369994
  97.4128360  25.1040877  83.7053585  97.6407117  24.4426096  83.0520916
  97.6574820  25.9357584  83.2995129  26.0882599  46.5860605   9.7070174
  26.8200333  46.0925149  10.0773577  26.4095051  46.8898439   8.8580470
   4.9314100  58.3632898   8.1418185   4.1496594  57.9291105   7.8003745
   5.3971893  58.6657762   7.3622088   4.9813969  49.9982499  21.3850932
   5.6382877  50.2442216  20.7337622   4.4846851  49.2931985  20.9698634
 105.5495489  23.9526462   8.3558611 104.9029363  24.6519136   8.4515051
 105.1958216  23.2272910   8.8706164  21.3478548  53.6370611  17.0313124
  22.0757897  54.2379236  16.8722300  21.3932306  53.4487104  17.9686980
  52.0498228  66.8077230  69.7762346  52.7884436  66.3531637  69.3712091
  52.2813892  66.8622160  70.7034016  70.7069731  81.5915966  85.4675007
  70.8541489  81.2400723  84.5894337  69.9499464  81.1065292  85.7958984
  13.4886534   8.7975358   9.6044116  12.5314982   8.7888336   9.6080832
  13.7242157   8.8410568   8.6776690 107.3845256  65.0296354   9.5217471
 106.7337931  65.2472066  10.1891570 106.8783129  64.9380540   8.7145285
  25.3682310  38.1026601   3.8833003  24.9930079  38.1872224   3.0067782
  24.6870453  37.6655053   4.3942885   6.4304859  16.0689782  19.9031405
   5.9061510  16.8284034  20.1572661   5.9511501  15.3185939  20.2544169
  23.4754307  70.0575303  61.7162756  24.1694052  69.8328256  61.0964827
  23.1427652  69.2129182  62.0199065  67.6921701 107.0482635  84.5991516
  67.0358801 106.8299961  83.9374352  68.4902334 107.2172165  84.0983677
  43.7741549  19.3510293  28.9194731  43.3671839  19.6857452  28.1203608
  43.9656908  18.4336614  28.7245707  58.5830862  59.5261907  45.9245734
  57.7455694  59.9852609  45.9882693  58.4793551  58.9417218  45.1736693
  26.1413527  59.3152332  86.1054993  25.8856893  60.0237370  85.5148315
  25.3699732  59.1700172  86.6533279  76.2668318  17.2756899  92.2400570
  76.2416667  17.2140540  93.1949425  76.4999098  18.1874121  92.0649624
  35.9082842  60.0138855  82.7862549  36.1894107  59.9988699  81.8713951
  35.1495218  60.5973673  82.7941132 113.0442447   0.1388205  88.4471703
 113.6022109  -0.6155263  88.2578087 113.3159846   0.8027972  87.8135109
 116.3417209  50.0513601   8.0173926 116.9729293  50.4004621   7.3881583
 116.7811716  49.2928075   8.4017329  47.3188543 100.0032616  79.4102430
  47.3862267 100.9491730  79.2800283  48.1995296  99.7341156  79.6713781
   0.4538686  49.5292615   2.6303248   0.1627786  48.6755895   2.3097758
   1.4061625  49.4514703   2.6879267  36.7975116  81.2280273  67.4149370
  37.5916386  81.4534760  66.9304037  36.1589217  81.8897820  67.1493816
  49.0851355  78.1992579  91.7533016  48.6971569  77.8309727  92.5470734
  49.9185038  77.7381420  91.6578674  58.5281832  28.3380269  13.1207804
  57.8735144  29.0314245  13.2036070  58.6136610  27.9824495  14.0053706
  24.8235399  56.5425443  12.8260569  25.1197035  57.3350953  12.3784117
  24.8933346  55.8538102  12.1649889  70.3520393  99.5341396  78.3209133
  71.0023212  99.1396523  77.7397490  70.1109743 100.3537941  77.8892946
  50.8040602  57.4697732   4.2336611  50.2260573  56.8505430   4.6794180
  50.6280787  58.3096170   4.6578269   8.7260468  32.6384496   1.5144972
   8.8565237  31.6902589   1.5265994   7.7915175  32.7494096   1.3396601
 107.8726375  11.2072229   6.1670737 107.0780170  10.6904840   6.0336833
 108.5724843  10.5575704   6.2333922  96.2141919  68.0020284  50.2181105
  95.5114305  68.5697507  50.5344252  96.4429486  68.3594178  49.3601088
  16.9148285  29.5738076  22.5623660  16.1342318  29.7071790  23.1000571
  17.2638447  28.7307977  22.8517870  47.9765463 106.9131947  89.7886372
  47.1989775 106.3585949  89.8522282  48.3135605 106.7529964  88.9071655
  92.2397709  84.5137501  86.4830017  92.5514984  85.0743389  87.1934891
  92.9925537  84.4274998  85.8980942  87.3569411  42.8150881  76.3255739
  87.7280873  43.0052603  75.4639959  88.0184430  42.2744788  76.7573023
  33.8137150  59.9075365  94.9610901  33.8655639  59.7056580  94.0268517
  32.9925132  60.3899527  95.0566673  49.1035080 107.4621010  74.1931057
  48.9631796 107.5884342  73.2547140  48.7859631 106.5757275  74.3655682
 100.4716367  22.7592791  60.2570438  99.7843188  23.4167803  60.3644180
 100.2993697  22.3705710  59.3994570  61.5518744  29.2275571  11.9967894
  60.7838423  29.0934419  12.5521044  62.2937281  29.1877603  12.6003603
  15.5146439   6.3565921  13.5629420  16.3194449   6.1040925  13.1104235
  15.6550152   6.0859012  14.4702773  95.1463050  14.4049681  89.1293144
  95.3386468  15.3310717  88.9824009  94.6560925  14.1359843  88.3524132
  19.8878843  11.0528230  10.6129221  19.0954096  11.5378665  10.8430247
  20.0592787  10.4989003  11.3745169   9.8034317  56.9640588  24.5150809
  10.1014263  57.7618074  24.9521498  10.2715189  56.9592618  23.6801581
  50.2685308  97.0413494  72.8585339  49.9375820  97.0516777  73.7566423
  51.1758661  96.7477798  72.9409885  87.5689334  15.6327284  86.6994953
  87.6590365  15.2942217  87.5902939  86.8050927  15.1767577  86.3461208
  55.8421595  67.2865819   5.7947497  55.0120718  67.7327680   5.9623580
  56.0318262  66.8198633   6.6086535  58.1352312  37.9183530   2.7962832
  58.3218367  37.9192018   1.8574576  58.8695604  37.4439096   3.1860213
  67.6355553  95.8083057  86.3376141  66.9339037  96.2131786  85.8277130
  67.3482943  95.8895969  87.2470665  84.5776653  87.6224804  82.6052380
  84.7033119  86.7896557  82.1504307  85.4383659  87.8284454  82.9699421
  31.7733462  78.6456727  16.0150580  31.2723715  78.0241441  15.4868845
  32.5286467  78.8682412  15.4708056  31.4705593  37.0258760  15.1569800
  31.7354138  37.8443670  14.7372775  30.5262024  37.1166086  15.2842288
  44.8468781  84.4148350  77.9016447  45.5989265  83.9238644  78.2327127
  44.8031187  84.1883278  76.9726610   2.1816952  56.4968252  40.7840781
   2.8971512  57.1311616  40.8284907   1.4780981  56.8929815  41.2981181
  31.2591822  77.8313207   8.8212351  30.8547957  78.2773542   8.0770831
  32.1897347  78.0444478   8.7513785  25.4292834   3.2546843  69.1429377
  25.4152454   3.4758032  68.2117367  25.3673328   2.2997130  69.1633081
  79.1811609 103.2498550  51.0184145  78.4300661 103.7753391  50.7428026
  78.8248491 102.3704433  51.1445665  38.6656475  92.4071407  74.8811960
  39.5997238  92.5483418  75.0354481  38.4271955  93.0694675  74.2325830
   8.7829620  85.8501672   4.5596842   9.0791971  85.2446508   3.8800959
   8.4635956  86.6131734   4.0779643 107.7833271 102.8337574  95.3737164
 108.7087440 102.5934219  95.4191780 107.7591133 103.5814857  94.7765923
  88.5741013  20.1494921  83.7686539  88.9420670  19.4529570  84.3124104
  89.3235558  20.7028044  83.5486412   2.3800719  23.0941618  90.0360203
   1.4689840  23.1550063  90.3231621   2.5717700  22.1563948  90.0445843
  99.5585936   1.4498652  93.9365482 100.1519460   0.7349242  94.1668224
  98.6863440   1.0569418  93.9685726 109.1787118  18.8710822  92.3096275
 109.0246457  18.4994925  91.4410591 109.8987550  19.4886435  92.1816540
  39.3871815  45.8884000  10.7366519  39.2248184  45.0223302  10.3627734
  38.5146219  46.2557172  10.8779101  83.4110469  10.4195345  78.9663172
  83.7289018  10.0813998  79.8034954  84.1457433  10.9241808  78.6173439
  88.1232566   3.3249510  87.9023457  87.9095858   2.4726618  87.5226307
  88.6515778   3.1180323  88.6732483  64.0232277 103.2460308  56.4559317
  64.7780657 103.3972168  57.0247841  63.2826281 103.1656742  57.0570040
  56.9481260  94.7296857   7.2265105  56.4022619  95.4826497   7.4530177
  56.4483149  93.9716863   7.5295882  77.5632191  66.0966682  87.0009995
  76.7985010  66.4707661  86.5634060  78.2460213  66.7596102  86.8984318
   4.9917109  55.1206636  14.8843722   5.8885843  55.1336431  14.5501856
   5.0031597  55.7273435  15.6246714 114.3377179  16.1239851  87.8436279
 114.7486752  16.5993918  87.1216011 113.6494893  15.6048430  87.4276161
 111.9618702 103.6484528  73.5185623 112.2388458 103.2009983  74.3181276
 112.0565891 102.9898453  72.8304482  76.6734409  88.6734295  92.9570007
  76.5879583  88.5018539  92.0191956  76.5827465  87.8133011  93.3671093
  48.1271172 103.0616665  53.8197613  48.5683823 103.3715248  53.0288744
  48.2914686 103.7453651  54.4691992  51.8678856 100.6040668  91.7370033
  52.3033762 100.2592754  92.5165462  52.5620079 100.6611156  91.0803699
  96.8209553  70.0599670  74.5309353  96.3878632  69.3930244  73.9981556
  97.7516365  69.9587917  74.3313694 101.6984081  91.8991756  60.3225422
 101.9146347  92.5897694  60.9490871 101.8909359  91.0849953  60.7875967
  74.3857235   6.3721694  91.1632252  74.8209876   5.9319247  91.8932724
  74.3534297   5.7123412  90.4705429  78.8356847   0.4488410  89.9660492
  79.5964211   0.0283564  90.3669357  79.1907472   0.9146441  89.2089558
  69.1107702  96.8184757  81.6627216  69.5188713  97.6203823  81.3361740
  68.4773254  97.1201134  82.3138714  20.8441860   3.8263463   9.4960360
  21.3921053   4.5658254   9.7590498  20.1255829   4.2237138   9.0041594
  30.6316931  58.5782193  18.1933264  30.5852635  57.8140020  17.6188330
  30.7599909  59.3173456  17.5987963  17.6239473  39.5230722   4.7077136
  18.2937653  39.1998243   5.3102831  18.0585940  39.5436811   3.8551383
  35.8623631  92.2883176  14.1034846  35.3034479  93.0095434  13.8142066
  36.7501957  92.6443242  14.0682368 109.7944611   2.8677977  73.4374475
 109.7893590   3.5942210  72.8141403 110.6931991   2.5391711  73.4149170
  72.0719242 110.0145626  72.2105742  71.2266874 110.1657963  71.7875767
  72.3732233 109.1797543  71.8520403  15.0797064  71.0346078  19.5941023
  15.8425409  71.0320234  20.1722960  15.3262598  70.4595231  18.8697295
  72.0734961  89.0221834  31.7635302  71.7524035  89.0107297  30.8618693
  72.9927046  89.2780065  31.6872077  23.5338719  68.5652971  16.9707827
  24.0773089  68.2274389  17.6826529  24.0946991  68.5149907  16.1967234
  64.6464634  99.6283436  77.0560980  65.6015635  99.6238327  76.9928455
  64.3490887  99.2811871  76.2150955 111.2072009  22.8622473  66.3381577
 111.1591882  23.0454768  65.3998852 111.4616555  23.6965407  66.7324066
   1.7078287  21.7281484  12.2081141   2.2552187  22.5068807  12.1072535
   0.8160145  22.0693206  12.2752242   3.6993105  33.3435773   2.0762972
   4.4686682  33.0973768   1.5627722   3.1077416  33.7487649   1.4421801
  77.1413803 101.2553024  92.6586533  76.3052654 100.8988285  92.9587650
  77.7916765 100.8645153  93.2422924   9.8940349 104.9296951  77.1516609
  10.2124310 105.1401901  78.0294704  10.4572213 105.4346943  76.5651131
  16.7495949  68.0106305  46.8831782  16.6152889  68.5023259  46.0729746
  15.9972412  68.2386731  47.4292521  95.3042698  94.8646545  79.6178770
  94.3926907  94.6111870  79.7628117  95.2715778  95.8124352  79.4879341
  85.9615725  25.9464777  81.9526768  86.0055322  25.2079333  81.3453484
  86.7167205  26.4889086  81.7251968  47.7095110  44.6711873  20.2166419
  47.9769880  45.2843999  20.9012370  47.3943789  45.2288579  19.5053629
  84.6098727   3.3139647  70.4952478  84.3867129   2.4451769  70.8293867
  84.9061078   3.7981833  71.2659645  24.7036106  81.3128804  27.0174841
  24.4594223  82.2293996  26.8886523  24.5327456  81.1475515  27.9446845
  96.9155121  99.5760822  77.8277683  97.1324348  99.7063732  76.9046211
  97.0873260 100.4245281  78.2362366 107.4123019   2.2908724  81.6631031
 107.3150987   1.3406027  81.6016388 106.6795129   2.5716437  82.2112083
 111.4755601  13.6736907  93.9962673 112.2961778  13.6326922  93.5052013
 111.6660518  13.2232035  94.8190689  19.8046238  49.5426702  11.4339118
  19.2658503  49.9320459  10.7451872  20.3527100  50.2630090  11.7452769
  87.3307342  37.2513140  82.1060085  86.5353555  36.7650355  82.3231220
  87.0141572  38.0780638  81.7420101  76.7851591 106.1429119  85.5696774
  75.8631039 105.9536076  85.3958702  76.9375134 106.9922543  85.1553917
  30.0286674  96.4156723  94.6082878  29.8290873  95.6314754  95.1195908
  30.4659224  96.0851097  93.8235760  17.8867591   8.0879439  48.7828302
  18.1829227   8.3490313  47.9108524  17.2530711   7.3889674  48.6212349
  50.5971319  45.4552602  18.0013804  50.4670126  44.5074891  17.9692988
  50.2951510  45.7674932  17.1484236  47.0397377 101.1630344  64.5133495
  47.8181887 101.0519123  65.0591564  46.8582439 100.2866936  64.1737556
  37.4937040  59.3464517  16.7746501  37.3240168  58.4316015  16.9993262
  38.1054194  59.6484899  17.4460749  12.2475208  19.0702666  74.5242453
  12.4302066  18.1548918  74.7362518  13.1112254  19.4661845  74.4080877
  56.2041552  39.0486192   5.9077887  57.0937140  38.9955091   6.2571959
  55.8059866  38.2090806   6.1377387  52.8827620 104.6787453  45.0840330
  52.0200253 104.6266460  45.4953671  53.2515097 105.5019474  45.4043579
  27.3433287  58.4096765   5.2087645  27.7264530  59.2831659   5.1283507
  27.7222235  57.9141855   4.4827132  35.7847340  44.1731023   1.8519549
  35.1950867  44.1129255   2.6035742  36.1314995  43.2869958   1.7480330
  23.9974768  38.5146474  10.4057078  24.5671637  37.8623151   9.9981074
  23.1148274  38.2677888  10.1296191  25.3305466  81.8765783   0.4469733
  25.5504067  81.9876432  -0.4779954  25.9592850  82.4296426   0.9106879
 101.9427413  25.3956069  78.1940413 101.4082211  24.6375884  78.4305334
 101.3543242  26.1440123  78.2935238  64.4358272  40.3892268  87.7669239
  64.5097417  39.4795836  88.0555725  63.5209507  40.6186617  87.9299927
  13.0974705  52.2172689  28.7313609  12.9217703  52.2854661  27.7928977
  13.3291132  51.2982606  28.8655047  34.4480259  67.1822976   3.8132243
  34.2109043  66.2828397   3.5874419  33.9523298  67.3676442   4.6108298
  26.0339005  66.3156843   0.9629206  26.2798340  66.7474412   1.7810397
  25.8613999  65.4081201   1.2135081  16.8300373  70.6930780  30.5247645
  16.0315497  70.3771924  30.1018481  16.7605478  70.3848123  31.4283041
  54.1723425  50.3446245   1.1852412  54.8040945  50.9468126   1.5782790
  53.5196192  50.2013730   1.8705611  24.1374476  51.5428972  20.9939532
  23.7385494  50.7009553  21.2136034  24.3741448  51.9236898  21.8396525
  86.4665890  72.6578808  80.0343037  87.1740341  72.1595573  80.4434872
  86.7293072  72.7379990  79.1173601  76.2910414 102.7437305  71.3723326
  77.2101641 102.8897667  71.1484671  75.9589529 102.1857929  70.6690121
  62.3436689 101.5729141  79.6020508  63.0780602 101.3922596  80.1887894
  62.2149086 102.5193977  79.6638966  43.9331133  56.3158654   9.2348914
  44.4713671  57.0723771   9.0020613  43.0898745  56.4832258   8.8139586
  76.5714025  97.9133797  74.2603207  76.7037582  97.2004509  74.8851824
  76.9412041  97.5852203  73.4406900  39.3107636  50.6255292  30.2514414
  39.4834549  51.4363241  29.7728877  38.4950812  50.2945756  29.8754649
  13.7771857  36.8748606  87.1886826  13.8173164  37.5029601  86.4674950
  13.4732116  37.3885191  87.9370117  60.1636362 109.8302555  73.3120537
  60.2525330 109.8109913  74.2649221  60.1129055 110.7611465  73.0950022
  10.9109462  21.2126196  75.1219082  11.3475860  20.5156840  74.6321440
  11.0347522  21.9958819  74.5858097  85.4262465  18.5339392  92.8656864
  84.8239201  18.1271208  92.2428513  85.4547280  17.9252089  93.6038399
  17.1840651  59.4293355  29.0196375  17.1721203  58.8022661  28.2965331
  16.5166647  59.1083383  29.6260790 108.7809342  13.8614882  90.4632092
 109.1797131  14.1399992  91.2876034 109.5233649  13.6908091  89.8836422
  62.2461128  97.8282356  80.9279346  61.5126657  98.3218956  80.5610657
  63.0086327  98.1297112  80.4340553  43.7619574  42.3148298   1.0781054
  44.4589312  41.7906045   1.4726309  44.1780455  43.1526326   0.8751635
  49.6821005  51.0092592  28.5514502  49.3420107  51.1728429  29.4311194
  50.5750258  50.6954335  28.6944060  66.7856121  96.5798378  88.9121723
  67.5293398  96.1211681  89.3029594  66.0382032  96.3311100  89.4559860
  32.7705223  40.4594278   9.4226603  33.5857231  40.2090310   8.9879469
  32.3961622  39.6318578   9.7246985 114.7695750   3.5184706  92.3459625
 115.1916284   4.0760935  92.9995346 114.4351977   2.7740611  92.8462410
  97.4890870   3.3168543  79.3546772  96.7387933   3.5391844  79.9059105
  98.0638570   4.0800322  79.4132900  59.5056295 107.8672695  75.5225039
  58.6644936 107.9466438  75.0725985  59.5942688 108.6857986  76.0107613
  27.6388962  61.4225244  18.0254035  27.4341805  62.3384332  17.8371672
  27.9161722  61.4224862  18.9415698  45.6200981  86.2917709  93.8736916
  46.5712786  86.3918591  93.8353634  45.4107380  85.7107735  93.1423664
  86.8347549 107.4130630  53.4735394  87.5817108 107.9840660  53.2939959
  87.2060394 106.6804218  53.9650917  82.7319241 101.9079590  75.0880051
  81.8537807 102.2740269  74.9827528  82.5881577 101.0541916  75.4962254
  83.6783713  14.6434916  88.2197762  83.3548230  15.3713549  87.6889610
  84.2420024  15.0562609  88.8741207  23.6490090  53.2002878  12.6177458
  23.1146128  53.8498163  13.0746512  24.0505774  53.6849832  11.8966059
  22.0507860   3.8624963  87.7956104  21.2418962   4.3493521  87.6378059
  21.8197250   3.2274058  88.4734726  51.7803210  61.8050770  12.0172076
  52.5200480  61.4959411  11.4942603  51.0903222  61.9787435  11.3769106
 109.9195545  10.9165788  75.4954863 109.0862065  11.3467956  75.6869984
 109.6732437  10.0998235  75.0613499 104.0468084 109.2671592  49.3598938
 105.0030529 109.2552105  49.3188715 103.8304221 110.1545670  49.6461058
 100.2743059  22.4517894  49.3168831 100.3620594  21.6471267  49.8278141
 100.6095963  23.1389356  49.8927689   8.1506050  19.4748235  60.9797001
   7.8606927  18.6737859  60.5432081   7.6348811  19.5086634  61.7853737
  52.8036052  62.3094343   6.2450175  52.3561663  62.8107063   5.5632834
  52.9158551  62.9307334   6.9644694  45.0410986  15.3749979  80.2776623
  44.3843174  15.1752603  79.6106005  44.5460081  15.4187512  81.0957146
  16.3088870  34.7008824  94.3429756  15.5545783  34.9399209  93.8043499
  17.0636082  34.8281074  93.7681293  20.8480007  36.9135390   4.2723994
  20.1118702  36.4389716   3.8862280  20.5484253  37.8213225   4.3215518
 108.1490933  12.7128673  70.3726816 109.0551549  12.7992833  70.6690168
 108.2206058  12.3882794  69.4750357  22.8288364  41.7700672  57.8453541
  23.2665443  41.2944794  58.5513735  23.5370111  42.0277548  57.2551727
  12.7775347  38.4332132  74.7054100  13.3772314  38.2734466  75.4341555
  12.6045597  37.5644517  74.3426943 102.7049982 107.6712443  56.2063742
 101.8451845 107.3163437  55.9805536 102.6623093 108.5898002  55.9405470
 110.4470050  11.9757247  51.6366005 109.8821717  11.5407050  50.9978914
 111.2920504  12.0552242  51.1940956  12.7342904   0.3749620  76.4588308
  12.9428804   1.1051729  75.8761549  11.9975710   0.6895344  76.9827795
  97.5138258 101.6851865  50.3741217  98.1233775 101.1373912  49.8795509
  97.9034256 102.5591730  50.3498077  78.0907721 108.9325589  47.2027493
  77.2416337 109.0676465  46.7820978  78.3552899 109.8051533  47.4940252
   1.4919128  17.8323627  68.9435101   1.6163947  18.3993733  68.1824350
   0.9492881  18.3479643  69.5401239 100.1127105   5.4312754  86.4940071
 100.5612927   5.0681061  85.7303905 100.6296366   5.1300156  87.2411823
  20.2774191  30.7309437  82.6000118  21.0218644  30.4007339  83.1029987
  19.6374094  30.9913683  83.2624245 101.8573319  95.4803919  81.0181618
 101.4276563  94.7318362  81.4320087 101.9115769  96.1385917  81.7110252
  14.5197308  14.5112383  80.7354927  14.9019718  15.3775656  80.5954933
  14.9574709  14.1801989  81.5197277  46.2983274  16.4550042  77.3617220
  46.2486315  15.5172312  77.5470400  45.7094717  16.5837431  76.6181469
 100.4615646  18.6572564  83.9853096 100.1516848  17.9871333  84.5945263
 100.4091852  18.2413018  83.1248093  21.2125015  21.9001532  60.5900860
  21.1663675  21.4521384  59.7454643  21.9020247  21.4395070  61.0682011
  12.4235833   1.9667041  33.7096071  13.0593109   2.2509462  33.0528808
  12.9194868   1.3871580  34.2879128 111.2626868  13.7244201  89.2438221
 111.9513985  13.4133840  89.8313332 111.6837507  13.7727106  88.3855629
  98.0669873  12.0718575  86.5719223  97.7839916  11.7754626  85.7068825
  97.4677509  11.6402173  87.1808910 112.3149320   3.9727071  91.0182571
 112.4475356   4.6318763  90.3369808 113.1865480   3.8315415  91.3878441
   8.2703585  61.8353848   1.6903357   8.2749409  62.5228302   1.0242800
   8.0230969  62.2859357   2.4978594  21.0790658  15.8847022  66.9359541
  20.5487990  15.1093137  67.1198702  21.1015463  16.3617587  67.7654982
  38.6635797  96.0951100  11.7047457  39.1244372  96.0475264  12.5423483
  39.1011640  95.4464207  11.1534266  39.4045245  90.4280936  80.4963875
  38.6744630  90.3004169  81.1021423  40.1515018  90.6284415  81.0604095
  98.4444552  20.2451205  92.0289230  98.0712693  21.1206460  92.1310139
  98.7011188  20.2000642  91.1078835 112.6676520   5.9588748  73.5346413
 113.2147774   5.6207824  74.2435741 111.7939716   5.6155157  73.7217760
  30.2099365  38.9618932   0.7921938  30.2571583  38.3679949   1.5413813
  29.6270466  39.6645234   1.0799078   9.5778823  15.2945483  53.8857222
   9.7043639  14.4719279  54.3585157   8.6340451  15.3403914  53.7330770
  24.2281842  16.9839835  93.8022137  23.9533567  17.3159599  92.9475212
  24.6526933  16.1480463  93.6092567  89.6608096  15.1131487  90.6793118
  90.4475003  15.5665898  90.3764248  89.2999535  15.6857383  91.3561821
  99.7529780 106.6594650  91.4906311  98.8740885 106.3885011  91.2253666
 100.2705609 106.6137322  90.6867313  56.0771400  66.3001262  13.3988814
  56.8348581  66.6656814  12.9423003  56.3634533  66.2153922  14.3083148
   7.6444674  35.7029057  63.2391977   8.1710482  35.6838632  64.0383101
   7.2695744  36.5834355  63.2203245 102.0136290  42.2431803  76.6012526
 102.5308889  41.8669319  77.3133659 102.5114721  42.0387506  75.8096743
  10.4276597  11.8079579  94.9842834  10.6692052  11.0015976  95.4399872
  11.0690618  12.4528980  95.2824211   7.2803348 104.1840277  24.4555335
   6.4706510 104.1354190  24.9637560   7.0053142 104.0307198  23.5516028
  90.4353403  98.0515002  94.9154282  90.3707039  97.8190075  95.8417130
  89.9147975  97.3865830  94.4647026   5.2095371   5.6815970  74.9572515
   5.0380206   6.0438049  74.0879869   5.0379145   6.4073718  75.5572748
   2.2341701  32.5186086  49.7466946   1.8349874  33.3862209  49.6823883
   1.8640181  32.0295882  49.0117979  32.4704307  82.0471917  28.8694148
  32.7820850  82.8313623  28.4175543  31.5529829  82.2341023  29.0683798
  47.2252667  87.0985685   2.8100447  47.0787281  86.8403946   1.9000487
  48.0277997  86.6419087   3.0623011 113.3918485   7.7898115  83.2114983
 113.0342811   7.0486969  82.7224922 112.6424020   8.1457943  83.6888218
  60.8937472  41.9209908   5.5106120  61.6209692  42.1687184   4.9396376
  60.1977748  42.5417910   5.2950530  95.5756527  44.0050077  51.3608599
  95.0851350  43.7078810  52.1272421  96.4306765  44.2596912  51.7077065
  21.9945854  46.0054211   2.2027735  22.6666492  45.5571882   2.7162413
  22.0845086  45.6423835   1.3216643  19.8380816  43.0564070  84.8465061
  19.7117531  42.4940825  84.0822697  19.0725613  42.8889942  85.3962135
 115.4161639  12.8689158  86.1370182 116.3530198  12.9840159  86.2960243
 115.2246704  13.4512985  85.4019070  42.5339651  12.4284589  79.2598486
  42.6747322  13.2443130  79.7402620  43.2744503  11.8743718  79.5066309
  54.0378541  49.2077099  23.7179999  54.6380645  48.4748070  23.8552336
  54.2029673  49.4871275  22.8175025  23.3210993  38.5375571  88.0806637
  23.1951594  38.6221337  87.1355629  23.9169979  37.7947354  88.1773567
  83.1030435  80.2858482  31.7591433  82.9374808  79.4467841  31.3292651
  82.6843518  80.9326683  31.1912112   5.2743131   9.1540813  66.9647598
   6.0324872   9.3751752  67.5056124   5.2582514   8.1970698  66.9546032
  29.4556594   8.1467974  90.6258965  29.8463583   7.4025488  90.1679897
  28.5130239   7.9858416  90.5838966  27.5515556   8.6265182  77.9341602
  28.1118441   8.4454626  78.6888313  27.7358341   7.9136473  77.3225355
  53.9006955 101.8684493  23.0878691  54.1678900 101.2007199  22.4562220
  54.6355277 102.4812947  23.1138091  22.0815539  32.2062254  74.0058041
  22.5849986  32.0355177  73.2097960  21.3459086  31.5955591  73.9595127
  41.6525173  75.1691376  11.7141585  42.4253506  75.0402640  12.2640280
  41.2030567  75.9186540  12.1046023  12.3901832  25.1748276  84.5141220
  12.8379035  25.5647159  85.2649689  13.0882251  24.7577810  84.0091133
  10.4794753  29.8610091  90.0720215  10.0591326  30.7128644  90.1898479
  11.0580659  29.7726154  90.8294201  29.6500754  17.6903784  70.5344152
  29.9345422  18.5427701  70.2046633  28.8231850  17.8704131  70.9817123
  27.5704360  45.3562546  90.8920765  27.5906992  45.3828907  89.9354553
  26.6583395  45.5392647  91.1175060  96.6494518  31.0393071  80.7387066
  96.8607860  31.7439818  81.3510799  96.4956265  31.4843225  79.9053240
  12.2986126  19.3200326  58.1677580  12.1906447  18.3702159  58.1185532
  12.3078740  19.5117724  59.1055107  23.4390020  56.2274837  67.0905685
  22.8394771  56.7706442  66.5789270  24.1343808  56.8272877  67.3605919
   3.1280044  30.9432483  83.3451271   3.9504546  31.3836265  83.5593128
   2.6490122  30.9143901  84.1733551 109.0016233  95.2660274  54.3876171
 109.1923534  94.9168192  53.5170364 109.0881335  94.5128821  54.9720144
  77.4756760  69.2491172  20.5177931  78.2814974  68.7472890  20.3951125
  77.7297062  69.9743627  21.0885100 102.1438866  11.1228776  81.5145874
 102.4863284  10.2473056  81.6944218 102.1650284  11.1970282  80.5605030
  18.3276451   5.6893414  55.2903748  18.2856512   5.3276312  56.1756086
  17.4341488   5.6095701  54.9564123  18.4480584   3.1891894  91.0252094
  17.8774333   3.7909365  90.5471706  18.1766129   3.2766709  91.9389343
  63.6928648  67.3273323  33.0127673  62.8273362  67.2668372  32.6084952
  63.5505432  67.8412448  33.8076739 115.5814519  19.0902305  78.5665274
 116.3446943  19.3161523  79.0981770 115.1813711  18.3506715  79.0239334
 115.9941257   9.8969626  94.3797207 115.0526709   9.8680830  94.5501900
 116.3052466   9.0200919  94.6045113  30.6586546  96.6387902   3.7325625
  31.0882390  97.0395098   2.9768424  30.0080186  96.0482131   3.3529238
  62.4246067  79.6796523  10.6949286  62.3306126  80.5677305  10.3503756
  62.6944250  79.1570578   9.9397330  94.2563205  12.2512496  76.9101810
  94.8008805  13.0017972  76.6727734  94.4235450  12.1196663  77.8434324
  87.4152499 109.7665122  92.2051907  86.9987946 109.1975442  91.5578270
  87.6648038 110.5479736  91.7119598  92.1073943   9.6666116  44.2920065
  91.9202595   8.7776989  43.9902687  93.0610138   9.7379696  44.2501688
  16.9260538  26.2753177  52.0896912  17.1288574  25.5517602  51.4967585
  15.9810102  26.3993669  52.0017290  61.4827818  67.0129524  36.8611006
  61.0087747  66.7613779  37.6537280  62.3872179  67.1326969  37.1507411
   4.1760606  19.0741336  56.9471264   3.8486731  18.9633298  57.8397465
   4.0588975  20.0061226  56.7630053  28.9757681   5.8083338  47.5147867
  29.4968152   5.2186829  48.0598116  28.6015439   6.4369839  48.1320286
  15.7719541   6.8478101  39.5737982  15.6076646   7.6351553  39.0548301
  15.4964972   6.1263627  39.0082288  91.2404317 102.1571456   0.3688769
  91.5270156 102.5421105  -0.4593225  90.5101603 101.5871154   0.1280264
  29.0736938   8.3175480  62.6713419  28.5670948   8.1508887  63.4662104
  28.4663677   8.7782604  62.0924377  13.3847010   3.5070184  69.1992331
  14.2472339   3.9217684  69.1833878  13.0179727   3.6838210  68.3329296
  29.8039490  76.9474612   2.1272330  29.1622609  76.3200079   1.7944102
  30.5365235  76.8889700   1.5139250  53.5686869  72.4248420   3.0663161
  54.1676277  72.4887226   3.8102393  52.7273721  72.7257429   3.4096579
  49.2093879  93.0565677  20.5078463  48.5300988  92.8434168  21.1476569
  49.1327936  92.3742591  19.8408942 116.6850785  54.6650839  72.7690554
 116.1286161  54.6028376  73.5453939 116.9642610  55.5804062  72.7472496
   7.0584887  13.1496263  56.3800430   7.1674639  12.2075796  56.2500238
   7.8689575  13.5330141  56.0448027  27.6100046  15.7992744   8.5414271
  27.2794611  14.9849176   8.9206175  27.9910261  15.5360698   7.7037005
  87.5026106 107.4311720  76.1612940  87.1741378 106.5326511  76.1297035
  86.9076931 107.8827631  76.7599344  66.1185831  85.0339661  20.3013758
  67.0654673  85.1009713  20.4244570  65.8773965  84.2173873  20.7387118
 106.5462607  29.8935342  81.9104576 107.3102754  29.3372130  81.7587376
 106.4715772  30.4201150  81.1146069 115.3162939   7.9827023  55.9366846
 114.3623167   7.9060656  55.9197712 115.6261263   7.2278821  55.4362059
   7.1318519  39.7162604  92.0910263   7.7167594  40.4337311  91.8474197
   7.6251549  39.2150521  92.7403927  90.9934002  57.3696756  48.5166693
  90.5330997  57.5698948  47.7016401  91.8271356  57.8337955  48.4411097
   4.9260205  76.1300264  38.7410597   5.4967374  76.4760624  39.4271903
   4.8171133  75.2054916  38.9637904  28.5901880  10.4079151  19.0118778
  28.1264043  10.1809108  19.8178577  29.4187355   9.9321628  19.0702021
  54.4511289 108.8235627   9.1375784  53.9989966 108.8003693   8.2942061
  55.1507360 108.1758843   9.0521674  21.7945313  19.9738383  68.3651495
  20.8648443  19.7649658  68.4561825  21.8095398  20.7794881  67.8484917
  15.4579377  26.8419743  46.7639780  15.9630036  26.9409084  45.9569120
  16.1123860  26.6410422  47.4329710  25.0234717  67.6127790   7.1889548
  24.4189996  66.8727122   7.1328597  24.6080834  68.3012102   6.6695838
  38.9897323   4.0316886  71.9361687  38.3272743   4.6677959  71.6664457
  38.7942910   3.8581899  72.8569984  32.7118874  26.2524462  81.3843250
  33.4005499  26.5834689  80.8077812  32.1317482  27.0017600  81.5192318
   8.2214194  90.2236091  52.0019579   7.8369504  90.4355382  51.1513662
   9.1180259  89.9564134  51.7996454   1.5360503  62.7105713  85.7481956
   1.8428785  61.8199921  85.5780220   0.9416358  62.6208782  86.4930820
  25.0924325  26.8665028  93.5713196  25.9298205  26.6252589  93.1753159
  25.3021097  27.0374966  94.4894791   9.5296824  21.0259581  81.8866348
   9.4013160  20.8798242  80.9494019   9.4840688  21.9765449  81.9892788
  26.6676217  96.0248207  80.7681370  26.9501906  95.9222721  81.6769123
  25.7115060  96.0110103  80.8115959  56.3410664  27.8762293  63.2477856
  57.2937584  27.8935862  63.1566477  56.1907244  27.8831387  64.1930771
  21.4769721  43.7346649  80.9032249  20.5466104  43.9431238  80.9880829
  21.8904924  44.5696592  80.6840897  90.9894996  36.7090845  75.0360823
  91.5940481  35.9744215  74.9310732  90.2470475  36.3416409  75.5156469
  58.5857541  86.2899242  13.9188818  57.8502983  86.8882476  14.0505843
  58.4115619  85.8790217  13.0720953 107.5287365  12.2025383  75.8416224
 107.6754724  12.2508848  76.7862701 107.5998800  13.1086838  75.5415010
  15.3683180 105.2473365   3.4246020  15.2548093 105.3771458   4.3661360
  15.9869594 105.9288131   3.1617312  23.8868546  29.9792242  70.8512163
  24.6140456  30.0159526  70.2298641  23.9536428  30.7955337  71.3466024
   5.9920484  17.3024940  64.2693186   6.1320436  17.4073398  65.2104044
   6.5152389  16.5364921  64.0332174  23.6151791  40.0219011  75.8967161
  24.4439864  40.4478741  76.1154747  23.6982369  39.7981358  74.9697542
  13.5907781  54.3206453  78.2207489  14.3861461  54.0310860  78.6677122
  13.9062142  54.7585773  77.4302149  19.8072124   1.4518687  39.1449904
  19.3222308   0.6637393  39.3896866  20.5536675   1.1270857  38.6414504
  20.3126502  34.6674728  57.3408127  20.7407665  34.0529752  56.7447090
  20.8948612  35.4269934  57.3606014  25.9427047  34.3639159  53.0786800
  25.4408312  35.1741433  52.9898691  25.7491827  34.0582228  53.9648676
  82.1385640  92.7173959   5.5385165  81.6378135  92.7415000   4.7231059
  82.6114005  93.5495148   5.5538992 114.7839657  44.5655155  90.5486965
 114.4254466  44.7881889  89.6895599 115.1761335  43.7007570  90.4277611
  25.3304338  26.9583392  85.5112457  25.6420946  27.8484321  85.6750679
  25.5308390  26.4822793  86.3171196  96.9435030  49.8850107  92.7671719
  96.8929129  49.6936035  93.7036800  97.5731271  50.6031370  92.7031612
  11.9316733  48.4771729  56.4511395  11.5572512  49.2901325  56.7904663
  12.5271261  48.1818962  57.1399641   4.2426035  16.5481627  60.4205751
   4.8551649  16.9830894  59.8274136   3.7121105  15.9911907  59.8508453
  22.5628996  65.0453663  78.2162952  22.5705266  64.2191219  78.6995125
  22.1167254  65.6596470  78.7992382  99.1888064  90.3642784   8.3925871
  98.9551038  90.5711327   7.4876933 100.0492734  90.7652174   8.5153632
   8.5997808  34.7839522  84.4112206   7.9093379  34.4996095  85.0101089
   8.9715159  33.9702797  84.0706539  97.4275666  60.6738043  86.1392403
  98.0399078  59.9699211  85.9251881  97.6624959  61.3851023  85.5433369
  11.4620531  42.8375483  90.9331703  10.8230364  43.5229969  90.7381058
  11.0803342  42.0417786  90.5626583 112.3239266  92.3292254  54.6026850
 111.7830765  93.0558526  54.2932892 112.3198950  92.4165784  55.5558825
  72.8244060  90.2238618   1.0614352  73.4884876  90.3477894   1.7395739
  72.0960111  90.7815085   1.3347487  76.1253613  85.1071797  14.5032935
  76.6559547  85.3591381  13.7474970  76.5958041  84.3691359  14.8908572
  29.5846438  13.9197600  79.9181795  29.5012927  14.5125496  79.1712618
  29.4536424  13.0471528  79.5471954  16.9357324  21.5206599  77.6139879
  16.1164713  21.1006618  77.8759861  17.4742472  21.5096807  78.4052610
 100.4040205 100.0493871  90.8712006 101.2620651  99.9272095  90.4649162
  99.7906076  99.6343588  90.2648163  41.6445500  97.4567138   0.7950549
  41.4777027  97.7098237   1.7029814  41.3197799  98.1935035   0.2774577
  78.0044812  79.1105519   8.4326987  77.1688551  78.9373050   7.9991679
  78.1013650  78.3947931   9.0608172  80.5465192  63.3820717   3.7718062
  80.6562156  62.7023278   3.1068568  80.9234971  64.1676901   3.3756690
  18.7557578  18.5432255  69.5696163  19.0605009  19.1495311  70.2447128
  17.9621232  18.1544900  69.9373960   5.5072498  20.9124851  89.7517586
   6.0544890  21.6658926  89.5300865   4.9745116  20.7652044  88.9702606
  57.6184017  92.4409686   4.9562029  58.1177503  92.7915273   5.6937651
  58.0169100  92.8431497   4.1844134   8.8481981  39.5447731  76.4511871
   8.2230806  39.0194559  76.9506884   8.5620183  40.4484224  76.5844154
  51.7577964  77.0231019  10.1734118  51.6815251  77.9552923   9.9698500
  50.8998364  76.7834602  10.5237059  89.1820215  95.9491288  51.0115623
  90.1169407  95.7548737  50.9450483  88.7563502  95.0924849  50.9769726
   9.6372557  35.5503631  60.4539108   9.2075789  36.4055037  60.4353809
   9.1286892  35.0135565  59.8461008  10.7589233  28.6374474  76.4301062
  10.3826630  29.2127132  75.7639790  11.2197149  27.9627872  75.9313679
  38.9135961  99.8942052   7.2621874  38.0705436 100.2662431   7.5211863
  39.0251168 100.1650916   6.3509135  37.5121261  22.0550023  -0.0284620
  37.4172880  21.8276821   0.8965067  38.0956875  22.8137408  -0.0300165
 104.5562332  16.2873268  77.0360422 103.8033944  16.8661618  77.1561098
 104.7176307  16.2968707  76.0925961  78.4951830  33.3019686  81.1261082
  77.9456043  33.0110240  81.8537998  77.8836727  33.4322476  80.4013157
  12.8493690  71.0395622  48.5495186  13.0302823  71.2528419  49.4649506
  13.5510194  71.4692068  48.0603123  28.9457321  15.6830812  77.8632879
  29.2704415  15.6038749  76.9663334  28.1105447  15.2154660  77.8578329
   4.7112292  48.2365847  93.5738277   4.8580381  49.1254425  93.8972759
   4.1201621  47.8427744  94.2155361  67.5913781  81.0800491  10.1202254
  67.6619023  80.2746998   9.6077113  67.2333473  80.7977567  10.9618620
  69.1371173 105.9536801   0.5853514  69.3279928 105.0260125   0.7240538
  69.2471522 106.0825978  -0.3567262  74.4630927  46.6424362   5.4529719
  73.5822076  46.8591831   5.1475291  74.7328848  47.4041603   5.9660201
  87.9898011 104.0487920  65.3433609  88.9127635 103.7956070  65.3270054
  87.8002303 104.3212371  64.4455481  20.3571987  34.4666839  81.5364075
  20.1370907  35.3691435  81.7673779  19.9189830  34.3203211  80.6980896
  58.4015757  60.1297967  16.0464816  58.0238062  59.3316378  16.4158873
  57.6447398  60.6538068  15.7840971 110.5245399  56.9737387  84.4727993
 109.6518659  56.8744946  84.8533535 110.4209536  57.6576853  83.8111877
   6.2388265  62.7813816  74.3040705   6.9143182  62.7858639  74.9822474
   6.5152144  62.0964193  73.6952496  65.9471816  63.7643115   6.4978270
  65.9848946  64.1218506   5.6107192  66.7948073  63.9877276   6.8823390
  91.1596984 100.1309882  22.3386912  91.7195577 100.8959447  22.2059016
  90.3976888 100.4704629  22.8080801  15.4569089  27.3708081  64.4083261
  14.5240390  27.1700096  64.3330574  15.8034885  26.6873956  64.9819613
 109.4083082  23.7451553  84.9742031 110.1420283  23.2028461  85.2636623
 109.2582845  23.4805083  84.0666389  46.1889947  72.1513663   5.0663046
  45.6077588  71.4672874   5.3986220  46.4236081  72.6632009   5.8404021
  28.2066369  43.1411457  76.5203571  28.2504296  44.0024185  76.1049986
  28.8267136  43.1941652  77.2476292 112.7657583  53.3090067  72.9261303
 112.9487502  52.3821068  72.7725124 113.3738258  53.5612297  73.6210155
  53.8876480  61.6858189  22.3853068  53.4399289  60.8544241  22.5420336
  53.7859482  61.8392663  21.4459757  73.9734143 103.6960612  53.0316977
  74.4484490 104.5265923  53.0034976  74.6585792 103.0277453  53.0203204
  54.9457318  76.4800797   2.8865675  54.7124666  77.0577608   3.6132769
  54.5827490  76.9104563   2.1124606   1.1575255  42.4690914  54.1002798
   0.6241953  42.0161009  53.4471416   1.9612311  41.9519472  54.1536856
  20.6700420  51.2815714  84.8719406  20.9940696  50.8421326  84.0857220
  20.6483626  52.2090387  84.6362114  55.6882948  71.7504023   1.1628298
  56.4393252  71.8022369   1.7540125  55.0287646  72.3169206   1.5632205
   0.7778688  38.8777351  66.9781971   0.2145450  38.2866979  66.4786196
   0.7509492  39.7019958  66.4922953  58.0654615  91.0429393   1.1026244
  58.9062101  90.7720981   0.7338194  57.4892670  90.2915321   0.9625487
  89.8132581  78.2210336  29.7741179  89.6048755  78.3649717  30.6972079
  89.3692035  77.4023591  29.5531706  55.7349914  90.3264414  16.8819766
  56.0964185  91.2076984  16.9767909  55.8116287  89.9409567  17.7547602
  25.6782389  54.1690588  66.9165993  26.3875437  54.8072672  66.9928217
  24.8787665  54.6943808  66.9499254  23.4736824  67.6651669  90.5739117
  23.2526493  68.5934448  90.4985523  23.4805870  67.4963188  91.5160751
  81.5375537  89.6681987   4.2872958  81.2838572  89.9563680   5.1641230
  81.7658156  88.7449108   4.3953185   7.2000307  75.9124504   2.1416907
   6.5522951  76.2820135   2.7417616   6.6801757  75.5181871   1.4413027
   1.8197745   9.9039584  56.3210678   0.8788762   9.8907405  56.4964724
   2.0518935  10.8325529  56.3291264  67.0379132  70.6003474  15.8763651
  67.0901650  70.0500677  16.6578345  67.9463500  70.8361469  15.6882910
  97.0066237  87.8639184  82.2343254  97.4564838  87.3511755  82.9058552
  97.5963055  87.8413569  81.4806652 106.8194901 103.0750572  86.1297607
 107.1662342 103.6499434  85.4474831 107.5771939 102.5706105  86.4258194
  76.1123556  96.3753043   1.4232020  75.8120769  96.6859113   0.5690436
  76.8101615  95.7524644   1.2198023 105.1902180  10.9711969  91.5043163
 104.4785958  10.5970943  92.0238113 105.8816534  11.1527109  92.1408653
  42.7654591 105.7254754  -0.2123590  43.5159260 105.2204619   0.1006846
  42.5558120 106.3162814   0.5109839  22.0329428  20.0460577  82.6090622
  22.0884061  20.9150004  83.0066681  22.9237580  19.7001588  82.6641273
  67.0504922  91.7672883   2.1658282  66.4962095  92.0597730   1.4423327
  66.7634362  92.2905646   2.9141669  17.1294749  30.8426285  38.9162612
  17.3313153  30.5632234  39.8092484  17.3209441  30.0757980  38.3763170
  80.8307251 110.4572499  91.8778610  80.9189626 109.7500500  91.2388611
  81.4273094 110.2156981  92.5863552   3.1352913  56.7413568  81.2622738
   2.2065279  56.7741299  81.4915276   3.4794319  57.5919437  81.5348625
  68.2471985  87.9553924  11.8149237  67.9564947  88.8531051  11.6541914
  68.9778608  88.0461369  12.4265913   7.2737223  22.3838329  75.4557610
   7.4084961  21.9454408  76.2959290   7.1757317  21.6696930  74.8259735
  50.1463276  88.7711535   1.0498862  50.8405847  88.5973106   0.4142622
  50.0188941  87.9359518   1.4998106  15.7733846   7.4196142  52.0677519
  15.7599628   7.1329546  52.9809189  16.6983128   7.5800121  51.8806362
  18.7039501   5.9926748  19.6620421  18.7001354   6.3570070  20.5471854
  19.4687063   6.3880157  19.2436080  34.6087146  44.3506956  86.3030052
  34.9985313  44.5950603  87.1423817  35.0710726  44.8870802  85.6589985
  52.9146785  90.4946791  30.7689814  52.0881885  90.3736339  31.2364153
  53.3890134  89.6744405  30.9048037  17.3245406  28.7788773  90.0916195
  17.2084606  28.5995102  89.1585732  17.7426541  27.9901028  90.4369450
  14.3473089  37.5329828  76.8257332  15.2967525  37.6143193  76.7353296
  14.2162824  37.2494769  77.7305508  12.4724519   7.3777294  37.7507305
  11.7994535   7.3457694  37.0708179  13.1355906   6.7512125  37.4609780
  26.1644197  49.7549248  68.8157082  25.2468085  49.9026299  68.5867834
  26.5920043  50.5940628  68.6446810  38.4861827  56.5149307  79.9784470
  37.9345894  56.0468626  79.3516397  39.2042160  56.8648863  79.4510078
  95.2973157  37.8947687  79.3779755  94.7376090  38.1882501  80.0968838
  95.7448011  37.1220970  79.7228909  25.4504037  49.5806313  87.1129990
  24.9633908  49.9432659  87.8529644  25.2152419  50.1412487  86.3736534
  79.6956868 106.6516562  93.8604546  80.4353710 107.2253283  94.0604591
  79.8371411 106.3864588  92.9516697  89.7983664  55.1062173  10.9420828
  89.0683574  55.5240731  10.4852347  90.3462666  54.7500630  10.2426581
 110.5962115  12.5679517  71.6517258 110.1421111  12.9324114  72.4114561
 111.4518523  12.9970157  71.6555548  45.1086635  52.2159035   1.4871649
  44.5918816  51.5547789   1.0266356  45.2767354  52.8899844   0.8286814
 115.8770480  11.9172549  57.0287561 115.0624167  11.5117967  57.3257589
 116.0369351  11.5307713  56.1677694  94.1628777 102.1131234  73.4810781
  94.4415974 102.2421603  74.3876648  94.5574641 102.8425317  73.0030680
 107.6487541  35.1998997  83.2269001 107.0292222  34.6172571  83.6661434
 107.2490388  35.3763461  82.3752403  22.4827814   7.5463516  64.2277622
  22.0683479   7.0435208  63.5265923  22.4487472   8.4535301  63.9242792
  28.9680743  43.8316059  61.2989855  28.1507468  43.9993048  60.8298540
  28.7200546  43.2376480  62.0074558 104.1045588  17.7690876  69.5461845
 104.8583346  17.6506364  68.9682388 103.8831526  18.6966944  69.4639874
  24.0315485  34.7838283  70.0272322  24.8607516  35.1965308  69.7857094
  23.4604549  35.5145001  70.2643013  10.6487417  16.4585578  64.8049927
  11.2707186  16.2104905  64.1210032  11.1927557  16.8259978  65.5016041
  21.0125303  40.6275129  93.9450932  21.2585878  41.5191746  93.6988640
  20.0555491  40.6288385  93.9246655  23.2483506  52.1957302  86.3689804
  22.3913956  51.7757988  86.4432526  23.4050393  52.2552299  85.4265690
 114.3492865  14.8242915  94.5449257 113.8999631  14.0288913  94.8307228
 114.4390834  15.3478980  95.3411674  22.5010938  64.9918131  20.9277777
  22.7246553  65.9220086  20.8963542  22.1626133  64.7971706  20.0538401
 113.0084946  29.9036837  90.3421211 112.6990845  29.5629668  91.1814117
 113.9426448  29.6953177  90.3287506 112.6522529  41.4287281  94.1987324
 111.8974393  41.1351824  93.6885166 112.3364722  42.1981382  94.6725655
 113.1318426  58.3652020  87.1664238 112.9305365  58.7922096  86.3337326
 112.3369061  57.8785801  87.3843861 102.5402694  46.0402775  95.5161476
 102.8025037  46.7740870  94.9602795 103.0905967  45.3123331  95.2272320
  19.8568881   9.6934545  71.0030746  20.2825952  10.0265312  70.2130985
  19.5850515   8.8051611  70.7722664  73.9560958  91.9163262  92.5225163
  73.7096169  91.2476861  93.1615829  73.5340976  92.7157043  92.8373909
 111.3609266  30.5821753  67.9975891 110.6864875  30.9993696  68.5336018
 112.1832394  30.7950640  68.4388494 114.8104689  33.1440282  63.3723307
 115.5360656  33.7134242  63.1163454 115.0402703  32.2870612  63.0131245
  57.1474737 107.4467574  11.2229685  57.4681229 106.5511952  11.3296561
  57.0548278 107.5568448  10.2766375  47.6900911  22.6221180  75.6647253
  47.4104881  22.0114112  74.9827480  48.1158257  22.0701075  76.3206720
  18.2964909  28.8685536  71.9980192  17.9127347  27.9939532  72.0615435
  19.0989447  28.7418222  71.4918184  83.2574349  26.4282441  94.4911861
  84.1048890  26.8653417  94.4075298  83.4749919  25.5020237  94.5961475
  12.1729070 105.2311157  90.1024437  12.4923736 105.9800797  90.6056595
  11.2379724 105.4010962  89.9874020  71.8516129  71.1269449  24.0875868
  71.9806451  72.0044099  24.4476370  72.7358145  70.8140777  23.8964514
   2.4852206   2.9232565  86.1341476   3.0949789   3.6282495  85.9164047
   2.1631110   3.1463882  87.0074654  22.9792213   6.8687761  47.4905682
  23.0295920   7.6471657  46.9357681  22.0623326   6.8272305  47.7622652
 108.3559268  50.8648014  88.6370754 108.9532077  50.2601767  88.1967163
 107.5240498  50.7582283  88.1757164  26.3535762  41.9299746  85.6748390
  26.2347960  41.2577629  85.0038338  27.2820711  41.8801212  85.9020901
  40.6108904  14.8919165  72.2821665  39.9263096  15.4275882  72.6829624
  40.7373095  14.1672421  72.8946209 104.8270524   3.5307121   8.8718657
 103.9009297   3.4618711   9.1037898 105.1034201   2.6271581   8.7187533
   6.5115166   0.1809895  82.1824265   6.1461443   0.1618856  81.2979126
   5.7467610   0.2216943  82.7566433  51.2950748  80.4567157   3.4217600
  52.0477849  80.9798227   3.6974768  50.5382568  80.9147511   3.7873606
  48.8022041  37.1380305  82.7713585  48.3327913  37.3396969  81.9618988
  48.1174517  36.8741703  83.3859444  96.4316189 109.9320063  78.1152296
  96.1509251 110.2754019  77.2669840  96.0075247 109.0762872  78.1794214
  41.7669106  13.2435286  83.5508442  42.0737362  12.7083552  84.2827415
  41.6719198  12.6258707  82.8257847 110.3581523  26.9105768  55.4290009
 109.8535555  27.3372674  56.1214972 111.2718635  27.0706391  55.6651020
  86.1915933 102.3806011  92.3745441  85.5594438 102.7221291  91.7421055
  86.8073224 103.1007581  92.5105000  38.9049721   0.7898203  68.2104588
  38.6434054   1.1350039  69.0640783  38.1692028   0.9948219  67.6335287
  11.2766009 102.7619683  70.7747126  10.6792480 103.2957481  70.2508068
  11.0311538 102.9474323  71.6811275 114.6884950  45.9896469  67.4965286
 115.5080974  45.9219742  67.9863262 114.9362939  45.8117723  66.5892315
  97.7154678  57.5618124  94.9978828  97.0928615  56.8741131  94.7619438
  97.1942776  58.1998444  95.4852295  46.3764531  61.1318539  10.1891665
  46.8238694  61.6672616  10.8444457  45.4544103  61.1617087  10.4444651
  54.7230339   9.9876529  73.3219051  55.3485012   9.9843353  72.5973320
  55.2680635   9.9902856  74.1087818  32.4404860  33.2252383  90.9646797
  31.6562247  33.4001756  90.4445171  32.1061468  32.9865956  91.8292618
  79.2520684  46.7800085   6.7218260  78.4715885  46.5989737   7.2455649
  78.9384931  47.3370086   6.0093264   3.1068677  38.8444424  78.5612965
   3.3319974  38.9719057  79.4828749   2.1506175  38.8819027  78.5409451
  91.2940579  34.3425822  79.6797228  90.3489690  34.3181849  79.5299053
  91.5224605  33.4434509  79.9155807  26.0618424   5.2423692  73.5112906
  25.6704926   4.6007633  74.1040945  26.3339233   4.7301713  72.7498055
 109.2036187  98.5614513  90.7252884 109.3009722  99.4597577  90.4093742
 110.0668728  98.3341896  91.0708046  28.3176899  33.0888128  94.5778084
  27.6197243  33.7423253  94.5331287  28.9085174  33.4154105  95.2564049
  15.9374470  92.5236927   1.1737685  15.9615868  92.1684323   2.0622687
  15.9085077  91.7521225   0.6080107  17.0714295  37.5918913  71.4398098
  16.9270432  36.6457319  71.4268303  16.8488932  37.8803062  70.5546427
  99.7007018  38.3916283  72.5242949  99.2951637  38.1444025  71.6932392
  99.3712240  37.7486706  73.1522131  36.1047077  49.2968607  74.2482424
  35.1704311  49.4308472  74.0888405  36.3989592  48.7611771  73.5115671
  77.0513338  81.4309941  18.7300829  77.1344918  80.5027161  18.9482932
  77.5136727  81.5235697  17.8970675  31.2197518  56.9711065  62.5364828
  31.8070936  56.2676573  62.2600460  30.9896064  57.4237251  61.7250633
  55.0869292  74.1211246  14.5841460  55.2355915  74.3150209  15.5096392
  54.9666923  74.9786018  14.1760973  30.8863610  87.3826800   0.5493311
  30.9527701  87.9178963  -0.2414747  31.0897905  87.9856168   1.2643961
  19.0429854  21.6424012  79.4848013  19.2263484  21.2014794  80.3143787
  19.1401553  22.5739908  79.6821070   9.4421691  95.2399646  27.4189047
   9.1806644  96.1284123  27.6607947   8.7018770  94.9010573  26.9155745
  23.6544991  22.7722263  65.2272367  23.8396049  23.7026429  65.0995874
  24.3793535  22.3220921  64.7934198  39.6667814  75.9192419  89.3220520
  38.7411761  75.8467817  89.5549393  40.0908327  76.2332582  90.1206779
  35.9225917  11.8249309  50.7717514  35.4531670  10.9933174  50.8372641
  35.4446959  12.4161899  51.3533497  41.7462587  82.2462749  69.7171116
  42.3305035  81.9090557  69.0380144  41.6324759  81.5125275  70.3211784
  39.8729157 109.1766988   1.1756472  40.3789896 109.4050179   1.9553904
  38.9617237 109.1924058   1.4684157 116.5702069  31.9385766   3.2453303
 115.8518064  31.6594743   3.8129859 116.5525711  32.8946065   3.2891993
  27.6746780  93.8780390  12.0156054  28.3689696  93.7066494  11.3793520
  27.4558181  94.8011647  11.8884425 102.0152015  96.6145669   8.8462214
 102.9083175  96.2896930   8.9603667 101.4783067  96.0336552   9.3852191
 111.9457233   2.5263356   5.5659823 111.6586793   3.0777025   6.2938742
 112.1995175   1.6999864   5.9770445  27.9939580  63.2197142  71.1392260
  28.9159846  63.4757757  71.1622381  27.8681231  62.7058125  71.9369125
  24.7760296  40.5765629  89.7168922  25.3683496  39.9253511  90.0928020
  24.1946077  40.0716066  89.1483879  50.2770233  49.0798855  82.7681160
  49.7109127  48.3171988  82.8867054  50.4169989  49.4143295  83.6539936
  81.7046660  84.0050636  12.1473364  82.4644298  83.8238631  11.5940241
  81.2604398  84.7333680  11.7132048 108.0994386 102.8755389   2.4454264
 108.6451596 102.1352206   2.7106528 108.5076636 103.1983243   1.6420607
  41.5134335  28.0831218  88.7385082  41.7461920  28.2179642  89.6571350
  41.8144274  28.8768291  88.2961655   8.1609309  30.6457543  70.8658123
   8.8902444  31.2650895  70.8382463   8.0497569  30.3660512  69.9571657
  38.8660005  90.1985846  14.0779643  39.1852753  89.3492327  14.3827586
  38.3510228  89.9947701  13.2972674  43.8380733  89.0042554   2.3009161
  43.3932632  88.6462222   3.0691580  43.5814366  89.9262462   2.2835879
  34.1802102 100.8179723   2.7266745  33.3902276 100.4599295   3.1315951
  34.4592214 101.5146457   3.3208422  46.2745762  49.2839146  79.7439051
  45.4879808  48.7781572  79.9481249  46.9332838  48.6245966  79.5256329
  34.5791841   5.1700771  93.1895828  34.0188456   4.6252877  92.6368999
  34.5795846   6.0257405  92.7605438  25.6156158  47.3592234  85.5184460
  24.7643661  46.9288349  85.4386425  25.4098320  48.2417536  85.8267021
  36.5273738  65.1088476  86.3531780  36.3059044  65.1190948  85.4220104
  35.8385062  64.5813227  86.7574215  20.3726417  74.0349601  29.8507361
  19.8553699  73.3834945  29.3771796  20.8588976  74.4971083  29.1679434
  32.3721260 102.3127614   8.4794955  32.6553244 101.4770089   8.1086211
  32.5237757 102.9487191   7.7803568  42.8788042  45.0306511  72.5178337
  42.1360731  45.5492735  72.2086287  42.6042557  44.1219759  72.3946905
  88.7205523  70.3101061   9.8969607  89.2347926  70.8371292  10.5085425
  89.3276042  69.6352289   9.5932250  59.0757942  55.2392435  76.0741282
  58.6440086  54.6859360  76.7250061  59.7714949  54.6884346  75.7151747
  34.3314743  68.2940865  79.3816471  33.4906602  68.6535740  79.6645451
  34.9846935  68.8540220  79.8011732  20.6711578  49.3877554  71.7475462
  21.0049367  48.6751938  72.2925949  20.9143734  50.1843071  72.2193384
  58.3698798  15.1229858   1.9557051  58.1712032  14.3871736   1.3766245
  59.3176914  15.0791930   2.0820765  25.8679843  33.6485720  56.0486937
  25.3653765  32.8401637  55.9482193  26.2984562  33.5588598  56.8989134
  94.7279328 105.4472075   7.4281077  95.4760140 105.0212870   7.8466753
  95.1150865 106.1415778   6.8950133 110.3168452   5.1604366  40.3653388
 110.7858312   4.6490049  41.0246710 109.3935740   5.0619029  40.5979113
  87.5706881  48.0911378  21.4973979  88.3901471  47.6654337  21.2454085
  87.3611945  48.6633651  20.7592253  68.5526848  78.6494780  31.5554523
  67.7898312  78.5286236  32.1208572  68.7227535  77.7798033  31.1935449
  39.3715072  47.6812363  73.8684130  38.4869742  47.7189016  73.5045242
  39.4214368  48.4358454  74.4551849  51.1380386  59.7435808  90.2260208
  50.6172991  60.5450392  90.2782440  51.5097666  59.6419525  91.1022186
  30.9772426 107.0358001  12.8118186  30.2766735 106.5218125  13.2133727
  30.6445807 107.9333316  12.8093390  26.9661522  56.8794870  56.8136406
  26.4415884  56.7114782  57.5964785  26.8125939  57.8034258  56.6161776
  47.4167109  64.4525385  75.3619719  46.4955091  64.3080091  75.1457882
  47.4939728  65.4016972  75.4586935  41.8135548  80.6755543  82.0412636
  42.1234131  81.3157272  82.6818848  42.5819445  80.4833698  81.5037918
  49.6987247  77.4989367  77.8039122  49.2321348  78.2294178  78.2100201
  49.1993046  76.7236090  78.0601931  48.1582433  90.0015269  16.5568499
  48.5170776  89.7522579  15.7051806  48.8024420  89.6849619  17.1901087
  60.6349718 106.6090026  82.5065327  59.7892391 106.1666014  82.4340820
  61.2806093 105.9103631  82.4003029  78.6747408  55.0347853  93.4351826
  79.4569159  55.5138397  93.1614304  77.9844761  55.3497696  92.8516197
  79.9465674  73.4788142   3.1533198  79.4007701  72.8010736   3.5520701
  79.3519849  73.9548062   2.5735526  45.9894103  79.4771658  11.8686156
  46.8415368  79.0411936  11.8622450  45.9855831  80.0071989  11.0715727
  60.0297445  96.1396228  16.8988566  60.7201475  96.4236556  16.2997775
  60.2864522  96.4993439  17.7479319 109.4512451   1.6058206   4.2289214
 109.6398008   2.0101404   5.0758032 108.9842093   2.2826719   3.7390475
 105.8397573  58.1548166  77.0948553 105.8730453  58.1914377  76.1389351
 105.0299602  57.6825857  77.2883940  40.6034517  88.7212276  56.6084385
  41.0840893  89.1731358  55.9149027  40.4020977  89.4063282  57.2458744
  37.5144458  61.1554909  93.2165146  37.8037763  60.9439611  92.3289490
  37.7423906  62.0782995  93.3291912 111.7171311  67.8470993  78.0927038
 112.6272600  68.0214977  78.3324575 111.6426438  66.8930244  78.1132364
  39.2745066  56.4923954  85.4353237  39.1940689  56.5510798  86.3873291
  40.2159309  56.5459681  85.2707481   2.5678456  46.9287777  88.9209461
   2.0380840  47.5940228  89.3603134   1.9314724  46.2914038  88.5968876
 115.5373371   4.8441314   2.6241354 115.2846873   4.8428916   1.7008738
 115.4030478   3.9406680   2.9104094  10.1537526  19.6679366  77.2800112
  10.3579962  20.2119684  76.5193892  10.2949488  18.7707877  76.9776535
  26.9724941  72.9229403  87.0822048  26.7313266  73.7730837  87.4500847
  26.4189029  72.2952318  87.5466919  28.9235187  59.7146034  86.9365501
  28.9000249  60.6190109  87.2491550  28.1993914  59.6577835  86.3131428
  19.8501849  30.2785063  91.2109375  19.4874167  30.7722545  91.9463539
  19.0855432  30.0147843  90.6990719  75.5172731  34.8570394   0.8424525
  75.0377471  35.6792688   0.9435896  76.1202930  34.8384809   1.5855841
 109.0039938  66.6711473  67.9170704 109.4684326  67.2394276  67.3025894
 108.1647115  66.4942074  67.4921846  22.3366833   3.8244975  54.9085712
  21.8473339   3.0960125  54.5263672  21.8215251   4.6006733  54.6885824
  13.2911515  11.3861883  84.7001934  12.6230586  11.5808499  85.3574562
  12.8188419  11.3982248  83.8677216   3.1216067  57.3903465  70.6444025
   3.7174368  56.9247055  71.2312555   2.9680356  58.2306099  71.0763741
 101.5808452  10.2304982   9.2866282 101.2338794  10.6419372   8.4950690
 101.8868363  10.9622478   9.8224883 105.4848779  17.8269243   6.2289290
 105.8105195  17.4286746   7.0361380 105.1255215  18.6698198   6.5057330
  65.5310577  99.0398513  11.9598536  64.6396822  99.3096171  11.7387061
  66.0836262  99.7522746  11.6383700  26.9894440  26.8173360  17.5061850
  27.8136475  27.2436189  17.2712378  26.3137037  27.3683976  17.1112875
  38.6208510  72.9170990  86.5644264  39.3177009  73.3550882  86.0757542
  37.8136683  73.1944561  86.1311054  70.9463996  87.3086201  13.0719523
  71.4453811  87.0121203  13.8330893  70.7883161  86.5126620  12.5643115
  87.0290834   4.2920636   7.1146445  86.2524408   3.8926601   7.5064806
  87.5629980   4.5612001   7.8621249  21.2168932  29.8059845  70.9512997
  22.1581316  29.9696994  71.0104465  20.8138704  30.6516361  71.1479712
  16.0286796  48.4467983  82.5658512  15.0963056  48.6572695  82.6169682
  16.1110985  47.9148579  81.7743492  45.0125837  56.6454935  92.4499702
  44.9148417  55.7160187  92.6567364  45.3251886  56.6580391  91.5453434
  81.7054734  19.2222976   6.5737681  80.8933643  18.7614488   6.3632159
  82.3988316  18.6385154   6.2660555  50.2511197  84.9679957  23.9594035
  49.5715386  85.0931440  23.2970290  50.9402663  85.5857931  23.7151961
  30.6099534  51.3801193  93.2903957  30.5212831  52.3017359  93.0475140
  30.1331568  50.9059572  92.6091766  61.3489908  65.3416143  32.3976378
  61.8253535  64.6710048  32.8871207  61.3416737  66.1023234  32.9785876
  13.4337485  64.1187525  82.6040649  12.8001189  64.0727377  83.3200455
  14.2777932  63.9419222  83.0194569  42.0813227  54.6370649  90.9066582
  42.7259398  54.5920467  91.6128349  42.2918844  55.4466581  90.4414177
  29.4586110  72.4590397  94.4496822  30.2674389  72.8153276  94.8172283
  29.0660763  73.1935072  93.9777660  81.3210076  88.0745374  11.2952284
  80.6700248  88.7166773  11.0121970  81.6104001  87.6539908  10.4855208
  19.9539125   8.2837200  50.5336666  20.0189686   7.5828558  51.1823511
  19.2435527   8.0084950  49.9541235  35.0325727  57.3226166  72.4649572
  35.1291728  57.0036793  71.5676403  35.7300425  57.9704618  72.5652742
  37.5593022  91.9111071   7.0850329  36.7876494  91.3854061   6.8742709
  37.9122856  91.5105639   7.8795199  31.5045142  42.9969788  79.2835903
  30.6571531  43.4332752  79.1949368  31.3081503  42.0670509  79.1699886
  13.9150316  15.3564834  15.7464270  13.9869434  15.3699064  16.7008261
  13.0347283  15.0207996  15.5772643 112.9971685  70.2001333  71.6050959
 113.1381449  70.9940052  71.0892248 113.7462186  69.6422100  71.3956261
  92.8550589  10.2460050  18.1795172  92.1535337   9.6508216  18.4437994
  92.6002372  10.5437755  17.3062281  56.6033632 101.6845189   9.9839262
  55.7102996 102.0216237  10.0548415  57.0246810 101.9485341  10.8018641
 106.8639141  44.7557449  89.4376373 105.9982103  44.8077917  89.8427010
 106.8609267  45.4477882  88.7763500   7.2587943  25.7226562  91.2054539
   7.5748348  26.3805628  90.5861759   7.2585440  26.1705756  92.0513821
  12.8415465   0.1237170  86.7719078  12.9521728   0.9525464  87.2377777
  13.6965311  -0.0442858  86.3756657  13.4697230   4.1203069  28.6565833
  14.1363032   3.4395456  28.5645537  12.7430660   3.8192987  28.1110625
  18.9413905  34.4601631  79.3511963  18.9973056  34.8811817  78.4933805
  18.4846020  33.6357594  79.1840601  31.5605354  52.2546816  61.3413763
  30.6892085  51.9733000  61.6203880  31.4203930  52.6504517  60.4811668
  34.2183423  63.1910896  73.6830091  34.3021369  63.1116390  72.7327967
  35.0665712  63.5285473  73.9708662  63.6090464 101.6375504  18.0344347
  64.1404480 101.2230264  17.3547225  63.7512463 101.0978185  18.8120608
  91.7589092  47.3170519  78.0095148  91.8514061  47.0542479  78.9252710
  92.2328854  48.1464815  77.9493237  45.9252548  44.9887609  91.1988544
  46.5551329  45.1526833  90.4969883  46.4353943  44.5529270  91.8815231
  16.0956776  18.1014371  70.1806784  15.9074306  18.3156359  71.0944128
  16.0142803  17.1487355  70.1363373  34.0156174  44.3645144  71.3444567
  33.2287407  44.5433569  70.8296061  34.7375178  44.6566486  70.7879019
  51.2283629  99.8001633  13.2370429  51.5932471 100.5532132  13.7018065
  51.0292024 100.1324426  12.3617415  74.4815868  96.3849030   8.9281325
  75.0571579  96.6609298   8.2148604  74.6965164  95.4623853   9.0659861
  46.2137413  61.1253881  62.8069496  46.9638252  60.7246065  62.3676586
  46.0211372  61.9060993  62.2876930  36.1618087  83.7688099  34.8923735
  35.6306124  83.4096013  34.1817240  36.9709549  84.0523945  34.4668250
  54.0713882  38.0818748  93.7781334  54.0086460  37.3678350  93.1437492
  54.0347290  37.6485729  94.6308613  60.4948110 102.5121938   7.0598368
  59.9509043 102.6941739   7.8261809  60.1341695 101.7032538   6.6968112
  49.5866299  45.6487370  87.0399761  50.0256300  45.8896160  86.2242031
  49.9499989  44.7918749  87.2635460  18.5625476  78.4165583   9.8032145
  17.8709001  78.9161788  10.2370791  18.7841171  78.9357243   9.0301661
  28.9307338 109.9169122  28.3673625  28.2854837 110.5185233  28.7387709
  28.9732999 109.1946135  28.9940218  83.4305548  97.4012851  74.9859571
  82.8711065  97.5201510  75.7535028  83.7520098  96.5027808  75.0607157
   6.8582088  14.6101832  63.5009623   6.3895655  13.8481498  63.1605053
   7.0056319  14.4076276  64.4247961  94.0305811  41.9083691  87.3047733
  93.5784321  42.3549986  88.0205441  93.4852772  41.1445141  87.1166420
  57.1162337  98.3818112  31.3191466  57.6117462  97.5630532  31.3372569
  57.0748109  98.6570130  32.2349886   7.2056818  35.6672716  91.3725853
   8.0029738  36.0082388  91.7779255   7.3760617  35.7147932  90.4318714
  53.8406366  95.7246218  20.9564070  54.4222611  95.8111010  21.7116980
  54.4059235  95.4021560  20.2544741  18.6414206  55.7448149  88.5860348
  18.0266058  55.9304142  87.8762531  19.3530464  55.2614975  88.1662369
  47.8901243  58.1671143  81.5205383  47.9031324  57.4608850  82.1665382
  47.7655172  57.7224922  80.6820774 110.7956337  77.4347210  47.0629311
 109.9188834  77.1725607  47.3436689 110.6575608  77.8702831  46.2218285
  63.0204743 108.5343133   5.7575850  62.6720375 108.5964499   4.8682265
  62.4371690 109.0827189   6.2822108  79.9943704  97.9405223  14.4811682
  79.9100179  98.6459122  13.8396601  79.3599099  97.2821103  14.1980032
  20.4959369  43.8119555  71.9737053  20.1233196  44.4750023  71.3925409
  21.0421276  44.3077803  72.5836802  91.1971336  21.6827440  50.8324337
  91.5056186  21.7664337  51.7346907  91.2715131  22.5659490  50.4709864
   2.4551249  49.6233797  70.4377365   2.9668745  48.9195204  70.0390768
   1.5589021  49.2876482  70.4551077  30.2024949 106.8522416  28.4041552
  30.7674790 107.5231467  28.0208640  30.7127845 106.4964019  29.1316275
  48.0576563  49.9450541  31.8643022  48.0720043  49.7648907  32.8042841
  48.7003803  49.3397188  31.4945650  54.1042888  18.0823707  12.0386176
  54.7975076  17.4613141  12.2621588  54.3120587  18.3625793  11.1472468
  25.3224158  55.1420546  84.5446014  26.0468459  55.7229185  84.7770405
  25.6349134  54.6653414  83.7756252  18.7190659   9.7245931  12.8861193
  18.3362562   9.4288158  13.7120776  19.1054566  10.5756950  13.0924181
  15.1233799   6.0354232   6.6564612  15.3337414   5.4576015   7.3900179
  15.9623987   6.4246225   6.4098982  32.8061193 106.4048205   8.0988745
  32.2780138 106.7508851   7.3794512  32.8750652 107.1324597   8.7169604
   0.6330833  39.5321822  34.2963290   0.6617211  38.9145684  35.0270605
   0.4095597  38.9943171  33.5367441  11.0994351  84.6385098  91.2119961
  11.9193959  84.6177578  90.7185745  10.4430497  84.9186039  90.5740738
 111.1964596  16.6431236  15.1928858 110.7578767  17.2852277  14.6346907
 112.1064699  16.9379091  15.2276854  40.4498100  40.3865623  85.8614540
  39.6763992  40.4822206  85.3056431  40.5453444  39.4413400  85.9783173
  15.0236320  87.5254536  87.1628571  14.9163711  86.5810966  87.0492554
  15.7063937  87.6106167  87.8283024  44.1460371  75.7407999  65.0483894
  43.7687349  76.4872885  65.5138206  44.4259739  75.1429844  65.7415581
  76.4429331  80.4479885  78.8577318  75.7714033  80.9136581  78.3593035
  75.9946060  79.6740150  79.1986132  43.7204123  62.7390242  89.7181511
  44.1909838  63.4821844  89.3406487  43.1999922  63.1194782  90.4257202
  60.9651995  55.7300377  85.3032017  60.3043461  55.1612186  84.9083042
  61.2316895  55.2706289  86.0995388  27.0974874  67.1792459  74.9815130
  27.9364514  67.6272821  75.0893784  27.3336434  66.2819672  74.7462511
  32.4314451  71.6016340  92.4368477  32.1160293  71.5886164  91.5332031
  33.0956388  72.2907925  92.4487877 108.4728378  44.7845364  91.7124176
 107.9759806  44.6199703  90.9109974 109.2676091  45.2272749  91.4148426
  33.5355306  55.0021887  84.9175739  32.9203081  54.4738436  84.4090557
  33.7333226  55.7493210  84.3528557  35.5383253  72.8489828  63.4856272
  36.2997222  72.3399878  63.7638903  35.8806849  73.4496212  62.8236198
  50.8925676  51.8799829  82.1467781  50.9764147  50.9339333  82.0276546
  50.8415127  52.2297955  81.2572479  23.6144662  59.9916887  69.0113592
  24.2686200  60.3721094  68.4251881  24.0900517  59.8252821  69.8252153
  20.7859349  69.6111012  83.3406830  21.2794256  69.3161678  84.1060066
  20.8970237  68.9094830  82.6991081  15.1280386  10.0559377  12.0210986
  14.6952994   9.4011497  12.5690226  15.6171162   9.5438861  11.3770155
  54.9231148  57.0966959  78.2832241  55.7616711  57.2473001  77.8469038
  54.3206501  57.7101040  77.8625202  83.3629626  69.3690763  12.9151873
  83.5830516  69.6069859  12.0145278  83.6495036  68.4596740  12.9995398
  12.8128750  13.0697870  18.3879046  11.9071419  13.0463170  18.6966567
  13.0001242  14.0004682  18.2654242  60.9828901  47.3151207  77.6187468
  61.6427517  47.4793100  78.2924366  60.3445244  46.7420435  78.0433702
  48.3716965  76.0226631  28.7285304  47.6165533  76.5721512  28.5186386
  48.8815260  76.5431929  29.3492985  67.5740623  60.1651096  77.7999115
  68.4756994  60.3769064  77.5582027  67.5398350  59.2086792  77.7826691
  15.2833635   1.2923908  17.2967391  15.2928526   1.9201183  18.0193095
  16.1263878   0.8432674  17.3585562  50.5275822  67.1149540  83.6348820
  49.6850777  67.4105072  83.2898235  51.1365509  67.8205109  83.4167385
  23.4715581  64.0751171  63.9490747  23.4104633  63.1822920  64.2887259
  23.5029173  63.9680910  62.9983950   1.3542832  51.4509726  84.7899151
   1.5279520  52.3761702  84.9633694   1.4618544  51.0236740  85.6396675
  30.3761053  59.0395069  66.0039520  30.7866025  59.4469452  65.2412462
  29.9095106  58.2827711  65.6491613  43.6284447  66.4455748  65.7641029
  43.8893461  67.3346281  66.0043955  42.9612923  66.2093019  66.4085531
 115.2449715  40.9502839   2.7245192 114.4042528  40.9235811   3.1813674
 115.8859599  40.6930398   3.3872370  78.0568499  94.2816149  10.7630496
  78.1629890  95.1935349  10.4921870  78.7899012  93.8229619  10.3525500
  20.2621872   4.9899673   0.8525042  20.1180870   5.8670806   0.4973559
  20.3747351   5.1279020   1.7930083 113.0424798  35.3552198  10.2358965
 113.3362711  35.3451299  11.1468367 113.8117564  35.0874566   9.7331576
  61.7696899  97.9611693  18.5221819  61.3610286  98.4337531  17.7969985
  62.1841568  98.6439381  19.0496974  35.2676899  14.2576360   8.8795619
  34.3134672  14.2251729   8.8114695  35.4629976  15.1746558   9.0723471
  69.7370720  30.6523418  84.4776535  69.1923761  31.1896610  85.0528336
  70.5585384  30.5451155  84.9571609  21.7059898  60.2530766  63.0735254
  21.2862730  59.5757198  62.5431919  21.7508149  61.0155153  62.4965382
  57.0039940  62.6001596  87.1676350  56.7857647  63.5150194  87.3454952
  56.6142416  62.1151781  87.8950405  15.5408049  44.6191072  87.3423290
  14.7659731  44.2706585  87.7832985  16.0349560  45.0560331  88.0359745
  32.9434228  79.8299360  84.3103313  32.9401803  80.1255703  85.2207279
  32.7102971  78.9028215  84.3587399   9.3021268  54.5963287  93.7111950
   8.7862688  54.5304918  94.5147991   8.8197124  55.2189207  93.1672382
  24.6992898  74.8854160  84.5565414  25.5931211  74.6298504  84.7845364
  24.7892976  75.7603312  84.1788387  19.9942100  50.7405376  95.1937675
  19.7877109  51.6474533  94.9677277  19.3547070  50.5101013  95.8676815
  50.3170443  66.4592981  89.9801159  51.1086321  66.5313339  89.4467831
  50.6294632  66.1568069  90.8328342  37.5194573  85.2930164  70.3463793
  37.6575375  84.3563652  70.2055025  38.2683825  85.5686951  70.8749104
  25.9148199  22.5944089   2.4947886  25.8855421  23.3921670   3.0229525
  26.2570316  22.8803348   1.6478114  30.8541376  11.8792819  20.7501082
  30.0833971  12.3033571  21.1274008  31.2865574  12.5706004  20.2487807
  37.9959607  64.6072817  77.4897146  37.4211717  64.1452503  78.0999422
  37.4255276  65.2435732  77.0584726  46.1510468  79.5208406  83.9510059
  45.3528118  79.2455196  84.4018459  46.5083075  80.2181435  84.5008755
  67.8284073  54.1329527  79.6502686  67.4510813  54.2044020  78.7734890
  68.7236595  53.8285303  79.5016670  42.6634920 102.1193705   6.7937617
  42.2291038 101.3579379   7.1781592  42.6006907 102.7964078   7.4674944
  98.6797255 106.9572459   4.3146662  99.1387576 106.3575230   3.7265734
  97.8593177 107.1546756   3.8627963  11.0128653  35.2106953  90.0593853
  11.7632508  35.0055718  90.6171227  10.6268859  35.9921765  90.4550362
  90.8398885 103.7626324  15.1434569  90.7990855 103.0105315  14.5527701
  90.1355714 103.6107550  15.7736163  30.6689215  79.4116926  88.0150223
  31.0898376  79.4432640  88.8741302  29.7324061  79.3701553  88.2085323
  53.3597851  83.0743313  91.7754269  52.9853010  82.5725269  92.4994278
  52.7097464  83.7528038  91.5927887  22.7599758  83.4173499   9.5860343
  23.1250423  82.5756965   9.8591284  22.0038694  83.1866537   9.0463023
  17.5890762   6.0635804   4.0053801  18.4802706   6.2298536   4.3125586
  17.4263746   6.7506885   3.3591322  33.1810808  69.5223093  90.4354572
  32.6342463  70.2653170  90.1802349  33.9068508  69.5335531  89.8114681
  44.1245317  59.4212580  59.6084261  44.7679186  58.7341881  59.4345951
  44.6430302  60.2228403  59.6781015   8.5228045  19.9106979   2.1468787
   8.7428219  19.8374938   3.0755667   8.5845024  19.0150737   1.8147997
  15.8529806  63.4639645  76.7349243  15.6493449  63.4991550  75.8002949
  15.2698088  64.1110754  77.1316481 114.5898456  78.2748304  47.3251013
 114.4314403  78.9139281  46.6303401 115.5320281  78.3249627  47.4863772
  37.8701568  82.4222374  50.5489588  38.6104798  83.0286312  50.5699635
  37.5491047  82.4048901  51.4505434  26.4990282  47.6129580  81.2575626
  26.9760394  47.3937511  80.4571533  27.1830010  47.7728224  81.9078350
  51.4899492  16.4353168  89.8313618  51.9759607  16.2898946  89.0196419
  51.9613504  17.1441412  90.2690601  69.8754501  52.3149872  78.6568022
  69.3349838  51.6516590  78.2277060  70.1941586  51.8869066  79.4514132
  61.0691881  57.9719210  89.6423817  60.5978727  58.7861156  89.4657993
  61.5823746  57.8154802  88.8496685  98.1542957   3.5893535   7.8143649
  97.4156463   4.1904592   7.9108290  97.9277087   3.0512380   7.0558695
  31.6787100  75.7344103  89.8365402  31.9868207  76.2277508  89.0763378
  31.9704199  76.2480927  90.5897141  56.3042021  61.1271286  89.5090199
  55.4805183  60.6633520  89.3583679  56.2641287  61.3943481  90.4272842
  54.8899317  57.5259924  82.6895905  54.4675398  57.5219297  83.5485458
  54.1879129  57.3081827  82.0764351  17.8139842  68.4029245  89.5117378
  18.5327625  68.2425785  88.9002800  17.4694967  69.2589617  89.2572498
  39.0619087  59.0340710  67.6302338  38.6337924  59.8689842  67.4408484
  39.9263954  59.1111946  67.2265720  69.6645874 109.7715865   2.2885947
  69.8482746 110.5275832   2.8462271  70.1297134 109.0469418   2.7066664
   2.2416241   2.1268987  12.4552779   2.2785313   3.0115318  12.8189902
   2.6907522   1.5829706  13.1023173  45.4401827  56.2146378  69.0975857
  45.0407171  56.7745399  68.4318781  44.9283552  55.4062653  69.0692043
  45.7312584  76.0328770  78.2326841  46.0336113  76.4554310  77.4287796
  45.9875870  75.1161051  78.1323910  44.7346210  53.4216022  68.5428619
  43.8660669  53.7880945  68.7087965  45.0483179  53.1490707  69.4051600
  73.1926054  98.4413396  22.9001479  72.9509515  97.5162755  22.9459433
  74.1363686  98.4347258  22.7404646  23.2321382  73.0055475  87.3467159
  24.0789485  72.6203156  87.5719738  23.1434989  73.7521982  87.9390717
   7.0595235  59.2794847  87.3285389   6.8407381  58.4562159  87.7651024
   7.7163744  59.0372515  86.6757679  15.9213222  78.6888514  22.5640349
  16.2944568  79.5110546  22.2462515  15.9450877  78.1059323  21.8051772
  69.1910028  49.2558479  83.4309864  68.6199045  48.7234068  83.9846897
  69.5964193  49.8788166  84.0341282  74.3261546  96.5657912   3.3937792
  75.0213522  96.5375481   2.7364115  73.5462159  96.2597905   2.9308657
  31.3242841  58.3891392  83.7661076  32.1732855  58.0566740  84.0574741
  31.1725688  57.9554081  82.9264164  42.4142790  76.4158249  68.9017296
  41.8264961  75.8330631  68.4209633  42.7194357  77.0425892  68.2457733
  44.7166586  63.1029272  65.8116007  43.7807560  63.1436157  66.0082340
  44.9101782  62.1668911  65.7604408  60.4229784  74.0251541  84.8557949
  59.7491884  74.3153620  84.2409706  60.4002571  74.6735096  85.5596066
 108.5813487  22.3760223  10.3583483 108.8658822  22.0388030   9.5089011
 108.1191600  23.1881904  10.1510005  21.5656638  80.2308655  85.0490093
  21.6214514  80.4218292  84.1127205  20.6783056  80.4927826  85.2944183
  50.0604648  86.2733565   2.4717860  50.7313866  86.7823253   2.9268126
  50.4771882  85.4294477   2.2974543  32.4035532  56.7377424  27.9769091
  33.0682785  57.1450185  28.5323386  32.8147251  55.9325647  27.6624732
 106.2387723 105.4524051   1.9579749 106.7589015 106.1062299   2.4251036
 106.8088311 104.6852074   1.9062666  18.7233812  21.9462871   7.3732428
  19.5471127  21.9408416   6.8857245  18.0611736  21.7002820   6.7273383
  78.8093728 110.2663813  18.6019759  78.5738057 109.8042689  17.7974944
  78.6307401 109.6370660  19.3007521  54.9366760  83.2745171  83.2684612
  55.7765150  83.1534290  82.8254700  54.9178171  84.2040539  83.4961605
  75.6697601   0.5782164  86.1429596  74.8707456   1.1005534  86.0724545
  75.4844588  -0.0499307  86.8410492  54.2597055  63.5893631  84.2981815
  54.9318266  63.1175327  83.8063908  53.4402561  63.3702469  83.8546562
  44.5794106  67.5631523  38.0024695  44.2219067  68.4325695  38.1828523
  44.7855711  67.2050905  38.8659048  50.6015873  55.8460665  93.4515953
  50.0367308  55.4061127  92.8162956  50.4931259  55.3419399  94.2580223
   0.5200542  10.2485312  87.1985149   0.5726255  10.7232417  88.0280399
   0.4298557   9.3302954  87.4533272  16.1079962   5.2294587  -0.0171800
  15.9512932   4.7782659   0.8123354  15.3615696   5.8210134  -0.1128049
  74.1554421  81.4338337   8.1527476  74.1528291  80.6664334   8.7248663
  73.9923948  81.0809980   7.2780184  33.9187288  68.1212378  92.7307606
  33.8372540  68.7593937  92.0219994  34.6618223  67.5741816  92.4762535
  35.1421165  81.6576767  84.0403366  34.6379757  80.8909321  83.7679958
  35.9887457  81.3034248  84.3122864  65.9998703  45.4161358  92.4022293
  66.3215923  44.5641613  92.1075058  66.7710876  45.8503199  92.7668381
  11.8905670   9.2588043   5.6957297  11.9255526   8.3026075   5.6693415
  11.1350186   9.4556379   6.2494807  65.7531404  47.6304436  87.2540092
  65.2817631  48.4584332  87.1619701  65.0962114  47.0159435  87.5812244
  61.8711758  96.5532780  91.7048073  62.5236320  96.0863972  92.2268772
  61.9859266  97.4728203  91.9445992  27.3464942  57.1840763  72.0479774
  27.6655650  56.2832642  72.1024561  27.8913403  57.5908232  71.3742352
 108.8206357  75.2511059   2.2227721 108.9266223  75.8606611   2.9531435
 109.6098823  74.7100077   2.2459368  44.2822308 100.0963746  11.4091925
  44.4592577  99.7295247  10.5429892  45.0237215  99.8143874  11.9448332
  17.4419260  91.3653755  67.3230171  16.7500615  91.8807983  67.7376270
  17.0267296  90.5274105  67.1189356  14.5684385  76.5407419  58.3038092
  14.7697639  76.4118433  59.2306757  15.4066598  76.4201832  57.8576231
  40.1049566  67.8659153  88.5184669  39.9104404  68.7721109  88.2792854
  40.2355146  67.4200583  87.6815701  33.9866042  61.8361616  82.9332829
  33.1486845  61.8048763  82.4716091  34.2951202  62.7337313  82.8090954
   6.0640961  45.1111412  76.0776901   5.8160818  45.3203344  75.1771545
   6.1963886  44.1631269  76.0756111  53.6721880  31.6489267  27.4456076
  53.6739237  32.1409845  26.6245703  53.3605940  32.2748708  28.0993132
  62.5567335 108.7963925   9.7238020  61.6915649 109.0183888  10.0679354
  62.4079865 108.0194484   9.1848521   7.6961231  73.5711002  70.2140474
   7.7467209  73.8433933  69.2977905   8.5734832  73.2460833  70.4161263
  48.2611704  50.0743961  85.2653790  48.0638647  50.3624964  84.3741417
  47.6151848  50.5233002  85.8107376  14.7747214  27.8164434   1.8262438
  15.5889589  27.3708867   1.5923171  15.0537331  28.5612821   2.3587756
  27.3538113  78.5848570  64.4448853  27.3198318  79.4798422  64.1071320
  27.8022504  78.0875874  63.7608814  27.3585510  32.7168512  91.7150593
  27.2589254  32.8565216  92.6567650  26.7030883  32.0530319  91.5007210
 102.3666972  90.9054600  33.6443190 101.5554255  91.1419450  33.1947188
 102.4131698  89.9523555  33.5690646  24.1480494  62.3978424  56.2668324
  23.6729360  61.6564894  56.6421938  24.1270995  62.2424221  55.3225708
  47.7229404  86.3387108  82.1142769  47.3347473  86.3712597  81.2399292
  48.6654282  86.4043045  81.9604778 106.7940104   8.7729263  21.2969355
 107.0729649   7.8607940  21.3771109 105.8380354   8.7299442  21.2745718
  28.6885262  83.0266857  84.5483208  28.4312654  82.9053688  85.4622841
  28.3836508  83.9070129  84.3285179  55.4026270  53.9091158  84.0477657
  54.5213461  53.5364008  84.0220737  55.6765413  53.8136959  84.9599552
 114.7327730  47.5922346  83.9740944 114.9254834  47.3584127  83.0661201
 114.8208512  48.5450220  83.9999294  35.0451136  45.0980091  94.8965740
  35.9724498  44.8781776  94.8073864  34.9294329  45.8748674  94.3494511
  51.0751772  82.8883457  48.4596014  51.1643171  81.9529915  48.2768536
  50.2004194  82.9761124  48.8381910 106.1330307  26.9908857  31.6217284
 106.7593086  27.7023458  31.4882235 105.6131113  26.9755315  30.8181815
  39.2613888  89.0708733  62.8094578  38.5482717  89.2489624  63.4226322
  39.7101784  89.9108791  62.7135277  21.4440996  14.7399806   2.6308970
  21.1452324  15.2770137   3.3647303  21.0428745  13.8840675   2.7814440
  40.7184219  29.6757293  93.6862564  41.1659193  29.5026445  94.5145130
  39.8371696  29.9477625  93.9424324  62.7529979  31.3938188  10.3847556
  62.3186505  31.1891507   9.5566992  62.2736621  30.8851671  11.0387759
  42.2628975  57.5846338  91.1678696  43.1158543  57.9880857  91.0068798
  41.6360044  58.1748629  90.7496929 106.7700929   9.3942870  84.5712757
 106.8414563   8.6930312  85.2188683 107.3126286  10.1005019  84.9222088
   0.5271442  11.4862060   2.3968081  -0.4182332  11.3392829   2.4269347
   0.7242663  11.9456481   3.2130675  22.1179867  67.1271086  53.5026312
  21.5844512  67.7630711  53.9792109  21.5193272  66.4037514  53.3166409
  31.0447335  48.1659555  91.0435772  30.6721163  47.6684284  91.7714882
  30.4483318  48.9058304  90.9290218 116.1433308  97.0581245  72.4127340
 116.2170454  97.9920292  72.2162008 116.4654250  96.9761181  73.3103800
  93.0124045  21.0168504   0.6525187  92.9108119  20.8399057  -0.2826829
  92.1281088  21.2244319   0.9544520 115.1029700  95.1978074  19.4800429
 114.5907563  94.5783649  18.9602713 115.5468387  94.6544872  20.1312117
  55.4545116  56.2803698  95.4609585  55.8930635  56.9132280  94.8922825
  55.2720070  55.5329132  94.8915482  26.3997490  26.8998098   2.4392180
  27.0636494  27.4464654   2.0189242  26.0926087  27.4227762   3.1797461
  50.2558279  93.8411999  86.5475273  50.7315016  93.1223011  86.1314106
  49.6023178  94.1030788  85.8990002  67.2041512  48.4325123  78.9142370
  67.3360491  48.5904121  79.8490620  67.0085335  47.4974203  78.8545370
  73.7978792  48.5907888  74.5759153  73.1423616  49.2674875  74.7450733
  73.9939451  48.6751795  73.6428213  25.7922029  73.5859108  93.4696007
  25.5035114  74.2004585  94.1442966  26.6732860  73.8802290  93.2387161
  89.9999332  43.0988646  93.0782032  90.4162788  42.2381401  93.0329895
  89.0613556  42.9124451  93.0547714  34.8752689  62.9443407  93.3107758
  35.5304193  62.2721529  93.4983253  34.3850589  62.5994015  92.5644970
   3.0709010  88.6503410  75.1488638   3.7299630  89.3415546  75.2128649
   3.2623628  88.2129097  74.3192673  17.4945343  52.0151091  64.7019386
  17.6097047  52.7987194  64.1644239  17.5269854  52.3359680  65.6031752
  19.4376647  62.9407263  79.0101910  18.7091112  62.6264524  78.4747744
  20.1766300  62.3871374  78.7577963  60.6538820  45.0338650  73.9607906
  60.9778595  44.1778231  73.6806822  59.7445679  44.8747253  74.2138863
  62.9272270  46.3305902  66.6706276  62.4038792  46.8826103  67.2516727
  62.4542570  45.4989624  66.6401482  24.4473672  94.9717236  84.9246216
  25.1608467  94.3533325  85.0819969  23.6596131  94.5042801  85.2024078
  49.5195580  70.7488346  74.1592598  49.0418530  70.3631973  74.8936415
  48.8738585  71.2991762  73.7160587  30.9375167  60.6674576  85.0990582
  31.2041688  59.8778629  84.6282387  30.6117392  60.3464127  85.9399033
  33.2054663  67.5482130  65.9609270  32.6516914  66.8660355  65.5811930
  34.0729904  67.3864317  65.5901718 113.8339031   5.9495782  15.8293871
 113.9645446   6.2820195  16.7174487 114.3143785   6.5612888  15.2715544
 116.8481243   0.7990121   2.4283747 116.0480202   1.2130307   2.7518801
 117.5227750   1.0588741   3.0557112 114.5264256   9.8755788  12.4309210
 115.1274836  10.5893564  12.6441912 113.6950863  10.3108501  12.2421317
  46.4339495  30.6070948  83.8401222  46.2052393  29.7248983  84.1327858
  46.6699600  31.0720730  84.6428204  98.5326928 100.2616893   9.4525961
  98.8229388 101.1277209   9.1662745  99.2905063  99.6951257   9.3078475
  28.8199162  72.5535059  68.7141657  28.3530283  73.1294870  69.3195534
  29.7434950  72.6697350  68.9371681  11.4355659  83.1377029  86.8303204
  11.6821706  82.2128487  86.8219471  10.4784083  83.1303310  86.8354797
  91.3155145  84.8458181   3.0403761  91.0027188  84.3383990   3.7893157
  92.1739549  84.4727550   2.8400282 105.2677506 110.4955445  20.3527979
 105.9484834 110.6638251  21.0043482 105.3488177 109.5620261  20.1573424
 106.8033558  86.7774010  56.0771656 106.4251512  86.5268803  56.9200373
 106.4697200  86.1248112  55.4614973  40.7430267  31.8235517  82.1687222
  40.4526377  32.5872993  82.6673222  39.9350238  31.3602829  81.9479465
  23.8503432  45.3188610  94.4816017  23.8464737  46.2619448  94.6453381
  24.7269344  45.1382971  94.1421700  40.9364080  79.8047972  84.4358253
  41.0668182  79.8037004  83.4875488  41.5583420  80.4550266  84.7623730
  37.9570889  55.7232618  51.9625711  37.0984578  55.6789160  51.5418386
  37.8456211  55.2467060  52.7851915   0.9777004  16.2493181   6.0887198
   0.7817323  17.1853017   6.1306338   0.2658255  15.8335494   6.5751414
  41.1689663  69.6414423  85.3681660  40.3078079  70.0308228  85.2164364
  41.4702272  70.0375509  86.1858273  45.4596090  51.4489794  78.5680532
  45.1198196  51.5301466  79.4592285  45.8961821  50.5972385  78.5548306
  52.1988010  66.8480206  73.9060974  51.7736149  67.6684666  73.6564589
  52.7318573  67.0765352  74.6675873  32.7473831  63.1972647  89.8217010
  33.1518865  62.4715185  90.2970028  31.9071603  63.3319139  90.2600288
   2.8532228  85.7504940  75.6945992   2.5555363  85.5340004  76.5781975
   2.7045694  86.6928005  75.6159258  34.5811272  66.6790295  73.5145044
  34.5243907  67.6293468  73.4149647  35.5145502  66.5064049  73.6376238
  39.0442705  64.5418930  63.8518620  39.2478490  65.0738859  63.0825996
  39.2410374  65.1112652  64.5957232  40.7029772  72.8700781  75.2756786
  40.0771236  72.6336956  75.9602690  40.2335691  72.7111149  74.4567633
  45.8178473  71.0300827  87.0874596  45.9578609  70.9546185  86.1435699
  45.2694988  71.8083382  87.1867847  40.1245880  61.5959644  73.4477758
  40.8059311  62.0600271  72.9613018  40.5584049  60.8079052  73.7748814
  32.6099420  58.6992550  92.6427937  31.8414950  58.7379885  93.2122040
  32.3886967  58.0385017  91.9865227  45.0970507  67.1183300  93.9756393
  45.1450062  66.5639687  94.7544956  45.3553534  66.5427876  93.2557297
  91.6437364   1.5558147   0.7391600  91.0307110   1.1395692   0.1332144
  91.9061005   2.3633956   0.2973418  43.2982206  85.7909203  50.1787519
  42.7912712  85.5719376  49.3969059  43.6161423  84.9478817  50.5019522
  33.7768061  15.1221895   1.7205576  33.7818463  15.0670385   2.6761584
  33.3866865  15.9756898   1.5319590  15.7333684  83.3250332  94.9771023
  14.7828853  83.3926010  95.0679111  16.0096192  82.8043461  95.7312870
  56.1580753  72.2522593  76.4298201  55.7468939  72.5308037  77.2480965
  56.5813875  73.0421448  76.0934782  65.4285431  37.9605627  68.7371635
  65.7135820  37.7331829  69.6221972  65.0032568  38.8126087  68.8339996
 102.7713889 108.7465201  44.9127917 103.4600848 108.9950190  44.2962031
 102.3193282 108.0185328  44.4862799  65.4427052  60.2763510  81.4321327
  65.4821539  60.0544167  82.3624134  66.3572979  60.3919363  81.1744785
  22.4122316  55.7596444   2.3456912  22.2202665  54.8331212   2.4904303
  21.5684349  56.1986589   2.4529223  68.7459135  47.5585842  81.5857601
  68.9585257  48.2799339  82.1779537  69.4355059  47.5821543  80.9223366
  92.7591133  85.5094337  91.1013508  92.6521587  86.4538670  91.2146854
  92.0317650  85.1255417  91.5910721  58.6380434 104.9849415  89.6397686
  58.7888718 105.4235458  88.8024426  58.0648470 105.5805969  90.1223278
  32.0355749  79.8783445  81.5249825  32.3092222  80.7795906  81.3543701
  31.9447184  79.8317194  82.4767113   1.6974051  12.5420617   8.9938406
   2.3100073  13.1564521   8.5895209   1.0649283  13.0985879   9.4482474
  73.1048888  85.3186665   7.5380187  73.7306613  84.9674354   6.9045596
  73.0427307  84.6429907   8.2131724  34.8195583   1.5322351   9.1671805
  35.2670986   0.9693765   9.7989516  34.0987904   1.9218969   9.6620421
  33.3426356  92.6128769  63.0843353  33.1290984  92.6458359  64.0168285
  32.7576447  93.2547569  62.6818275  14.1698802  95.7843314  15.6712679
  13.8621104  95.5122433  16.5358309  14.6093906  96.6205178  15.8257155
  28.7816978  71.4601994  89.2049599  28.0879974  71.5869427  88.5577011
  28.3671570  70.9553051  89.9045849  30.2779705  26.0466909   1.2499575
  30.4783756  26.2194394   2.1698622  30.3111202  25.0931978   1.1725668
  36.8726325  71.6398573  73.7703133  37.7603078  71.8258238  73.4642363
  36.8879294  71.8650389  74.7005224  16.6078598  21.9494533  26.0022788
  16.5998108  22.6522159  26.6521124  17.4800141  21.5625047  26.0787444
  53.0171091  15.8192348  13.8542990  53.9742453  15.8147620  13.8438849
  52.7861387  16.6407537  14.2878775 100.9396136   2.6264524   1.1029772
 100.4905904   1.8262147   1.3754229 100.7437694   2.7049684   0.1693205
  46.7229080  53.0079651  84.3376637  46.5892506  52.1275234  83.9866829
  45.9325266  53.1850004  84.8477459  25.1537592  30.3076886   0.4119162
  24.5534498  31.0382413   0.2630858  25.0496132  30.0973367   1.3398985
  80.5009651  86.5408421  79.2496634  81.1142635  86.7597198  78.5481024
  79.9301481  85.8732891  78.8691759  30.2036285  65.8827972  90.1861572
  31.1321163  65.7996416  89.9688339  30.1707792  66.5903044  90.8300400
  70.6065226  59.2370844  86.7170429  69.8352909  59.6816349  87.0689106
  70.3827000  58.3070040  86.7499638  49.2291403  89.3805408  67.4424028
  49.2184258  89.4469070  66.4875698  49.7333813  88.5869217  67.6216888
  53.9659214  71.4495945  74.3734550  53.2334375  71.4340258  73.7574530
  53.5575485  71.5902042  75.2276707  24.2534494  50.2752256  63.5392857
  24.3829560  50.7449865  64.3631697  23.9875484  50.9520817  62.9168797
  38.6611921  19.7620391  16.6195063  37.9576571  20.2415799  16.1821131
  39.3458969  20.4161262  16.7594485  26.0274053  54.4466686  61.6703939
  26.8035150  54.1833162  62.1648932  25.9939480  55.3984737  61.7661810
  59.7218609  47.4113464  94.1929150  60.1515198  48.1228447  93.7181568
  60.3574991  47.1497917  94.8590851  20.9874749  63.1113577  90.7764721
  20.9536839  64.0019989  90.4274082  20.1937675  63.0311584  91.3054562
 109.7779668  30.2578878   6.0910372 109.9827159  29.3630552   6.3622813
 109.5670832  30.7129621   6.9063048  19.5008779  60.4998016  90.3686428
  19.6410000  61.4418268  90.2727604  18.7720883  60.4275703  90.9849834
  55.6826162  94.0926266  84.0401077  56.3415527  93.7573338  83.4321499
  56.1821270  94.6043873  84.6763611  87.3708725  78.2189989  77.0750332
  87.2582626  79.0828609  77.4716330  88.2533360  78.2386446  76.7047453
  42.1867275  82.5704861  75.4567862  41.9720316  82.0884609  76.2554026
  41.4895916  82.3395061  74.8428822  13.3082759  72.6067448  83.4434605
  14.2026401  72.7788210  83.1489563  13.3186984  71.6897488  83.7177658
  41.3162327  76.6128492  57.4337673  41.9811106  76.0041904  57.7557898
  41.5455532  77.4516678  57.8338051 114.6199000  41.7402505  33.9193778
 114.3939507  41.0905408  33.2537512 115.2720487  42.2991895  33.4968619
  48.9132547  55.3358698  69.7518063  49.8185492  55.5491495  69.5255613
  48.4626579  56.1803579  69.7582245  46.0707331  78.5410929  63.8253021
  45.9321451  78.2850409  64.7371483  45.2860641  78.2369471  63.3692122
   8.5133028  84.3991661  93.7244320   8.7575507  83.6956215  93.1231022
   7.5593519  84.3449593  93.7816334  47.8391695  74.2121029  76.5363503
  46.9704771  74.0714502  76.1597586  48.1209564  73.3423948  76.8199587
  75.1502228  37.9549098  93.6748886  74.2285156  37.7053952  93.7414551
  75.1895761  38.8308215  94.0588951  23.5861802  78.1281710  73.8914061
  23.3487678  77.2519636  73.5878754  23.9569044  78.5566330  73.1199074
  39.3906021  58.4807968  81.4424038  38.9846158  58.4493494  82.3086643
  38.9690161  57.7733850  80.9544849  48.1289101  59.8430920  73.9822006
  47.5228548  59.9997044  73.2580471  48.3498287  58.9143085  73.9130306
  19.1799862  11.5970516  30.7028822  18.8237364  11.0057449  30.0398020
  20.0455839  11.2401389  30.9018569  65.1003313  49.9174786  80.7475281
  64.9922276  49.6930027  81.6717339  65.8471203  50.5160618  80.7321930
  26.0109973  32.8094864  69.1034698  25.8333945  32.8502035  70.0431681
  25.6632590  31.9604707  68.8305616  47.2411776  70.0131750  81.0953236
  47.8323555  70.7553482  80.9691715  46.3664055  70.4017496  81.0993481
  32.2900295 106.1105728  84.8685551  31.6406965 105.7412243  85.4670429
  32.5195193 106.9553185  85.2558041  12.2074521  67.7418232  54.5253372
  11.9641650  67.1069002  53.8515997  12.0647502  68.5942078  54.1138697
  22.9582483  24.0341949   3.7882952  22.7232058  24.3029641   2.9001765
  23.9081270  24.1452789   3.8286643 112.3076743  83.4457765   4.1965727
 112.8891581  82.6866661   4.1534667 111.5419215  83.1904350   3.6821227
  28.3637214  88.5581112  88.8920403  27.9245591  89.1858959  89.4658470
  28.1231737  88.8332653  88.0073547  49.0984011  72.0261478  77.6075172
  49.6875811  71.3025379  77.8207970  48.3059168  71.8468714  78.1135368
  47.4834490  72.3339844  73.0603695  46.6834736  72.0527077  72.6163530
  47.6696301  73.1983519  72.6937056  42.7429533  81.4528370  63.9031172
  43.3362436  80.9689808  63.3285570  43.3131695  82.0481968  64.3895674
  84.6292657 104.2752610   6.7336134  85.3191775 104.5959864   6.1527495
  84.6765775 103.3222066   6.6582541   5.9286768  23.4460305   2.2596030
   5.4159434  23.1664705   3.0180125   6.7292483  23.8136052   2.6340441
  10.9555180  17.0774459   3.6488394  11.1449082  16.3626336   4.2566351
  11.7682297  17.1953677   3.1570868  36.7714054  58.8814592   4.2033247
  36.1766750  59.6295499   4.1496233  36.5623886  58.4689855   5.0414233
  78.9924622  76.4486313  89.5696926  78.0413914  76.4765072  89.4651699
  79.2958164  77.2893476  89.2270470  25.1032186  84.8174095  78.7578535
  25.9024954  85.2364254  79.0769386  25.3349638  84.4900513  77.8887367
  98.0518949  17.8526496  12.4176173  97.8015018  18.0267715  11.5103106
  97.3078358  18.1610488  12.9348235  35.3217585   9.9621915   8.9085822
  35.4439385  10.2807187   8.0142455  35.6809837  10.6562995   9.4612174
 100.3355778  23.8778590   6.6567950 100.7593525  24.0307521   7.5013499
 100.3646744  24.7275018   6.2169222  63.8068659   0.8137559   2.3275141
  63.7601645   1.7370652   2.5756030  64.4356520   0.4325914   2.9403643
  32.5720263  67.9923773  75.6558657  32.5319290  68.8965988  75.9673214
  33.0662251  67.5280476  76.3314390  54.7329712  82.0205879  79.1819143
  54.1261721  82.7596569  79.1394901  54.8880720  81.7852211  78.2671547
   9.1344101  20.9376859  10.8819632   9.7524531  21.4677285  11.3852648
   9.0257055  20.1400995  11.3999133  41.2061119  91.3053989  68.5507393
  40.8213186  91.9633484  69.1297674  41.6601467  90.7034969  69.1404772
  17.3168564  55.0018215  69.8960066  16.6149056  55.0668812  70.5435133
  16.8638873  54.9803257  69.0530443  39.5042753  69.8175764  75.6833982
  40.0136614  69.0235806  75.5211401  38.6195230  69.5984364  75.3911304
  34.5769906  65.0429249  38.7119746  34.0280867  65.0312710  37.9278851
  34.6469784  65.9695339  38.9415979  51.9681501  99.6590424  79.0493107
  52.0020771 100.2997971  78.3390236  51.8950701  98.8138008  78.6060905
  76.7575693  48.8300467  88.0836582  75.9945202  48.2571793  88.1598854
  77.1468067  48.5995483  87.2400951   4.7372229  19.5939254  23.7336974
   4.7397883  20.2414703  24.4386153   3.8099033  19.4250964  23.5669283
  33.8203955 102.9569340  57.6940918  33.3182120 102.4923134  58.3635521
  34.1399002 103.7430954  58.1369162  11.9663651  16.5530109  13.2552104
  12.5642950  17.2124481  13.6071352  11.1333305  17.0138406  13.1555991
 111.5084160  12.0829105  11.4893298 111.4702761  11.2717866  10.9825282
 110.6155122  12.4264764  11.4590220  36.3602996 100.7162094  90.6673241
  35.6620502 100.8410645  91.3100433  37.0987415 101.2156868  91.0158443
  71.3986397  57.9095125  90.1906109  70.4636812  57.8561163  90.3886890
  71.8249083  57.9182053  91.0476112  49.8077726  73.0758715  87.1478558
  49.5762968  72.7470779  86.2792110  49.5236349  72.3867321  87.7483559
  46.9353914  82.8871250  91.5570831  47.4564266  82.8049850  90.7583237
  47.5751019  82.8324604  92.2670174  47.0960283  24.1665792  93.6686802
  46.3694620  24.5436549  93.1725502  47.4742794  23.5131955  93.0802536
  86.9350052  74.3503571  95.0262070  87.7628994  74.2494154  94.5565033
  86.5530491  73.4726715  95.0296974  54.4108438  49.9614334  94.3062496
  53.4727192  49.7714043  94.2998219  54.8157549  49.1817999  93.9261818
  35.5776978  71.3194609  94.5256329  35.2815056  71.6485167  95.3742981
  34.9973083  71.7387486  93.8903618  47.3063929  49.9285936   7.8292326
  47.7461702  49.3400716   8.4427981  46.4851935  50.1580190   8.2642416
  60.9845448  64.1756296  80.8273029  61.7320156  63.8121700  80.3525257
  60.7993078  63.5320711  81.5112305 115.1401174  11.5058994  10.2684073
 114.5168054  12.2114467  10.4413752 114.6350205  10.7031106  10.3973917
   2.0111544  32.9133271  13.5292201   2.6524908  32.2460603  13.7735037
   2.3084480  33.7061071  13.9756922  70.5906153  56.4876604  87.4996948
  70.9423494  55.6303453  87.7395248  70.8110476  57.0526791  88.2402229
  38.7612718 108.4819518  18.2392935  37.8126285 108.5141669  18.3628611
  39.0010025 109.3749247  17.9915862  69.5416355  80.6987667  78.9022541
  69.9464130  79.8377991  79.0077305  69.4270658  80.7953644  77.9568577
  22.6538403   8.5537910  -0.0745817  23.0958159   7.7107190  -0.1751848
  23.1726963   9.0194701   0.5812792  63.2772607  99.1826402   2.5645785
  63.9047021  98.5775767   2.9601054  62.5911945  98.6177073   2.2090582
  17.3477108   7.9679727   1.7650942  16.8904335   8.8087606   1.7509036
  18.0468971   8.0646562   1.1185412  28.0147362  63.4598637  54.6610975
  27.5670815  62.6806402  54.3314791  27.5704551  64.1909456  54.2317152
  45.5125189  88.1711102  59.3527699  46.2643290  87.8212643  59.8309088
  45.0141335  88.6552334  60.0111532  51.4096260  88.4311295  75.8442354
  52.1034098  88.3114815  75.1957083  50.6139755  88.1368923  75.4008532
  35.6991124  97.4538326  89.5813942  36.0422802  98.3334923  89.4243526
  36.3200331  97.0604420  90.1945305  23.0772686  74.2386770  78.0478573
  22.7412558  74.4640303  77.1803665  22.9366136  73.2947254  78.1213999
  28.1990361  66.9802427  86.4170933  28.5628343  67.8598166  86.5182304
  28.0820918  66.6649151  87.3132610  16.3891108   3.7182760   2.6509146
  16.6951401   4.3939542   3.2559256  17.1677906   3.4743451   2.1505312
 101.7526305  20.2333974  15.4594950 102.2926271  19.5821475  15.9072737
 100.9526217  20.2819061  15.9828143  77.7397156  70.3963041  76.0052633
  77.5960732  70.9966660  76.7368126  76.9171524  70.4137230  75.5160666
  55.2280807  96.1370754  81.8173122  54.8535156  95.2573299  81.7728329
  56.1530781  95.9937286  82.0174694  42.6067495  87.9685020  91.7625523
  41.8269157  88.4656715  92.0093536  42.2795916  87.2838688  91.1790371
  49.5467424  70.1115608  84.2467880  49.6108580  70.3553104  85.1702118
  49.1119576  69.2588329  84.2537975  41.7298794  85.9370422  90.2284718
  40.8537245  85.8268261  89.8590851  42.2819233  85.3464699  89.7159195
 114.7288502  31.2657785  25.6904082 115.2974570  31.9975519  25.9300284
 114.1588796  31.1465883  26.4501242  51.5030098  60.7397366  77.2555685
  51.3361883  61.4433861  76.6284513  50.6403017  60.3620863  77.4269056
  38.4451079  49.8757839  61.7593575  37.9168272  49.2494297  62.2541618
  37.8385687  50.2473927  61.1188507  82.1866322  72.3044300  92.3276520
  83.1263638  72.4613571  92.2354507  81.9238472  71.9245529  91.4892769
  60.4015875  75.8236885  87.0405769  59.6474552  75.9553623  87.6151943
  61.1546946  76.0863543  87.5697994  36.5007472  58.8025331  76.4784575
  35.6159997  59.1220999  76.3014460  37.0459366  59.2279434  75.8166218
  50.0275660  60.9328842  93.7492180  49.7997665  60.2119398  94.3362141
  49.1852903  61.2587357  93.4319973  27.7007372  40.4611348  18.1372504
  27.2356159  39.7463178  18.5719161  27.0806915  40.7893419  17.4860625
  37.4578459  64.5489835   5.6772189  38.4024031  64.6893548   5.7430605
  37.0872004  65.0787019   6.3831000  76.7293882  72.1297884  90.1342010
  76.7323303  71.5031767  90.8577919  77.5128841  72.6614475  90.2745819
  33.8983440  60.1648951  55.5754995  34.2251039  59.3976259  56.0453463
  34.6761179  60.7016325  55.4231405  42.3753834  53.6113119  77.2628689
  41.6777372  54.1827202  76.9419098  42.3701525  53.7367153  78.2118034
  99.7590769  46.8765497  18.1409792  99.4480121  46.7451906  17.2453169
  98.9620793  46.8973970  18.6706881  28.5275585  49.1294717  19.4274954
  27.7785236  49.7216462  19.3603186  29.2823822  49.7088670  19.5313029
  29.8241360   1.7122411  18.0738024  29.7877533   1.2980222  17.2116332
  30.6363279   2.2186422  18.0621485  40.9430599  63.3625793  82.8712368
  40.3934574  62.5789165  82.8650284  41.3206005  63.3973122  81.9923210
  39.2010689  82.3725033  86.5980530  39.6323562  83.1094837  86.1655235
  38.2727313  82.6057720  86.5998936  23.6674786  86.9474030  93.3604145
  23.6404300  87.2948933  92.4689198  23.6191344  85.9979439  93.2489586
  95.9217584  16.5735196   3.9141993  96.0041106  17.4191093   4.3551497
  96.6916538  16.5228271   3.3476977  12.0512325  26.8987798  18.7608866
  11.6062767  27.5043058  18.1679301  12.9179032  27.2839116  18.8904624
  56.7430878  53.7171030  93.1950760  55.8999491  53.3120871  92.9918289
  57.3925447  53.1033802  92.8518963  60.5371284  99.6250343  79.6564484
  59.8728752 100.0009346  80.2341080  61.1095572 100.3607559  79.4390392
  58.1595564  35.6108403  85.3284454  57.9226112  34.8246861  85.8204269
  58.4578943  36.2296724  85.9949780  28.2257342  85.1845360  43.6711454
  27.4641109  85.0690460  43.1029701  28.9090872  85.5194664  43.0905533
  58.6291742  57.9537010  82.1739674  58.0903912  58.4112167  82.8194332
  59.0438938  57.2456598  82.6668358  93.9842081  24.3886470   8.9410262
  93.7677884  24.0949487   8.0560736  94.9172497  24.1969823   9.0355162
  23.7909985  51.2391186  93.5165310  23.6828780  52.0719910  93.0573368
  24.7302413  51.1826468  93.6922169  57.5975895  73.1183815  88.4504414
  57.9117918  72.9584980  87.5605202  56.7028904  73.4383011  88.3346939
  80.4865456  51.7012787  84.3621635  79.8605967  52.0944071  83.7539864
  81.3416767  51.8634462  83.9638329  14.4190533   6.8304776  19.4584708
  13.7809212   6.9464969  18.7545161  15.2640707   6.7868566  19.0109496
  45.1307440  98.9807224  92.2844887  44.2123938  98.9031124  92.0259476
  45.5592871  99.3821335  91.5285492 108.9104474  21.9486522   7.6103644
 109.8141992  22.1959781   7.4146800 108.8821543  21.0041570   7.4575381
  36.7954016  68.4230614  87.4843311  37.2044659  67.8302145  88.1147575
  36.1850023  67.8700352  86.9966793  67.1448916  81.5055810  20.6887583
  67.8427857  81.1641441  21.2478594  66.9863480  80.8092676  20.0513796
  41.5602779  59.0930557  83.3186340  41.1207533  58.4966326  82.7125645
  41.1670399  59.9475241  83.1412220  47.9052496  68.0320835  83.0057144
  47.7182341  68.6320114  82.2836781  47.3112392  67.2948837  82.8645706
  35.6582904  55.3834629  92.2820091  36.2768960  55.9458828  92.7480984
  36.0826087  54.5256805  92.2620296  22.6825411  27.0595884   8.3672862
  21.8833906  27.5856923   8.3389525  22.6230414  26.4920472   7.5987868
  58.3677340  57.2262716  85.0328255  58.2389450  57.5963163  85.9061527
  58.6560059  56.3277721  85.1935291  55.4173326  78.6030006  95.3454971
  55.9496832  79.2280960  94.8534679  55.7840490  77.7476645  95.1215458
  99.7991961  82.2544442   4.4451289  99.6404237  81.4343177   3.9777808
 100.6671590  82.5325881   4.1527133  18.4039092  82.7716446  80.0532722
  18.2554758  81.9400406  79.6031237  19.3463016  82.7888107  80.2200985
   4.9865563  47.9653024  16.5011363   4.7163613  48.6200380  15.8572917
   4.1652329  47.6040410  16.8345313  87.2592181 105.6324302  23.5626750
  87.3052901 105.3365050  22.6535277  86.8944568 106.5157662  23.5088305
  25.8976490   5.8728217  11.7597250  26.7697746   5.9635305  12.1436553
  25.5931694   6.7725896  11.6416506  23.7650967  52.9412031  89.7626019
  24.4920993  53.3381224  90.2423477  23.5732722  53.5632086  89.0607929
  64.9455786  43.2466936  82.0420742  64.8844576  43.3436775  82.9923820
  64.9822092  44.1442776  81.7115784  25.9541018  32.4764871   3.1098418
  26.5494616  32.8636503   2.4680666  25.2343399  33.1038236   3.1778292
  56.4880180  56.8902874  72.1569538  57.4263048  56.7036343  72.1887493
  56.2656784  56.8424988  71.2271595  73.7806892  87.0618725  93.6038971
  72.9101133  86.7011356  93.7718296  73.6132860  87.9137325  93.2007408
   2.6358283  11.2652434  92.6797199   3.4039462  11.8192709  92.5409126
   1.8906844  11.8508852  92.5454998  51.6502285  68.7660456  95.0527477
  50.8299065  69.2459917  95.1665688  51.5642262  68.0051565  95.6270981
 107.0751399  11.4930857  93.3774185 107.7271575  12.1798171  93.5170841
 106.2437695  11.8984736  93.6238289  76.7581386   6.4925230  73.4944820
  77.6872248   6.7012824  73.5917091  76.4477676   7.0918120  72.8156853
  68.6185408 106.9099903  89.7162247  68.5352421 106.1453629  90.2859974
  69.4937944 107.2512627  89.8997974  21.7847109 102.5865459  88.9829922
  21.3996172 101.7609119  89.2767048  22.6460838 102.6107216  89.3997478
  35.1798613  28.8304853   0.6946139  35.2634461  28.8116121   1.6479640
  34.3397934  28.4064340   0.5193953  78.0102396 102.4999619  87.4826336
  77.6799059 102.1091270  88.2915688  78.1758165 103.4151459  87.7090073
  62.6005793  96.4252472  84.8765278  62.2213840  96.7208862  85.7042027
  61.8445301  96.2288094  84.3233204  40.4892046  27.5890207   9.0237288
  40.4764397  26.6417932   8.8865237  41.3163550  27.7543687   9.4761805
  57.1667624  84.7595882  89.0756321  57.1645355  85.7159328  89.1160011
  56.6494608  84.4866657  89.8333549  10.5551035  15.0850915  17.7474551
   9.6807701  14.8409986  17.4438242  10.6153566  14.7136783  18.6276011
  40.4044628  89.4567966  92.2158051  40.5749226  90.3915310  92.0998669
  40.2286148  89.1339779  91.3320065  52.8887224  87.5886917  73.5495520
  52.9027987  88.4238529  73.0820656  52.0167065  87.2330284  73.3783054
  51.9828814 105.9522877   6.8484931  52.7700442 105.4126941   6.7747073
  51.3169307 105.3583155   7.1948199  44.4217379  27.1353578  25.2329115
  45.0489409  26.9407701  24.5365004  43.9830095  26.3011979  25.4000620
 113.1331003  31.7426061   9.1374640 113.4162224  31.7342138  10.0517993
 113.9328659  31.9152116   8.6406664  17.2183020  15.0739002   0.6612639
  16.9409020  14.2174196   0.9864096  17.8239281  14.8744058  -0.0526376
  66.8164587  93.8248444  68.6599112  67.1559715  94.6348572  69.0405035
  66.1095333  93.5613155  69.2490149  58.7110662  73.6223841  90.9116173
  59.1535521  74.4663715  91.0017586  58.2454777  73.6839294  90.0775433
  58.6934645  41.6862249   2.7964262  58.6645395  42.2083425   3.5981707
  57.9659350  41.0705518   2.8851752 109.4142884  18.8283385  79.1614151
 109.5117015  19.2324580  80.0236416 110.2735156  18.9283217  78.7515831
  71.2490129  90.1685238  75.6504250  71.0090590  90.9570789  75.1637745
  72.2036791  90.1317787  75.5912733 102.4652398  31.0955667   1.5186648
 102.1215856  30.5391740   0.8196883 101.8631590  31.8390035   1.5508894
  79.3273324   9.3631209  94.8964977  79.8556107  10.1337946  95.1043701
  78.5950774   9.4016207  95.5117702   6.2002308  18.8880109   5.0925593
   7.0777352  18.5926198   4.8497252   6.3502867  19.6506404   5.6512217
   9.5889247  18.1034602  68.0959749   9.0392650  17.3779238  68.3921051
  10.0606216  18.3824194  68.8807774  48.1802702  82.2340870  77.2591448
  47.4165916  81.7677689  76.9191742  47.8652954  82.6605034  78.0561304
  22.9089911  25.6305742   6.0155158  22.8772385  24.7958802   5.5480628
  22.1942980  26.1436223   5.6383852  67.9703665  87.2334385  80.4629803
  67.4662304  87.4974728  81.2326336  67.3980856  86.6214180  80.0002098
  68.2080698  92.1024799  66.8579817  67.8086138  92.8519630  67.2995138
  67.9140902  91.3433075  67.3614359  47.7127726  20.0729083  12.4105315
  47.9374487  20.8166122  11.8513731  48.2342131  20.2026891  13.2026724
  69.8831129  98.5062122  44.2683983  69.0090132  98.5607719  44.6546698
  70.4635334  98.3416939  45.0115538  57.5105762  92.2951221  91.6148281
  57.0540571  91.5348339  91.2545681  56.8136311  92.9192257  91.8172836
 108.9634627  20.4583586  88.9326572 108.5467690  21.1429537  89.4560242
 108.2458800  20.0683249  88.4334755  38.6807895  77.0789766  83.9328766
  38.4895992  77.9923344  84.1460800  38.7566853  76.6454411  84.7828960
  71.1805296  85.3226280  91.1753178  71.8180752  85.0501347  90.5153847
  71.2257481  84.6424198  91.8472576  60.3909857  47.9589032  22.3443560
  60.5156214  47.9492616  21.3953547  59.5827181  48.4548234  22.4747424
  95.2771378  89.3098164  74.5345259  95.5311108  90.0277424  73.9546108
  95.6827259  88.5341167  74.1471863  56.4802837  50.9201050  78.9893532
  56.2346220  50.6093025  79.8607206  56.0728979  50.2959490  78.3887720
  90.7047272  86.9108009  83.9687824  91.1300373  86.2588882  84.5258713
  90.4440308  87.6073360  84.5713615 103.8975620  82.5931740  87.0113659
 103.9524174  81.8175793  87.5696468 103.1502438  82.4231529  86.4379311
   7.5456364  37.6420259  14.5761542   7.8898174  38.3587598  14.0431838
   8.2754690  37.0272111  14.6508173 108.2281006  54.3082189   7.6464800
 107.3015774  54.0787076   7.7179865 108.6898482  53.5624742   8.0297427
  86.5008849  24.3748320  85.4796505  86.8318767  25.2084101  85.8140659
  87.1320504  23.7250842  85.7889748  45.0764907   1.8757285  71.2524128
  45.0172580   1.8763579  70.2970457  45.3777087   0.9943713  71.4731264
  52.6585150  77.7903509  81.2059784  53.2150555  77.3371220  81.8392849
  52.7687836  78.7187099  81.4114571  56.4693213  83.0998230  81.0169697
  57.3510027  82.7407932  80.9171581  56.0116577  82.8364468  80.2185917
  36.7695093 106.5323067  73.8802481  37.4107933 105.8557510  73.6628532
  37.0875001 107.3163986  73.4326839  59.5629263  72.0096016  86.4675236
  60.1944923  72.6098633  86.0712337  59.7791433  72.0157671  87.3999691
  63.0413580  87.6636219  81.7026043  62.3848104  87.5733852  82.3932838
  62.5785017  88.1007099  80.9877968  29.6590073  57.7378701  29.6292262
  30.3500445  57.2627210  30.0906710  29.8624499  57.6156854  28.7019114
  57.3447084  82.3831463  74.5405912  56.5186548  82.7469158  74.2219496
  57.9320955  82.4257755  73.7860107  20.7910407  12.9390753  74.0306759
  20.4006255  13.6719645  74.5067930  20.4589618  13.0296076  73.1375027
  49.9413157 100.0246429  95.0066376  49.6184349 100.8090305  95.4501534
  49.7648382 100.1839828  94.0794373  24.6721298  41.0333013  12.6331763
  25.4972775  41.5109586  12.5482611  24.0505678  41.5329503  12.1038012
  62.5504494  85.6085682  87.8823662  63.0685329  86.3032722  88.2888222
  63.0465174  84.8081493  88.0540657  38.5090017  60.0327349  70.3652430
  39.4266796  59.8793793  70.5901384  38.3398366  59.4406796  69.6323824
  73.5537910 107.9479313  92.9524899  72.6726103 108.3001709  92.8272533
  73.9290953 107.9230022  92.0722866  30.9448082  44.2843866   6.8878321
  31.8154175  44.2114019   7.2789053  30.5588562  43.4154844   6.9986491
  25.8172965  77.3052168  93.7738419  26.3921046  77.2906303  93.0085850
  26.1013556  78.0714989  94.2721939  82.0900440 100.1110840  54.6745491
  82.2390652  99.3363380  55.2165842  81.2767410  99.9228954  54.2061949
  31.4788229  48.9163160  21.1070303  31.4740736  49.6289872  21.7460207
  31.9408877  48.2029485  21.5473036  86.7015648 104.8616123  76.8467236
  85.9617043 104.8910904  77.4533319  86.5879631 104.0392780  76.3701916
  37.5365829  85.7647419  76.5141344  37.9747105  85.8106709  75.6643295
  38.2497883  85.7789803  77.1523905 102.2147715  82.9667520   2.0862631
 102.6926887  82.1904325   2.3780779 102.3273528  83.5983896   2.7966074
  11.2354911  28.5617388  68.7429428  10.6398071  28.8558138  68.0538034
  12.0647395  28.4041346  68.2915735  50.4290199  69.6929359  78.6117411
  50.9444380  70.4589653  78.8642883  50.8043242  68.9736605  79.1197014
  25.9748394  82.6993608   5.2972559  25.5011303  82.7107190   6.1289458
  25.2961428  82.8212117   4.6333651  87.2913647  89.0331268  83.0959225
  87.2760391  89.2349720  84.0314770  87.3642254  89.8862457  82.6679993
  43.1171370  70.3143549  83.6243057  42.3092270  70.3025198  84.1375065
  43.1508541  69.4517469  83.2107735   1.6577161  24.9382056  81.4881039
   2.2533668  25.4044093  80.9015179   1.8539441  25.2888430  82.3568821
  16.1424572  41.0809755   7.2038893  16.5078909  40.5914735   7.9408316
  16.6681511  40.8091687   6.4515643  62.5505018  82.7281380  81.3606071
  63.3364105  83.2604694  81.2373161  61.9667959  82.9947376  80.6503677
 108.6216945 109.6709977  19.3774561 108.4547728 109.2427312  18.5378413
 108.0572242 110.4439984  19.3684344  39.4211180  32.4779176  14.3825964
  40.0053103  32.7789544  15.0785307  39.7009642  32.9650068  13.6075644
 109.3484038   2.0382632  62.0691156 109.9996442   1.4870585  62.5030422
 109.8338813   2.4785841  61.3714981  67.8969431  81.3774300  80.7670975
  68.2982588  80.9325314  80.0206184  67.0890903  80.8905602  80.9300804
  34.8656297  63.7444544  88.1042385  34.5210814  63.5986614  87.2231865
  34.1182399  63.5907030  88.6821747  94.7727489  87.4672794  89.9182320
  95.2905369  88.2208347  89.6348572  95.2201653  87.1507168  90.7029819
  32.1433622  55.4523229  19.1491751  32.2915012  56.1605310  19.7758536
  31.8724997  55.8963250  18.3455996  41.8298578  99.1882420  47.0295763
  41.7218208  99.7809410  47.7733898  40.9380960  99.0229797  46.7235041
 101.2047452   5.2958239  68.8556099 101.5906543   5.6508959  69.6563816
 100.2644462   5.4434241  68.9570141  68.2693905   0.6151713  72.2217464
  68.9203614   0.2274264  72.8066540  68.0605620  -0.0820123  71.6000175
  86.2594289   1.6695536  64.0068054  85.7247800   1.3922537  64.7507763
  86.9398755   0.9998549  63.9380312  83.5313720  20.7560194  83.9307594
  83.0927915  19.9801863  83.5815430  83.4227771  21.4195670  83.2494831
  33.7881214   6.7235088  24.3489222  33.6402018   6.6873168  25.2939372
  33.7185938   5.8134221  24.0605883  37.2254545  56.5513276   0.9941344
  36.6042263  55.8327245   1.1121325  37.6815874  56.6138315   1.8333392
  42.5349712  90.8350372  86.9736862  42.2174358  91.7334938  86.8832493
  43.4662533  90.8873653  86.7587376  65.2478981  93.0510235  82.1858692
  64.6257019  93.7702274  82.0770645  65.2649784  92.6179218  81.3324261
  12.5895084   9.4156302  73.9239216  11.9496501   9.2605055  74.6187210
  12.3186744   8.8329447  73.2144451  71.7590332  93.5865307  81.8408203
  71.7599869  93.9321709  82.7334309  72.4724340  94.0511417  81.4033031
 110.5396336   2.0533503  89.6495056 111.0592574   2.6232089  90.2165031
 111.0886735   1.2801970  89.5190525  20.7847721  21.0879325  12.3533778
  20.5072767  20.4949807  11.6550688  21.4634545  21.6302490  11.9514899
  14.2363293  38.8038682   9.2564253  14.1971428  38.0483770   9.8428778
  14.1593392  39.5614957   9.8363451  86.5054417  66.1457443  89.1670322
  86.6891003  66.7574167  89.8800278  87.3098946  65.6349754  89.0764618
  36.4132626  18.0702113   3.5021262  36.1931784  17.1456289   3.3883528
  36.1750490  18.2632922   4.4088797  57.7442741 101.8472195  85.5961514
  57.6712465 100.8933067  85.6268215  56.9510221 102.1622181  86.0294628
  72.7629280  83.9714432  89.1468048  71.8688202  83.7033463  88.9348698
  73.2774544  83.7158966  88.3811760  63.8931448  14.2148828  27.6804690
  63.7816984  14.5918178  26.8076949  63.2482702  14.6699571  28.2220225
  40.6363392  67.9426765  81.0328484  40.3883457  67.5377226  81.8639565
  40.1343679  68.7571859  81.0040855  62.4752850   1.4589156  86.1901665
  62.4863714   2.3456706  86.5504265  62.8661460   1.5485991  85.3210163
  13.7995321  46.7734384  13.0020766  14.4945700  46.9067334  12.3575739
  13.3597548  45.9721708  12.7178244  20.5145437  47.2212743   4.2670969
  20.8167107  46.6795205   3.5381083  20.7851250  46.7417573   5.0500922
  75.5205107  92.8786278  80.0557137  75.1127291  92.0495701  79.8054934
  74.8139715  93.5214233  79.9936295  24.7364742  14.1769695  12.2195391
  25.1032860  15.0491905  12.0749526  24.4065172  14.2017698  13.1177287
  79.3289137  66.6551590  89.9417686  80.0347424  66.5928888  89.2982197
  78.9012098  67.4893236  89.7482109  44.0576250   9.2736148  14.3831114
  44.7974665   9.8710679  14.2739920  44.2325861   8.5609674  13.7684874
 115.8793581  12.3681878  13.2610850 116.5131152  12.5856113  13.9446883
 116.1441315  12.9005384  12.5109248  45.1093180  31.3668203   0.3061442
  44.3860132  31.9627713   0.5008273  45.5201132  31.2033700   1.1551241
  10.9011395  39.3106126   7.4924521  11.7970163  39.2266511   7.1659712
  10.7113583  38.4618329   7.8921847  11.0883600   5.9222459  15.0243048
  11.5553410   6.3540935  14.3090014  11.1744482   4.9875593  14.8367266
  73.9820862 107.9730701  71.5276957  74.5483208 107.2441292  71.2741995
  73.6322689 107.7188778  72.3816586  91.5188217  88.9408398  79.0066767
  91.7832279  88.1897831  79.5379353  90.7349300  88.6434364  78.5448265
  19.0319712  51.0377931  30.3529696  19.4763882  50.6026887  29.6253638
  19.6562845  51.6976022  30.6548266  89.3362206  96.1294328  15.7375006
  88.7793225  96.9041978  15.6610827  89.8411435  96.1162673  14.9244074
  58.9292891  62.6614713   4.2915205  59.2971499  63.2124280   4.9824385
  59.6433050  62.0714807   4.0500216 102.2228050  92.1375370  78.2154655
 101.4997292  92.6499557  77.8537703 101.8400955  91.2795544  78.3988619
  68.7262297 108.6814690  92.8873634  68.4248590 107.7729702  92.8814411
  69.6805620 108.6170101  92.9237556  34.9563885  89.4538689  77.6272249
  35.1564813  90.0470924  76.9031525  34.4824243  88.7292290  77.2191858
  17.2314198  26.2818765   1.5619139  17.6647360  25.7556199   2.2338633
  17.3998625  25.8127832   0.7447199  33.9918549  39.9748277  33.1334834
  34.4218952  39.5235395  32.4070887  33.2010061  40.3510427  32.7471594
  64.4852448 101.0894299  94.9601269  63.7531614 101.6957951  95.0723839
  64.1956186 100.2827644  95.3863144  59.0660954  88.8152122  79.6472692
  58.7097740  89.4537735  79.0296030  59.7436810  88.3551025  79.1518831
  28.8783152  23.5260200  20.5755763  28.0690462  23.0395650  20.7326560
  28.6489708  24.4374465  20.7570605  24.0419459  80.4839230  87.0423031
  23.4910774  80.6685829  86.2815857  24.6321654  79.7902489  86.7478848
  35.3389008  33.5782289   4.9520163  36.1453278  33.9735460   4.6209101
  35.4373629  32.6439142   4.7687296  92.7904320  97.7260876  65.4531384
  92.4625683  98.0293655  64.6065235  92.3053074  96.9185066  65.6225157
  81.7798996  81.1316395  89.9396229  82.1677113  80.3523922  90.3378582
  82.2370243  81.8643284  90.3524590  88.7752438  75.7133865  79.3066311
  87.9548264  75.3645706  78.9581108  88.9715385  75.1563311  80.0598812
  51.4196396  84.9245834  87.9859447  51.7036057  85.1054573  88.8819790
  52.2335863  84.8175430  87.4937439  43.2275105  74.1123581  70.4461193
  42.7258682  74.3852472  71.2143087  43.2198811  74.8774195  69.8709154
  28.6521990  53.2210206  10.3018431  27.7689249  52.8601503  10.3782324
  28.6006958  54.0737771  10.7335715  18.7083161  77.5864935  78.4757662
  18.2862425  76.7537165  78.2646608  19.3786204  77.6931572  77.8008270
 101.1079788 102.8541470  73.0749083 101.8995571 103.1773186  73.5052538
 101.3644123 102.0094585  72.7048063  63.6084318  69.3148947  94.3863010
  63.3337545  70.2312565  94.4189739  64.5621014  69.3478870  94.4615364
   7.4469406  16.7839336   6.9099860   6.6507847  17.0576000   6.4545016
   7.2303087  16.8622875   7.8390555  34.6689510  61.3881779  77.7858496
  33.8302040  61.6477585  78.1671000  34.4556189  60.6455994  77.2207832
  37.9192638  75.5141544  78.0877399  37.1083903  75.6161880  78.5860395
  38.6140633  75.6891584  78.7224531  54.8816204  83.2401657  87.8676319
  54.4810247  83.6156940  87.0835876  55.5121136  83.9008617  88.1543446
  89.5714951  67.4691629  69.6083164  88.7602901  67.6720190  69.1424417
  90.1018143  66.9927454  68.9695549  74.8527241  55.2007246  81.7404938
  74.8696756  56.0674429  82.1463776  73.9233017  55.0204611  81.5993881
  62.9432917  90.0068569  85.4495239  62.2443533  89.8671436  86.0884285
  62.7830362  89.3501949  84.7717857  75.1863718  90.8884621  69.8125601
  74.3537998  91.0765648  69.3793488  75.2769423  89.9373150  69.7547102
  38.3313870  72.4452019  78.1436396  37.7555513  72.6237583  78.8871241
  38.8419819  73.2479191  78.0379581  63.3829784  95.3518200  81.4058590
  63.0751228  96.2577248  81.4339161  62.6990223  94.8810577  80.9296036
  78.6805630  58.5541010  83.7750626  79.2156076  59.3135357  83.5443592
  77.8028297  58.7762547  83.4644794  31.3061602  24.0080737   5.6329588
  30.5916102  23.8901281   6.2588458  31.0674793  24.7945880   5.1423888
  19.6387894  60.7770585   2.3398261  19.5399840  61.4232492   3.0390410
  20.5777723  60.5929040   2.3148112  24.0740091  47.1741914   7.1112589
  23.7353880  46.2789296   7.1200518  25.0243885  47.0703363   7.0640139
  90.6548023  93.4812164  53.7073898  91.0492992  92.7772808  53.1925392
  89.8100090  93.6411572  53.2867050   6.0999454  25.4552210  52.2579575
   5.5504859  25.7037295  53.0013084   6.5242542  26.2705267  51.9906187
  10.0152380  78.4625005   2.4954276  10.2424843  77.8697824   1.7789988
   9.0814573  78.6357259   2.3759322 111.8097752   2.8788985  86.3861847
 111.8537539   2.4602164  85.5265331 112.7242917   2.9828871  86.6490173
 101.6763896  11.1464823  78.8069344 101.6708583  11.9840754  78.3436441
 102.3388213  10.6258620  78.3526468  11.8954147  13.3907164  74.7316647
  11.1596454  13.4816779  75.3371429  12.2807754  12.5418509  74.9488354
  95.1962471  79.3546724  80.0321484  94.9716949  79.4020891  80.9614277
  96.0437584  78.9101601  80.0129128   2.7499927  24.6944083  87.6883984
   2.8105796  24.2414988  88.5294914   2.7546466  25.6241168  87.9161263
  86.7282581  83.3656979  90.5624008  87.5107765  82.8775883  90.3061962
  87.0349503  84.2645931  90.6814194  98.3528423  93.0255318  70.7263517
  99.2328262  93.3504391  70.5358601  98.4469414  92.5484371  71.5508318
  21.1715282   7.4913443  86.5657902  20.5977405   8.1311167  86.1442566
  20.8272136   6.6420687  86.2893486  63.2604963  33.3293199   4.1875605
  62.9190428  33.2284879   5.0760893  62.7597124  32.7021550   3.6659197
  82.5537491 101.3551521  72.1230698  81.9545269 100.6091785  72.0966387
  83.2216835 101.1033440  72.7607870  85.1355839  94.0124893  83.4434891
  84.2890930  94.4000053  83.6660004  85.0440121  93.7461376  82.5286674
 101.9900227 103.2169151  63.0874491 102.7084064 103.8380241  62.9675484
 101.3838291 103.6631012  63.6787844  85.7857609  93.3182812  62.4461746
  85.7198429  94.2200279  62.1319532  85.6532764  93.3839035  63.3918905
 107.8277272   9.4430102  88.7572002 107.4468869   9.4938315  89.6339035
 108.1127805   8.5331954  88.6722660  69.1188097  94.3358040  80.5893040
  69.7966242  93.6637783  80.6613064  69.3596315  94.9901104  81.2451458
  98.9790630 108.8041782  68.7788582  98.1701469 108.3370018  68.5699606
  99.4973087 108.7567806  67.9754925   7.7737678   1.7914999  67.6746559
   8.2907832   0.9940279  67.7885103   7.6035846   2.0959128  68.5660601
  67.2474909 106.4637089  71.7594576  66.7632389 107.1643734  71.3226461
  68.1478071 106.7858505  71.8029356  75.2272398  18.6423063   3.1021170
  74.6494848  18.3836602   3.8201289  75.7421286  17.8575181   2.9144244
  77.2681475  91.8685055  60.4701519  77.7157450  91.3580322  61.1449146
  76.3600206  91.9162560  60.7689047 107.9804248   4.8993147  79.8087788
 108.8640517   5.2624072  79.7487688 108.0850810   4.0979708  80.3217411
  78.4184027  82.6089954  85.5503082  78.9395046  81.8943596  85.1842880
  78.9148569  83.3997726  85.3395176  23.8917506   1.9864405  82.5828552
  24.8194278   1.7527617  82.5506210  23.5310329   1.6485823  81.7631149
  10.4736073  42.5003194  22.5049643  10.9115011  43.0216264  21.8321280
  11.1696322  42.2703409  23.1205039  45.0010283  33.9710569  13.7093024
  45.1380617  34.7198152  14.2896609  45.2840979  33.2147455  14.2232089
  81.2453079  85.9147072  65.4668236  80.7452202  85.0988770  65.4903984
  80.6011391  86.5839005  65.2356052  88.7501115  19.7642935  77.6128531
  88.3755797  19.9226416  76.7463207  88.4901828  20.5272234  78.1291914
  54.4260294  86.0811662   2.7387194  54.9838335  85.7819604   3.4567503
  53.6452849  86.4279603   3.1704669  69.5717669  74.5235777  90.4595852
  70.5147648  74.6165848  90.5950069  69.4028473  73.5896921  90.5842876
 106.8415088   1.9734038  85.3597164 105.9647721   1.6550292  85.1447773
 106.7291230   2.4462641  86.1843395   7.5608314   9.5622576  53.1851053
   7.3871482   9.3710841  52.2634125   8.4143604   9.9955214  53.1831360
  94.9800700  11.8590296  79.7325182  94.0322179  11.8777979  79.8646116
  95.3452414  11.8582953  80.6173229  20.9381706  48.2902288  22.6240115
  21.0200388  48.5083532  23.5524230  20.8960325  49.1380071  22.1816115
   1.9742150  76.1915731  27.6575828   2.6232666  75.5634069  27.3407698
   2.0899433  76.1969137  28.6077452  58.7672693  68.5470819   0.4168467
  58.9878637  69.1688298   1.1103777  58.4996397  67.7544545   0.8819823
 110.6271553  78.3632803  73.3780050 110.2995682  78.6676455  74.2243385
 109.8440266  78.2800722  72.8339243  48.4439070  52.7536535  12.8700976
  47.7448828  52.1066617  12.9649882  48.1211073  53.3588361  12.2024302
  23.7975580  62.7810716  18.6228327  23.0724318  62.9708242  18.0275111
  23.6817915  61.8597745  18.8552908   5.9410900  90.1484871  64.7400236
   6.5280861  90.4684925  64.0549850   5.2145428  90.7716560  64.7432327
 102.0832986  18.3461989  64.3240976 102.5213736  19.1316069  64.6519089
 102.7897185  17.7125491  64.1988754  81.0958481 106.2632561  54.8258686
  81.6806412 106.1931419  54.0713263  80.7636452 105.3748512  54.9547863
  25.5405296   7.9170645  90.3410530  25.3069461   7.1699084  89.7902012
  25.3130019   8.6833037  89.8144245  80.2338600  89.0860081  80.0310707
  80.4213810  88.1642151  79.8539829  80.9329033  89.3631458  80.6233215
  80.1689595  16.4254893  93.1501865  79.7980994  16.2892378  92.2783279
  79.4460553  16.2401618  93.7495995  59.5967436  90.3806496  83.1774616
  60.1930237  89.7290516  82.8085423  58.8371754  89.8743534  83.4654713
  47.4306090  48.7842035   2.2351126  48.0625994  48.2624864   1.7405085
  47.2875960  48.2869386   3.0404143  32.4681694  48.1060361   6.3555483
  31.8543608  48.6434888   6.8561511  32.7472098  48.6700105   5.6342272
  62.4238110  83.3271313  92.0340443  62.1018267  82.8904724  91.2454414
  62.7184248  84.1853523  91.7292595  69.9331474 104.6312046  71.3088083
  70.6864977 104.0873337  71.0788059  69.1765165 104.0593338  71.1795568
  79.9159002  86.8632221  93.3169079  80.3416348  86.3192844  92.6542568
  78.9813757  86.7886639  93.1236839  72.3336315  88.3205986  83.3239937
  73.0011797  87.6415348  83.4213543  72.4653864  88.8957977  84.0776634
  34.2392826  92.0178795  78.9290380  34.7498560  91.2218189  79.0767813
  33.4312630  91.7112637  78.5175514  44.3542750  49.1143750  21.9924979
  43.6501581  48.5073232  22.2203974  45.0535471  48.9145994  22.6148753
  67.7157307  86.2717915  75.7570553  68.2427454  86.8415642  75.1968288
  66.9499302  86.7998028  75.9828806  84.0316677  90.2037907  63.1657600
  84.7235584  90.7839203  62.8480101  83.3419228  90.2694988  62.5053310
  95.0809956  77.4795008  62.6255178  94.5750713  78.2841539  62.7386618
  94.4212627  76.7892838  62.5578737  80.8044052  86.2369728  69.3327570
  80.5449390  86.8749714  68.6680222  80.6550884  86.6846085  70.1655579
  14.8154510   8.2759703  67.4047995  15.6030334   7.9943503  67.8702354
  14.6361697   9.1522158  67.7457809  20.9894336   1.1838854  70.1271152
  21.0208381   0.9059466  71.0425329  20.9479774   0.3669203  69.6300459
  52.9514599  96.1538506  72.9076862  53.7977266  96.5417767  72.6850462
  53.0540609  95.2236462  72.7066040  70.0905275  73.7103510  87.7140141
  69.9325132  74.2019844  88.5199642  69.5184851  72.9460478  87.7836227
  73.7799978  87.9609966  86.4440727  73.9550829  88.1842232  87.3582649
  74.2539310  88.6231041  85.9408569  60.3402472  83.9322376  83.9537716
  61.0745001  83.3262920  83.8540649  60.5150127  84.6268463  83.3187866
  20.7611735  68.9064264  -0.2025457  20.4867012  69.8071622  -0.3745218
  21.2992174  68.9665746   0.5868392  26.3961393  61.3516187  28.6644129
  26.8342430  61.4368104  29.5111994  26.2900431  60.4080343  28.5435061
   6.8864024  24.7164095  60.2711010   7.4877132  24.0442503  60.5918217
   6.1369384  24.6702708  60.8647394  35.9860403  49.4263410  21.4320807
  35.4801590  50.0141858  20.8710627  35.6551487  48.5526704  21.2236456
 112.6000136   1.3833655  63.2606936 112.6306409   1.1696948  64.1932392
 112.9824275   0.6202830  62.8274488  51.7150480  20.1119136   4.1288237
  52.1047766  19.6211242   3.4053187  50.8831961  20.4324006   3.7802081
  10.6303085   1.5987910  77.8477478   9.8983253   1.1502112  78.2710743
  11.0709727   2.0626582  78.5596943  97.9349518 103.8235283  57.0233345
  97.4795914 104.6647453  57.0583391  97.7839088 103.4333992  57.8842783
  59.8433287  35.4891156   8.1120829  59.2116339  35.0320005   8.6672740
  60.6242640  35.5754899   8.6588053  71.4520449  17.3959959  67.1695328
  71.4351267  16.5237368  66.7756939  71.5095419  17.2326601  68.1109381
  96.4180946 103.4636307  40.2586651  96.8535042 103.8464737  41.0202932
  96.6312885 104.0562820  39.5378685  43.4282780  91.0364151  79.8993874
  42.7369642  90.7506466  79.3021822  43.0070829  91.6893578  80.4583931
  99.7122955  99.1812992  52.3563957 100.6212711  99.1844940  52.6563501
  99.7023201  98.5593033  51.6288996  66.5122700  92.6638412  79.6857691
  67.2962856  92.4092579  79.1992044  66.8266582  93.2945538  80.3335285
   7.7679504   6.0187376  67.3025846   7.0800174   6.4605082  66.8047714
   7.2965492   5.5021990  67.9561853  27.3668606  54.3580484  21.4957289
  28.0961496  54.9675512  21.3822703  27.2212774  54.3321370  22.4414401
  44.7404558  62.5232934  11.9145541  44.3651564  63.0643129  12.6093153
  44.0267260  61.9422578  11.6514830  70.8481216  92.6849174  67.2494936
  69.9479532  92.4519348  67.0222282  70.7657337  93.4925270  67.7566528
 108.2963294   9.7282351  79.2552948 107.9586619   8.9078749  79.6147633
 108.8065881  10.1105155  79.9692440 102.0526189  16.8463362  67.7871180
 102.6495904  16.9880618  68.5218096 101.1966914  16.7167223  68.1955528
  16.1676819  43.9557504   3.3307318  15.5142147  43.4003305   3.7558512
  15.8532650  44.8483609   3.4743361  47.4559593  67.1874857  89.6468639
  47.0228672  66.6997623  90.3474236  48.3891487  67.1183109  89.8483562
  13.7485946  14.3757571  89.6723557  13.6889137  15.3281439  89.5973301
  12.8448451  14.0886916  89.8029423  17.0802749   8.8400877  82.3814583
  16.7238868   8.6383189  83.2466221  18.0012763   8.5851992  82.4364090
  82.2595978 100.2307224  77.3262072  82.3387623  99.2791557  77.3931789
  82.6916409 100.5629730  78.1130886  70.9084780  38.3474302   1.4389090
  70.3352339  39.1024541   1.5714316  70.3267939  37.5902700   1.5065817
   0.6920732  38.9619196  75.6983232   0.5389560  39.0279234  76.6408873
   0.7345069  38.0209673  75.5278778  65.5147266  79.8404884  80.1295948
  65.4894924  80.5274868  79.4635391  64.5946169  79.6532774  80.3155613
   5.0742782  13.4293211  66.6058540   5.6245483  14.2070998  66.6980410
   4.3918765  13.5388602  67.2680950  39.8908217  67.0444822   8.8226370
  40.4305393  67.5356435   9.4420771  40.4705221  66.3586759   8.4912161
  59.8573637 109.6228504  67.3026848  59.5536041 110.2460194  66.6426659
  60.7088423 109.3279934  66.9797659  23.1063730  76.8310212   5.0022273
  23.0850489  76.0753679   4.4150595  23.1223900  76.4513158   5.8807520
  90.6108172  64.3877649   2.6746993  91.4735872  64.7996187   2.6275115
  90.7962591  63.4536695   2.7711920  62.3183424   7.9169893  17.2263960
  62.7983553   8.4890460  17.8251986  62.1229345   8.4711408  16.4707713
   8.8744605   2.6193083  53.6517620   9.6723808   3.1335581  53.5288715
   8.3921970   2.7258433  52.8318214 109.5685023   3.7897242  77.2304916
 109.6187848   4.6501578  77.6468372 110.4363364   3.6571444  76.8490171
 109.7603005   5.6602801  72.6193523 109.3175429   6.2974871  72.0588493
 109.2960280   5.7127417  73.4547758  63.2967472  60.3968143  89.0424633
  62.7756023  60.2806807  89.8369217  62.7158689  60.1226997  88.3327675
  77.5144148  96.5912247  72.1035385  78.0658579  95.8132648  72.0203447
  76.9454861  96.5649128  71.3342142 109.2868805  79.7400713  76.1592007
 109.3808556  80.2834129  76.9416189 109.1515636  78.8548136  76.4971972
  64.0287287  57.9386949   2.7503161  64.1212732  58.2727002   1.8580679
  64.3572504  57.0407724   2.7052073  19.0036357  25.0851286  95.7069111
  18.4253467  24.6476878  95.0820446  19.8788799  24.9881209  95.3317070
 111.6528768   2.1204031  83.6854935 110.8999843   1.5396918  83.7957573
 111.4091128   2.6931609  82.9583263  70.5520041  50.1676225  13.8500742
  71.4836676  50.0182485  13.6890654  70.2403624  49.3470907  14.2319445
  77.8058386  94.4369507  53.4118128  77.1441936  94.8961449  53.9291048
  78.1672382  95.1091862  52.8341246  53.6391146  40.0448751   6.2589125
  53.2774622  39.8004007   7.1107821  54.5724566  39.8441648   6.3284258
   8.8080466  38.1884516  88.2880974   9.3123306  37.8018607  87.5722218
   8.6729396  37.4671782  88.9026928  76.7329025 104.3096542  40.5372238
  75.8749008 103.8858318  40.5163527  76.5887070 105.1626587  40.1275587
  49.2725325  86.1994553  85.9092236  50.0196886  85.8471394  86.3928223
  49.5816803  87.0391464  85.5692482  54.0393049  41.5435838  14.2872767
  53.7393839  41.1327218  15.0981192  53.5293181  42.3512220  14.2251353
  43.8418753  66.6756868   6.4632086  44.5316679  66.8638181   7.0996336
  43.1442244  66.2710428   6.9787459  12.9961742   2.3575152  88.2361507
  12.7540553   2.4835909  89.1536045  13.6565269   3.0297793  88.0681515
  79.0443707  68.2886076  75.2664757  78.4965086  68.0264521  74.5266485
  78.6118078  69.0651846  75.6215096  65.6647772  14.5525492  91.6738510
  65.7674569  14.3794573  90.7380486  65.3510684  13.7245787  92.0375633
 100.7490701   9.6324004  58.2837439  99.9438495   9.9947299  57.9141855
 100.8180589   8.7592257  57.8976965  44.2176230  39.7804593   3.8808493
  44.1325361  39.2081785   3.1183009  44.8089678  40.4761171   3.5934405
  29.2940790  12.5627183  15.0204234  30.1395971  12.2942733  15.3799586
  28.7077791  11.8317460  15.2157645  46.9766760  99.0553284  82.1104717
  46.0409546  99.0281200  82.3102760  47.0158195  99.2292595  81.1700249
  72.8912623  55.3301858   3.4846262  73.1702406  54.4195031   3.5798602
  73.0203802  55.7122659   4.3527178  64.6021414 104.2645264  48.2404947
  64.8955536 104.3793392  47.3366356  65.0516939 104.9549389  48.7277842
  89.9302483  80.7538128  74.9428129  90.6452370  81.3617039  74.7544146
  89.5270348  80.5868816  74.0908813  58.4626055  99.9977112  77.7067280
  57.5323677 100.2057934  77.7938461  58.8345766 100.1993656  78.5653353
  15.8457626  16.5120924  79.3032551  16.6612972  16.9994677  79.1865730
  15.6322730  16.1893309  78.4277678   8.3117641  19.7771014  79.3192863
   8.9311279  19.5886076  78.6142397   7.9377807  18.9250411  79.5437193
  69.0055926  50.0419568   6.1906199  69.8188288  49.6885061   6.5511088
  68.8938696  49.5839071   5.3575854 114.7769946  28.8124217  70.7293510
 114.8699159  29.1457499  71.6218138 114.4032210  27.9379405  70.8379936
 109.8877239 101.0600376  75.5310678 108.9495850 101.0663414  75.7210159
 110.0945377 100.1383877  75.3760815  34.6704292 104.9077129  47.4329519
  35.0488949 105.6813145  47.8507233  34.0742040 104.5482826  48.0898857
  90.7096195  91.6532993  68.7927628  91.0600281  90.7782078  68.9590645
  90.9572506  91.8424416  67.8877020  23.4299166  36.6390561   5.0206236
  23.3838112  36.8871545   5.9439616  22.5224764  36.6729688   4.7178988
  78.3710665  45.3383387  55.0246143  77.9441518  45.0216521  54.2285681
  78.1316108  46.2638415  55.0728512  44.8086435  41.0288476  14.1819720
  45.1427157  40.3484582  14.7665171  45.4982836  41.6925000  14.1680769
  77.8358650  89.1594982  65.3851986  76.9334745  88.8885403  65.5540085
  78.1066322  89.6042538  66.1883879  97.1506119  86.4739132  64.5084858
  96.4307499  86.6562939  65.1124477  97.4699879  87.3380280  64.2486048
  69.5430708 102.2662354  77.3894310  70.3286600 102.8107643  77.3388004
  68.8226318 102.8917408  77.4664783  73.6781502  88.6310959  74.9059772
  73.0872011  87.8827190  74.8226023  73.7289095  88.9957905  74.0224314
  81.5526867 106.2095547  74.3061256  81.1276722 105.4506302  73.9065981
  82.3781872 106.2999344  73.8301039  32.3492492  12.4733962  89.0782070
  31.7594016  11.8200434  89.4542980  33.1575359  11.9923724  88.9006519
 105.7095355   8.5120619  94.0037537 105.8846063   8.0580843  93.1794453
 106.5758914   8.6702193  94.3787861  39.8249800  64.7614240  14.0287261
  39.5516665  64.0967511  13.3964781  40.2025349  64.2622136  14.7529368
 110.1758784  20.2397955  81.5564251 111.0939998  20.4622496  81.7106915
 110.0161666  19.4800700  82.1163654  89.7239465  13.2269705  82.0281029
  89.2072457  13.1997813  82.8334141  90.4668826  12.6485861  82.2005749
 108.7637681  35.0949515  65.6017208 109.2799634  35.7815875  65.1794577
 107.8652543  35.4243697  65.5819321  14.3677838  73.4596490   9.8707537
  14.2481596  72.5391340   9.6371226  13.7911827  73.5926675  10.6231360
 108.3647984   6.0781134  74.9180698 107.9133243   6.4724959  75.6642962
 108.1536263   5.1462687  74.9755669  27.8906901  79.4610166  46.4816336
  27.7702601  80.2564954  47.0002322  28.0121166  79.7752904  45.5856852
  37.6203568  49.9689531  10.5754237  37.2473080  50.8501481  10.5518298
  37.0841486  49.4988870  11.2139849  18.8616431   4.0247668  83.8073444
  18.8679565   4.2812289  82.8851604  19.3956054   3.2309664  83.8388538
  33.1707907  95.6926632  49.9938488  33.8452482  95.0564003  49.7561359
  33.4528160  96.5073395  49.5779276  44.3061525  19.0097379  15.9907488
  44.1980250  18.7314367  15.0813059  44.0781004  18.2363653  16.5066103
  87.6720238 108.8686562  59.5973396  87.4509239 109.0015221  60.5191278
  87.1385765 109.5101929  59.1281986  33.2473118  39.7571039  25.3003077
  33.8186772  40.5246209  25.2742152  33.8478357  39.0118646  25.3155760
  82.5635910  86.3877201  84.4879341  81.7483330  86.6758060  84.0773392
  83.2496738  86.8570614  84.0133381 116.7902488   7.5163878  95.0678253
 116.5219611   6.5978182  95.0458813 116.8718356   7.7198828  95.9995842
  19.3958057   2.1728648  58.0183792  20.2409995   2.5116766  57.7232838
  18.8018001   2.3408450  57.2868299  57.4916155  56.6852617   1.4267210
  57.6480848  57.2530317   0.6721453  56.5388949  56.6635370   1.5166525
  91.5934753  90.5888462  94.0240288  91.0103321  90.9836292  93.3757019
  91.1257839  90.6805420  94.8541451  12.6785243   3.8785780  90.6552887
  13.2191814   3.5068358  91.3522243  13.1320346   4.6830786  90.4036236
  43.2640535  43.1211232  35.2860121  42.4821264  42.6533269  35.5792384
  43.1035978  43.2984685  34.3591742   7.1904165  43.5247945  16.1465220
   7.5419409  42.6751184  15.8805995   7.6355345  43.7207364  16.9709639
  79.4466639 101.4026642  85.2931881  79.0303183 101.9232082  85.9801579
  79.0975523 101.7603493  84.4768429 103.9719009  91.7612648  41.2288904
 103.6980152  90.8562088  41.3775158 103.2391644  92.1590996  40.7587242
 108.3166695 107.7332497  73.4223747 108.3096600 106.7931843  73.2421970
 108.9454174 107.8355026  74.1368294 105.9776974  83.1055450  74.4116783
 105.9405136  82.9572582  75.3565931 106.7728710  82.6535988  74.1294146
  30.8414442  81.1255693   9.1549735  31.4659769  81.1574983   8.4302954
  30.2433331  81.8539953   8.9879851  89.1277695  73.3913612  93.5183144
  88.6387444  72.7003574  93.0715466  89.7782993  72.9239655  94.0423203
  40.2566416  55.3887414   4.8622851  39.5892126  54.8938131   5.3374819
  41.0778410  55.1650762   5.3002791  96.1938477  94.9141884  84.2882824
  96.1294937  94.4217491  85.1065731  95.3065586  95.2380848  84.1332531
  82.9501915  83.3049870  86.4332008  82.9345226  83.0364799  85.5145645
  82.0778656  83.6654949  86.5922832  91.6615295  92.5170708  71.3193989
  91.3235188  92.5023651  70.4239845  92.5135994  92.0848751  71.2608910
  87.7910614  95.1103401  56.2577772  87.6674175  94.8126698  57.1590757
  88.7409019  95.1352310  56.1419296  87.7258968  94.1037941  84.4680023
  87.9955292  93.2426548  84.7873306  86.7694283  94.0817738  84.4983006
  42.0229227  59.0165853  -0.0463720  41.5916521  59.1455793   0.7983737
  42.6266272  58.2886552   0.1016001  34.8487282  94.3153000  65.8327818
  35.2585816  93.5344315  66.2049341  33.9100313  94.1757393  65.9576988
  88.0974102  86.1872864  79.2137384  88.7265110  86.7706108  79.6382284
  87.7034092  85.6950760  79.9339581  47.7877886  64.7452688   3.4751563
  48.5561258  65.2617406   3.2319693  47.3207552  65.2931833   4.1059641
  39.8479778  22.9302310  18.5286574  40.0287277  23.8684987  18.4719328
  40.1759369  22.5728225  17.7034716  43.4060938  44.4598054   5.9810404
  43.3701689  44.6437024   6.9197230  43.0155642  45.2313852   5.5706934
  89.5368481  96.8936062  70.7254314  88.6583328  96.5409756  70.5836391
  89.4317341  97.8409481  70.6375885  36.9826347  65.2654599  13.8897566
  37.9339630  65.3704213  13.9034323  36.8116696  64.7318696  13.1136851
  37.3237641  59.5360803   1.3304095  38.1417925  59.2141008   0.9517436
  37.2478945  59.0737199   2.1650939   6.1758769   3.7173975  72.9885101
   6.9175781   4.2597235  72.7201939   5.6309283   4.3010844  73.5162973
  82.0892334  62.9985142  67.6915741  81.1464405  63.1282568  67.5888968
  82.1841049  62.0631361  67.8712940  65.9821934   0.4900683  92.4930859
  65.2152962   0.0659026  92.8780270  66.1367816   1.2545908  93.0479145
  16.9759238  14.5703066  89.5289040  17.3087371  13.8045634  89.9969959
  16.3634074  14.9778212  90.1412678  47.0179713  11.1776675  61.8162155
  46.7633117  11.7066992  61.0602331  47.3752845  10.3746260  61.4371586
  31.0040934  66.0843705   1.7028861  30.5615742  65.7812166   2.4956660
  30.7809574  67.0133638   1.6443877  89.4804096 105.1499557  73.2361794
  90.0617790 104.5042610  72.8345394  89.8188782 105.2568054  74.1251469
 115.4573649  11.3517321  71.0984993 114.6848983  11.3668002  70.5334282
 115.4634732  10.4705943  71.4723730  25.2787936  22.4567069  69.2766047
  24.7343600  23.1917132  68.9944744  25.9004176  22.3301066  68.5598230
  90.3169078  12.9085577  85.7552910  90.4704064  13.7256373  86.2296963
  89.5837945  13.1044520  85.1718521 104.0064276  17.5195121   3.9832930
 104.5712054  17.5529193   4.7553973 103.3617080  18.2120656   4.1279940
 113.7586183  10.1553954  58.5179996 113.2904166  10.5337943  59.2621994
 113.1797904  10.3039301  57.7702522 105.9106130  22.2054900  64.4409943
 105.2777785  22.0005549  63.7526989 106.7634505  22.0388354  64.0395832
  26.7748321   9.7607554  61.2448549  26.4097465   9.9092902  60.3725719
  26.0642875   9.9895419  61.8440342  55.0827408 104.4181156  80.4516792
  55.9893847 104.3439484  80.7495594  54.6046877 104.7380924  81.2167358
   5.4155142  72.3726129   8.8507990   5.5379564  72.6163530   9.7683100
   5.6264813  71.4394330   8.8206820  77.1928310  94.0532303  78.0297947
  76.7216730  93.6165905  78.7394285  77.5358582  93.3378315  77.4942827
 113.0138874 101.7045593  75.2180481 113.3660316 101.4543533  76.0722256
 113.3698940 101.0543919  74.6124268  32.4602473  29.3289412  80.1357079
  33.0059875  29.8833216  80.6934357  32.8108752  29.4569720  79.2542887
  61.2682898  66.5005826   3.8064723  61.6391260  67.1411943   4.4133811
  60.5170710  66.1349820   4.2736296  45.4687769  47.8483629  15.9863429
  46.2924654  48.2105397  15.6598525  44.8601038  47.9386949  15.2531294
  71.6204548 102.5784492  70.4435587  72.4494839 102.3377991  70.8571100
  70.9670115 102.0334244  70.8819580 106.3174057  95.1871490  66.1155796
 107.0440292  95.1848412  65.4924917 106.2345123  96.1023521  66.3834667
  31.3653881  34.3019628  17.9409079  31.9266922  33.7768125  18.5113387
  30.9348614  34.9199819  18.5316042  99.8101634   7.3601664  72.3525858
 100.5603236   7.8838671  72.0710993  99.7340077   7.5356043  73.2904816
  94.6513480  21.1011446  68.4234571  94.4600362  22.0343340  68.5171986
  93.7921590  20.6792201  68.4245682  35.0979550  54.8605489  18.1017451
  35.4219181  53.9762925  17.9303698  34.2850620  54.7275113  18.5893206
  58.5964567  76.0474252  15.0644927  58.1517679  75.2027368  14.9938826
  59.5201094  75.8450174  14.9156909  21.3273872  14.1760005  35.6580448
  21.1107410  13.3054198  35.3242970  22.2629607  14.1309203  35.8552814
  12.4741710  12.4639071  81.2500286  13.0603088  11.7700995  80.9478569
  12.9554618  13.2740820  81.0821056  66.9894583  34.8114824   5.5738215
  67.2217257  35.5824994   5.0563101  66.6787130  34.1753434   4.9296050
 100.7701892  32.3576678  77.2521591 100.2367658  32.1967448  76.4738321
 101.5910596  31.8966044  77.0794582  14.0027679  24.7409953  82.2983074
  13.4695209  24.5775927  81.5203762  14.8181976  25.1081313  81.9569588
 101.3277835   6.2471236  45.7563066 100.7707328   6.1354483  46.5266657
 102.1973294   6.4273108  46.1135912  94.6148080   8.2323874  69.3366003
  94.5824069   9.1457118  69.6212626  94.7699183   8.2808817  68.3932972
 102.1074647  10.0341643  86.1856174 101.6916150   9.2890585  85.7518864
 102.8371686  10.2684248  85.6121349  17.4468387  10.3519190  69.2207527
  16.5177024  10.4526366  69.0138865  17.5868285  10.9212149  69.9774170
  22.1020854  31.1196173  62.6561022  22.2608054  30.4869212  61.9555759
  21.8665183  30.5840720  63.4136868  59.1236384  77.4976491   2.1764998
  58.7143118  78.1165361   1.5718035  58.8480360  77.7928495   3.0443244
  74.9358845  98.8894653  91.6850090  75.8119154  98.7340164  92.0380497
  75.0848055  99.1221523  90.7685375  77.8374846  59.2569684  20.6247954
  78.3292563  59.9877691  20.2501921  77.1453459  59.0821504  19.9871401
  54.7652954   0.7104434  76.6668034  55.3909689   1.2641562  77.1338892
  54.2194194   0.3318728  77.3559618 104.1466427  97.0358181  67.7621794
 103.4589577  97.5057411  68.2338762 104.9063301  97.6165581  67.8051281
  44.8778135  68.8752698  23.0997042  45.1070959  69.3830251  22.3213534
  45.2180082  67.9983091  22.9223780   2.9621089  13.6820353  90.8936119
   2.8972781  14.5958556  90.6161785   3.1125987  13.1957282  90.0829983
  62.5407297  39.4555425  16.6128401  63.4211619  39.1108751  16.7620615
  62.2961695  39.1222429  15.7495169  17.4853594  66.7164277   3.0880694
  18.3667833  66.3955163   3.2787184  17.6001484  67.3010873   2.3389296
   8.4659637  16.6742171  73.5397387   8.6489642  16.1143626  74.2942572
   9.0658344  17.4135054  73.6389446  73.3919317  81.0888242   3.3447318
  74.0093405  80.9862184   2.6205019  72.5471861  80.8275365   2.9781680
  53.0081827  46.9788121  14.7621207  53.0656225  47.5182771  13.9735083
  53.2227976  47.5771474  15.4777770  72.8694708  74.6566438  22.5591139
  72.6281340  74.3333291  23.4271292  72.4892981  75.5340528  22.5161032
  77.3955011  91.6479588  82.7194309  77.8474140  90.9346676  82.2686291
  76.5237093  91.6665459  82.3246479  97.7030105  14.3001498  78.0444622
  96.8280572  13.9199770  77.9659891  98.0312365  14.3332709  77.1459055
  88.1905443  66.1417531  14.5985274  89.0308649  66.2642240  15.0402216
  87.5955755  66.7447423  15.0442271  35.7277930   8.8274516  39.0520215
  35.2542079   9.3250216  39.7186399  36.6491664   9.0347804  39.2079234
 115.3611916  13.3672656  59.4343138 115.5363244  12.9506339  58.5905266
 115.7952231  12.8033770  60.0745296  93.2272911 102.8148365  85.1111889
  92.8203106 103.5815525  84.7077751  93.9562511 102.5971222  84.5302868
  10.8185065  44.0917815  73.4301901  10.4461635  43.2175578  73.3147573
  10.0588954  44.6733416  73.4621429  48.5595686  87.8044652  29.4283156
  48.9974196  88.6153936  29.6870188  49.2740233  87.2019624  29.2215018
   1.7699129  28.8599061  10.1775984   1.2709267  28.1352662  10.5546145
   1.1163313  29.5386075  10.0089793  13.2444412  73.4649514   2.2211318
  14.1926319  73.4281492   2.3468737  12.8806431  73.1548833   3.0504279
  96.0348386  19.1984786  69.7395897  95.3360337  19.8100031  69.5073175
  96.7550486  19.4227637  69.1503334  34.5363648  58.5510396   1.8674330
  34.3592531  57.7556276   1.3652663  35.2827913  58.9534044   1.4233832
  74.5713425 103.9677715  82.1308327  74.9935484 104.7936916  81.8945694
  74.8862314 103.7822914  83.0155182  40.5823291  37.8345717  84.9153519
  41.0319961  36.9900740  84.9443626  39.6615184  37.6209296  85.0660038
   3.6063731   5.2202643  83.5264301   3.7903751   5.1844729  84.4651031
   3.0762828   6.0096205  83.4162045  15.6959499   5.3883112  66.6694164
  15.1297534   6.0795535  67.0126915  16.0753406   4.9807585  67.4480057
 103.1005639  10.1562918  64.3289232 103.0253810   9.2199744  64.1448307
 102.1966762  10.4528559  64.4350481  83.7958908  88.0718327  60.7803774
  84.7056389  87.7975464  60.8959436  83.3961487  87.9443073  61.6407108
  61.0780621 108.0428886  84.9534512  61.0616636 107.5988102  84.1056538
  61.4226580 108.9148140  84.7604942  12.5419772   7.9779662  62.1092987
  12.9721988   8.8212145  61.9676208  11.8051208   7.9793776  61.4983368
  89.0859240   7.2686995  70.6615973  89.8646897   7.5242461  71.1560154
  89.3487710   6.4762248  70.1934862  38.8296110  56.5547990   7.4295954
  38.7549002  57.3555993   6.9105963  38.8074858  55.8482026   6.7842536
 112.2446001  87.2964525  22.7032904 112.3125971  87.5813913  23.6145644
 112.4764455  86.3680028  22.7247290  29.8353255   5.2985705  60.7283592
  30.3389323   6.1025275  60.6008053  30.4046691   4.6041621  60.3968716
   5.5073512   7.5231017  84.9707413   5.4460967   6.5919722  84.7574615
   5.3917278   7.5594367  85.9202385  16.3194717  11.4590491  92.4978447
  15.4727710  11.8219889  92.2378635  16.9454540  12.1613825  92.3214912
  50.6917650  72.8724717   7.0679717  50.0893385  73.5808706   7.2948985
  51.5493471  73.1862020   7.3549323  77.6430798 109.8175812  60.3126335
  77.3084927 110.5231857  59.7590971  77.4412918 110.0974178  61.2054968
  88.3551884  78.3850098  80.2922916  88.1836414  77.7022791  79.6436882
  89.3092823  78.4583330  80.3162193  91.0899145  27.5583028  21.2428622
  90.4238302  26.9956826  21.6378645  91.4532549  27.0343828  20.5289130
  90.9523296 103.2191658  88.0909824  91.8196678 103.5996532  87.9524708
  90.4104805 103.6002636  87.4000549  71.8883116  51.1434411  19.7844271
  72.5048239  51.8314122  19.5337443  71.0941870  51.6140794  20.0375895
  30.8283789  87.3122930  36.3401465  31.3198597  86.5384244  36.0648303
  30.9454901  87.9374170  35.6247859  88.3567793  73.9258336   5.7895426
  88.2159979  73.3019208   6.5016894  89.1082365  73.5767221   5.3103117
  83.6209774  99.1234779  84.4966125  84.3781185  98.5524464  84.6265888
  83.9746380  99.8919392  84.0487003 112.6280373  10.9254397  45.8749866
 112.3790091  10.4688681  45.0713968 113.4805554  10.5564059  46.1057615
  17.5560153  -0.1241743  91.4927959  17.3808349   0.4967345  92.1999073
  16.8869842   0.0665701  90.8353424 107.4392033  49.6990061  79.8266649
 108.2398701  49.1914129  79.9590158 107.3019791  49.6872282  78.8794279
 116.6163081  10.8819712  66.7811632 117.4360579  11.0204733  67.2555685
 116.1309594  11.6986693  66.8981409   5.3182662  33.5918654  83.1676674
   5.8118785  33.9939726  83.8824368   4.5225585  34.1195429  83.0995846
  14.9878181  33.8968600  18.5814726  15.4891837  33.1232775  18.3237123
  14.0760673  33.6055602  18.5717034  68.5849428 101.2643337  73.5420084
  68.7205744 101.2600803  72.5944757  69.4208050 100.9713078  73.9049196
  35.7844288  79.9826955  42.8999762  34.8595459  79.7609567  42.7920584
  36.2529213  79.2870950  42.4385790  87.2468376 106.8458557  72.9774809
  87.9485512 106.1954403  73.0056953  87.2095966 107.1967506  73.8672638
 107.1441001  14.5156897  74.5814276 107.9712933  14.8517455  74.2363882
 106.5588874  15.2731551  74.5806265  80.4679507  39.0250624  78.4740210
  80.2479142  39.9181689  78.2090998  81.2684030  38.8219965  77.9900026
  55.4594786  59.0138006   1.8811373  54.5213492  59.1841268   1.7966895
  55.5148966  58.2713270   2.4827151  65.3900988  47.9087781  12.0760970
  65.7365305  47.8052568  11.1898093  64.5637209  48.3769464  11.9570689
 102.5774163   4.6421660  78.7617540 103.4435719   4.4417037  78.4070492
 102.2024316   3.7877596  78.9752960  18.1876529  17.9496706  66.7815256
  18.4926952  18.0444849  67.6838493  17.6483882  17.1589125  66.7928505
 113.6225861  14.0048350  91.6082287 114.3624801  14.1504611  92.1977901
 113.9853639  14.1346587  90.7320118  16.1335242  16.2726630  61.1314917
  16.8493617  15.7498969  61.4927769  15.6292117  16.5493811  61.8965578
  94.2305756 105.5456924  76.3225317  94.3265057 105.9957600  75.4832029
  93.7113857 106.1456203  76.8580341  71.2384510  83.3892059  67.9901218
  70.4313707  83.8626766  67.7884340  71.7880440  84.0324974  68.4377289
  87.4632740  99.6824265  78.9148235  86.6053867  99.3226051  78.6894560
  87.9716015  99.6137810  78.1066704 102.5007742   5.7240444  61.7741013
 102.4496096   4.7964907  62.0048809 102.7118593   6.1643982  62.5973654
  55.4374737  65.2993248   1.8160109  56.2791211  65.7083784   2.0173506
  55.5704016  64.3709890   2.0077281  45.0023794  10.9788620  27.3144960
  45.0889015  11.2508476  26.4008379  45.8902931  11.0380232  27.6671171
  10.7587695   4.5631018  50.4673195   9.9825686   4.6962219  51.0114002
  11.1386466   5.4367393  50.3741407  12.8194171 102.5185131  76.3015604
  13.6276370 102.0101987  76.3695860  13.1051093 103.3850603  76.0122347
 109.4472515  51.0382891  54.0757465 109.3673795  51.5048218  53.2437611
 110.1734238  51.4713812  54.5244455   1.4441377  78.9465081  94.8005486
   1.4129764  78.8413750  95.7514477   0.7576948  79.5850836  94.6075535
  79.8116625 105.4529919  70.4677534  80.6613302 105.1661806  70.8024740
  79.4655199 106.0256659  71.1521959  91.5224904  74.5035289   9.3200736
  91.2844247  73.7709652   8.7518267  90.6845206  74.8768733   9.5932917
  95.9804820 108.1226318  42.6463747  95.0239729 108.0873006  42.6377630
  96.2543022 107.2947296  42.2516155  91.1019563  91.7438053  79.0463448
  91.4845657  90.9292089  79.3723440  90.9065580  91.5653323  78.1264544
 113.8619708  15.0743306  48.9642096 114.4573323  15.6623566  48.4994459
 113.8675159  14.2694211  48.4462070  83.7623852 107.1586098  78.2501745
  84.5651870 107.6749574  78.3217669  83.6758351 106.9789728  77.3139763
  14.1840804   6.5611070  59.4664383  15.0397551   6.4215243  59.8721123
  13.8544559   5.6793159  59.2931652  62.3758024  99.6053468  11.1697344
  61.4955491  99.4211064  11.4975218  62.3096913  99.4810878  10.2229361
  41.1775464  69.1474007  21.0516314  41.1190286  69.7757386  20.3319125
  40.2983521  68.7744413  21.1160521  25.8448839  25.0611734  87.6236057
  26.5653801  24.8193789  88.2055473  25.0970674  25.1868582  88.2077408
   4.5625037  26.7590666  80.4857635   4.8810801  27.5765991  80.8683586
   5.2395093  26.1161041  80.6966972 102.8343182  37.9014826  59.7559881
 101.9807249  37.6002169  60.0671911 103.2544189  37.1142721  59.4095087
  97.0548742  28.4400702  57.6243353  97.3723500  27.5714016  57.3776436
  96.4838439  28.7005377  56.9016266  70.9225816 102.4727307  29.0940814
  70.8960360 103.2971440  29.5797591  71.2516874 101.8331729  29.7256522
  94.3871516  47.3585157  16.6188578  94.1794986  47.5415711  15.7025580
  95.0950307  46.7153631  16.5801482  99.1420280  99.3600189  71.0274172
  98.3428489  99.8867201  71.0388422  98.9002501  98.5482179  71.4732361
  59.7677374  18.7700498  81.7140293  60.3097439  18.6006510  80.9434700
  60.2049112  19.4957530  82.1595192  67.6335138  69.1731761  18.1306605
  68.4802550  69.6111415  18.0443720  67.8466410  68.2400857  18.1429820
  94.0481853  91.4812337  93.4433556  93.1428563  91.1878323  93.5459614
  93.9761149  92.3375999  93.0218410  16.2742078   0.7187981  38.2086849
  16.2588167  -0.1524068  37.8124571  16.5294778   0.5638314  39.1181111
  35.4807520   0.5163001  86.5368652  36.2980270   0.0259433  86.4482975
  35.5026269   0.8588997  87.4303913   3.9824563  87.5898491  72.5555992
   4.4207555  88.2790624  72.0564842   4.5204717  86.8112480  72.4122381
   9.2063957  24.6106219  58.5585499   9.4967949  23.6988997  58.5328007
   8.3827084  24.5859694  59.0455437  23.4889483  22.5900936  55.5559635
  23.8906407  23.0441856  54.8152399  24.2190695  22.4005723  56.1452293
 114.1460859  89.7610485  89.5282555 114.4057166  90.6018006  89.1514778
 114.5255672  89.1077768  88.9404964  15.7865506  93.6199295  79.1071129
  16.4281922  94.0454625  78.5383940  15.5113584  94.3071424  79.7139406
   8.2867330  30.5604005  57.8577042   8.6483932  30.8586574  57.0231533
   9.0008795  30.0721741  58.2674122  87.6254767  61.3932375   7.5619273
  87.8793067  62.1925764   8.0232863  86.6749686  61.3483916   7.6656489
  14.4544488 101.8559652  48.6912346  13.7783223 102.2823696  49.2177916
  15.2634841 102.3099088  48.9270830  73.9452209 109.2920679  61.8838930
  73.0030339 109.3409084  62.0455408  74.0248811 109.2917950  60.9300137
  20.4705667   6.3018745  27.2318363  21.0512114   6.8604589  27.7486229
  20.3214240   6.7936212  26.4242625 101.9297271  13.4641755  91.2443256
 101.6040343  14.3258011  91.5046310 101.1504095  12.9921591  90.9508991
  19.5008135  21.3673306  26.2565517  20.1025462  21.0376644  25.5891156
  19.0255642  20.5917621  26.5546560   9.0488243   4.7924116  95.2078915
   8.9948058   4.8871434  94.2569256   8.7461257   3.9002749  95.3772926
  24.4011331  18.6743438  82.8718662  25.2545857  18.8093531  83.2837200
  24.5449424  17.9597616  82.2514439  69.5068776 109.9072235  88.8105297
  70.0949859 110.0891731  88.0775547  68.7070858 109.5785423  88.4000015
 105.4163038 107.2040551  26.4078712 105.0893604 106.7272251  25.6449986
 105.3770863 106.5684371  27.1224928  23.0031133  24.8051882  82.0366383
  23.2430458  24.5069933  81.1592865  23.0167913  25.7604313  81.9770145
  10.6188917  29.8204660  85.2297592  10.4311454  28.8826251  85.2676964
  11.5261006  29.8711324  84.9287033   0.3313064  13.0303073  82.4473763
  -0.4427074  13.2071972  82.9820156   0.4030305  12.0758426  82.4381924
   9.9647778   6.3487774  69.2327452   9.2459500   6.3482022  68.6006689
  10.7466626   6.5147275  68.7061071  31.7703676  12.2631681  54.7220612
  32.6196766  12.3903191  54.2992830  31.6766000  11.3130116  54.7902060
  10.8597815   1.4187996  64.8577833  10.5910289   0.8310033  65.5638313
  10.5536366   0.9893279  64.0590000  13.9692140  24.3699431  53.8027716
  14.0444529  24.9109793  53.0167389  14.0478742  23.4710765  53.4832716
  30.3430445   2.8975915  39.1595511  31.1903603   2.7444648  39.5776896
  29.7049887   2.7905130  39.8649840  12.9454565  13.1404126  61.4596701
  13.2303464  13.3866894  60.5796623  11.9926834  13.2294405  61.4366579
 108.1967765  57.1751261  22.6368880 107.6482033  57.9287863  22.4194050
 107.6247215  56.4181232  22.5106812  12.3116362  58.5057020  57.0409393
  12.6602471  59.3852139  56.8954754  12.9709721  58.0734825  57.5837994
 114.0643629  23.0633593  64.7281933 114.3245175  22.6751232  65.5635500
 114.4670990  22.5006747  64.0668154  97.0873934  55.2500963  58.8179064
  97.7815455  55.3872538  59.4625568  96.7117458  56.1199093  58.6817074
 101.8227755 105.3864678  48.0919266 101.1004364 105.9914835  48.2604885
 101.7477023 104.7260051  48.7806797  60.6873560   0.8740258  65.8429146
  61.3227844   1.1655524  66.4967346  59.8572397   0.8322318  66.3176727
  79.4479337 100.6948726  77.8005981  79.1877002  99.9816548  77.2176456
  80.3768107 100.5383771  77.9706812  14.7055423  17.1723366  63.3218670
  14.8671412  17.3015046  64.2564440  13.8254344  16.7982674  63.2804394
  95.5272960  97.7991663  69.7781086  95.8610212  96.9861924  69.3987226
  94.8240482  98.0682742  69.1871309  22.8458530 107.4280988  42.8765965
  21.9823152 107.8329237  42.7950382  22.7712375 106.6052498  42.3932886
  32.5372458   0.2041950  37.6009631  32.2834611   0.6141219  38.4278750
  32.4814463  -0.7358375  37.7725935  14.0551472   9.9113297  80.7304001
  14.1639996   9.2486811  81.4125156  14.0779316   9.4173825  79.9108124
  22.7846241   8.4330803  41.9448566  22.9629540   7.7968806  42.6374483
  21.8489623   8.3375341  41.7669868  70.4068136  10.7142889  67.8099251
  69.9182606  10.3788531  67.0582438  70.1272678  11.6262829  67.8896379
  33.1833410  45.0738239  80.0240040  33.3889794  44.4753122  80.7421494
  32.7495146  44.5244646  79.3711424  97.2415339 101.1355506  80.9677792
  96.4748227 100.5999707  81.1715984  97.8125345 101.0360860  81.7295551
   8.2349175  25.3683925  76.4243126   8.8618881  25.7681584  77.0270777
   8.7020057  24.6188259  76.0552454   7.8211617  14.6172488  91.1895180
   8.1598312  15.3932345  91.6360378   8.1751871  13.8805962  91.6877460
  80.6776016  99.7320162  64.7422600  80.7688507  99.6794545  63.7908745
  80.1643302  98.9588331  64.9767256  69.9568814  65.7955323  27.6959376
  70.1137012  65.7685624  26.7520575  69.9417967  66.7284439  27.9096751
  16.9488084   4.9759918  64.2376804  16.9008183   4.0918046  63.8741684
  16.4306462   4.9329945  65.0413561  14.4591379  41.7087078  78.2572794
  15.3047657  41.2779188  78.1325197  13.9719617  41.5166330  77.4560356
  30.3696609  31.4860511  76.6962099  30.3968143  30.5449080  76.8686724
  30.5535293  31.5633988  75.7600260 108.3106607  15.8746302  80.8969021
 108.4561204  14.9974751  80.5424023 107.5774157  16.2201607  80.3877926
  33.6076212  21.8745971  78.8878918  32.7169061  21.5372896  78.7925816
  33.5481858  22.5095248  79.6017313  18.4521759   9.8610377  73.5291958
  18.9256775  10.0239003  72.7134132  19.1391122   9.7323412  74.1832495
  58.5627890  11.7228007  72.6703691  59.4511604  11.8343508  72.3318624
  58.2217836  10.9610403  72.2016811  73.5465384   6.9788110  43.5444975
  72.8737974   6.8961173  44.2203760  73.4174633   7.8561521  43.1841612
   2.1366002  12.7072608  44.3997526   2.8327078  12.8613818  45.0384331
   1.5969494  13.4968901  44.4384193  94.2110144  99.2135393  73.7250423
  94.0217137 100.1443230  73.6065578  93.8386297  98.7928437  72.9500771
  11.2972432  78.8027274  38.5996675  12.0552236  78.2756030  38.8523340
  10.7635957  78.2143055  38.0656147  65.3488988  36.3440166   2.7452425
  65.6890124  35.4612397   2.8910498  65.6706399  36.5841602   1.8763117
  41.2706852  11.8770409  48.4354973  41.0835457  11.2108731  49.0968847
  42.0575809  11.5600121  47.9921961   6.1640304  35.5662656  60.8337784
   6.6396040  36.1937547  60.2894306   6.6713762  35.5193520  61.6441059
  61.8538159  79.8175536  15.0482993  61.9599384  79.0298854  14.5148615
  61.1078113  79.6237288  15.6158690   5.4669619  10.4578996  84.5934677
   5.8156490  10.0042439  83.8261127   4.6497744  10.0004315  84.7913551
   0.3832180  34.0487671  95.2463818  -0.2602850  34.1106272  94.5404720
   0.2673103  33.1666708  95.5995178 110.6330978  14.6898389  65.3053427
 110.7847440  13.7449253  65.2860308 111.3973176  15.0458479  65.7586193
  78.4267515  60.1747458  23.3192496  78.4420651  59.7416098  22.4657874
  78.8225669  61.0316215  23.1601004  17.5712538  34.2948318  56.3822985
  17.6224780  35.1645279  55.9857655  18.3787692  34.2151618  56.8900394
  21.3945270  13.0033398  64.3588018  22.0481205  13.0813169  63.6638451
  20.7416201  13.6713064  64.1495991  25.6546450  17.7449417  74.1413784
  24.7600365  17.8275120  73.8110924  25.5488920  17.5051773  75.0620079
  51.9213551  80.3035889   0.5485396  52.6501900  80.9183989   0.4646258
  51.6468269  80.3808485   1.4622645  13.5804987  25.6646061  71.7859411
  12.8876352  26.2525010  72.0868635  13.9259827  26.0849166  70.9984064
  24.1310477  20.2765322  59.4277620  24.5701671  19.4264972  59.4568586
  23.7454772  20.3768492  60.2981043  84.9170464  84.9255691   2.5760607
  84.4110412  84.2791854   2.0837454  85.1964587  85.5624471   1.9183783
   4.2745429 106.1834969  91.8049049   3.4122926 106.5458923  92.0084381
   4.1958934 105.2509203  92.0057678 105.0823342  94.8569273  74.7645330
 105.1683294  93.9080965  74.8570442 105.3708493  95.2068852  75.6074572
   6.6428822  24.1320992  64.2995548   6.6903281  25.0337768  64.6172905
   6.6181153  23.5991073  65.0942469  43.3722115  13.0829036  95.3500748
  42.8409338  12.3335719  95.0808620  44.2100143  12.9546607  94.9052429
  23.5423493  18.0799711  69.3356991  22.8906393  18.5675263  68.8319206
  24.0826011  18.7554777  69.7456408  33.7151694   9.4835347  43.8454437
  33.2538319   9.1662282  43.0690956  33.4837747   8.8594389  44.5333338
  96.9114839  91.5025460  87.5137901  96.3650429  90.7772516  87.2111607
  97.7498423  91.0957169  87.7326012  16.0861397  10.2806640  60.3415966
  16.4624298  11.1582971  60.4079103  15.8951998  10.1716948  59.4099855
 109.0585690   1.3153364  52.5567198 109.1496175   1.4630157  51.6153717
 109.7976231   0.7507578  52.7831745  17.0254212  71.2147438  47.0707560
  16.8684608  70.6550418  46.3102770  17.5526219  70.6755244  47.6602745
   1.9838935  93.2294499  70.7153654   1.6288215  93.4166156  71.5843439
   2.0219499  92.2739505  70.6728888 112.7410137  78.1010543  76.9893885
 112.7016103  78.8848769  77.5373888 113.0737793  78.4135090  76.1480379
   5.0128865  17.6554048  71.2409544   4.3583953  18.2209480  71.6508722
   5.8511871  18.0644906  71.4557362 116.8675142  41.6507101  25.7380652
 117.0151475  40.8064270  25.3119016 115.9350950  41.6499853  25.9544587
  33.8689804   0.8757650  89.2862701  33.5245299   1.6574672  88.8543892
  33.8288832   0.1941664  88.6154175  77.0851540 103.5520386  67.5551891
  77.4274123 103.7833314  66.6917133  77.3078747 104.3000620  68.1093454
  66.9818449  38.2172275  87.8458977  66.2930775  37.7929854  88.3576107
  67.4496317  37.4941683  87.4280453  19.0782797  12.5036204  88.1721592
  19.6027541  12.4015427  88.9663506  18.7960124  13.4181273  88.1874371
 116.4417621   5.0257003  80.0433540 116.6020471   4.3935931  79.3426514
 116.7349435   4.5810762  80.8387089   1.4287576  38.6155438  27.9546118
   1.5913147  39.5324779  27.7331614   1.2771259  38.1887412  27.1113563
  20.7575160  95.4946696  47.3425436  20.5945998  96.1730920  47.9978561
  21.6819793  95.5971049  47.1164751  41.9971991   4.0595269  81.7745876
  42.3448896   3.4216726  82.3978710  42.6802158   4.1407987  81.1089230
  49.7881394 105.5080484  77.4468136  50.5652028 105.3845536  76.9017029
  49.0861207 105.0696384  76.9659758  99.7419750 107.2787475  94.2636681
  99.5510828 106.4248692  94.6518517  99.7987401 107.1072211  93.3236790
  70.7444734 102.0608197  11.1803774  69.9535197 101.6265784  10.8609061
  70.4620880 102.5221310  11.9701151 115.7340227  14.0605402  43.3207512
 116.4895788  13.7089312  42.8498602 116.0254140  14.9159014  43.6364746
  50.7853705  57.1678424  28.1220583  51.3134033  57.9363595  27.9057364
  51.4049548  56.5554774  28.5187392  27.4993181  71.8087244  43.1709957
  28.4147644  71.6850567  42.9202127  27.0015025  71.5507078  42.3952150
  22.7169228  25.0128651  58.0287743  23.5711432  24.6898508  58.3154774
  22.5859976  24.6131897  57.1689224 100.1787674 100.2869373  66.4889145
 101.0330831 100.3158086  66.0581636  99.5475017 100.2905582  65.7693863
  24.0869254  85.4643355  10.6979041  23.5132080  86.2254296  10.6094889
  23.5786587  84.7380291  10.3368239 103.5122930 108.5566044  77.8746653
 103.5244571 107.7365710  78.3682537 103.9625656 108.3498939  77.0556688
  93.0701422 109.9239496  73.5206938  92.5469469 110.5814023  73.9792299
  92.5689506 109.7285984  72.7289391 103.6938279   5.8495438  52.6769066
 104.4243580   5.9941816  53.2782698 103.0507832   5.3640157  53.1936121
  10.1096850  74.3501770  77.0379639   9.1900664  74.2730676  76.7838240
  10.5100709  73.5337698  76.7389584 115.6062137 107.1331509  82.0759583
 115.7535230 108.0708613  81.9525433 116.4304959 106.8066587  82.4367809
 109.0706813  97.1587359  58.9573288 108.9147269  97.2887730  58.0219126
 108.8793051  96.2326550  59.1055870 113.7107312  92.7237474  72.4619722
 112.9202735  93.1923496  72.1939754 113.8706910  92.0995294  71.7541599
  25.7860494  38.0972385  81.9188881  26.3144422  38.0030632  81.1263180
  25.6064510  37.1985555  82.1951962   7.3714781   1.3979872  88.4547806
   7.9455197   1.9804175  87.9572964   7.1720558   1.8842348  89.2547894
  17.1694994   6.7841244  46.1719942  17.9523742   6.8145901  45.6220770
  17.1787167   5.9062338  46.5533829   9.3955183  62.1487379  67.1842194
   8.6678499  61.6415739  66.8243408  10.0415099  61.4910746  67.4419117
  35.6128073  24.1400409  85.7983780  35.8203030  23.2143307  85.9258175
  35.5758476  24.2485952  84.8480701   5.7139432  14.6486437  86.4453697
   5.6984609  15.2808928  85.7268620   6.3229311  15.0238180  87.0814610
  25.9111309  21.7747068  94.5625114  26.4301395  21.9920754  93.7881660
  25.4660106  20.9594274  94.3313789  69.3633509  27.8888226  81.0551834
  68.4066105  27.8591561  81.0536480  69.5763540  28.7261319  81.4672279
  64.5957661  37.2409105  84.7996426  64.1109562  36.5559149  84.3392372
  64.2037153  38.0587602  84.4936275  42.4306917  15.1982141  79.2569256
  41.5493202  14.8965275  79.0369272  42.5432110  16.0008204  78.7476158
  96.5096694  10.4968131  88.5237312  97.1724373   9.8555470  88.7801456
  95.7412725   9.9711865  88.3012104  31.0825133  39.7902560  90.9068775
  30.4860759  39.0437102  90.8506298  31.5513420  39.7856641  90.0723648
  15.1110494  18.8977969  89.6810055  14.7463644  19.1620326  88.8363647
  16.0221291  18.6753535  89.4894791  71.6938305  23.2694244  60.7313204
  71.5077305  23.0703282  59.8137379  71.7113495  24.2256784  60.7701349
  12.3482764  21.6053534  83.1785583  11.4500713  21.9097018  83.0488205
  12.2989643  21.0328913  83.9441299  70.2112913  29.5480776  91.3908386
  69.8013163  29.1942978  90.6015396  70.8501434  28.8830900  91.6475296
  87.2770900  79.7551571  14.9529700  87.3625392  80.4728328  14.3253760
  87.1119946  80.1879011  15.7906489  68.1828213   6.8460023  70.7614613
  67.8027248   7.1408457  71.5890026  67.8032303   5.9789085  70.6190109
  80.6537694  65.5010198   6.0593752  80.1695222  66.2953566   6.2846903
  80.6462974  65.4792736   5.1024489  65.1441115  85.4758845   4.8810057
  65.1595539  86.1692797   5.5407004  64.2290849  85.4292641   4.6039061
  32.3197699   5.6274056  82.4979496  31.6641998   5.7267177  81.8075943
  31.9707036   6.1302310  83.2338524  13.5510230  18.4073067  49.6807718
  13.0679214  19.2025435  49.9053669  14.0726113  18.2157481  50.4601812
 104.0637570  17.9106927  91.5825939 104.2766028  17.1970546  92.1839619
 104.0328627  17.4961495  90.7203674  29.5921874  15.2800572  90.9184742
  29.6577644  15.0245237  89.9983501  28.9475203  14.6773243  91.2890816
  19.2407572  17.1381032  88.5572624  19.6775663  16.3936162  88.1435394
  19.1540110  17.7845001  87.8566360 114.9643617  27.5764918  91.2234402
 115.2207453  27.1355271  90.4134750 115.5979095  27.2716475  91.8729973
  72.0756883  82.2180854  12.9144911  72.3382086  82.8962861  13.5368685
  72.6675004  82.3332296  12.1710257  90.9399676  93.9122700  39.2037940
  90.0189673  94.1397082  39.0762758  91.3264703  93.9798652  38.3307076
  84.6271312 105.2157914  46.2973070  84.8528665 104.6845644  47.0608997
  83.8535588 105.7095959  46.5692902  27.5341964  18.1350827  72.1725368
  26.8980384  17.9681063  72.8679895  27.0009136  18.3198333  71.3994217
  11.2035251  15.8447528  88.0180168  10.4090643  16.3723254  87.9359818
  11.1187804  15.4149234  88.8690758  73.3353537  71.9392477  -0.1423212
  72.8997320  72.0092343   0.7071356  74.1169709  71.4148615   0.0318293
  38.6715770  16.4198506  73.5684013  37.8422594  16.8300390  73.3230209
  38.7052155  16.4992201  74.5217085  38.7448645   1.3174504  57.6432943
  38.1683016   1.2130194  56.8863916  39.3395042   0.5688200  57.5965166
 115.5477487  99.4388103  81.2614918 115.9242498  98.7118649  80.7654762
 114.6356332  99.4780444  80.9738541  85.7330483  65.7214044   5.8519701
  85.9450454  66.6509531   5.7669405  85.6113595  65.4201613   4.9515967
  15.2696729  34.3049717  88.0109310  14.9076116  35.1860595  87.9169750
  14.5563185  33.7235594  87.7476501  48.9073455  69.7202049   2.2547774
  48.0248881  69.3941198   2.4313216  48.9919359  70.4951142   2.8102831
  18.7702358  14.8331666  70.4237127  19.5064569  14.3315303  70.7738161
  18.7425423  14.6016252  69.4953537  38.9543414  19.5063400  43.3271980
  39.7823334  19.4479537  43.8039112  38.7577367  20.4428053  43.3024502
 102.1109640  83.9678561  36.5720248 101.8823587  84.0449296  35.6457257
 101.2770569  83.8013898  37.0114803  48.2956714  79.2970787   1.9947962
  48.4464628  78.9179097   1.1289267  49.0195698  78.9700113   2.5288634
  89.1802472  98.8865910   1.6286807  88.3299560  98.6754762   2.0142512
  89.6737069  98.0676375   1.6738944  28.1331706   3.5488918  75.5644131
  28.9541435   3.3517751  75.1134396  27.5071168   2.9181743  75.2087641
  56.6693229  48.3735721  19.1228728  56.4156455  47.4935715  18.8445239
  57.5743419  48.4672497  18.8255553  19.2779374  46.9699192  88.3138561
  19.0996313  46.8177652  89.2419147  19.5691097  46.1200523  87.9834366
  21.7461658  20.9011936  58.3803654  22.6718879  20.9948301  58.6050892
  21.7402482  20.3012633  57.6345205 111.2757694   8.3478624  44.9225092
 111.7631262   7.5501579  45.1283836 111.0168939   8.2408816  44.0072107
  24.8596168   0.2071733  55.5156994  25.1445246   0.3551347  54.6139383
  25.5814266   0.5354437  56.0518503 105.7090127 107.6690044  60.1739264
 104.8003470 107.6075619  59.8793364 105.8312475 108.5952999  60.3819370
  60.2331776  80.4904114  27.2017626  60.6675548  79.6446214  27.0913558
  60.5274767  80.8008419  28.0580573  21.1216307  37.7778530  78.1277895
  21.1402202  38.6759591  77.7971983  21.4565778  37.8447962  79.0219736
  18.5438895  18.1344402  79.6413374  19.2649019  18.3240354  79.0409803
  18.5757375  18.8422143  80.2849770  60.8444017  51.6896613   2.4585299
  61.1366123  52.5811578   2.6484637  61.5980476  51.1398150   2.6728110
  57.5579166  26.2385154  83.1621075  57.3563719  25.3031850  83.1344318
  56.7966700  26.6594768  82.7626896  11.1301064  38.1413674  70.6752157
  11.7210662  38.6317778  71.2466145  10.7146943  38.8095951  70.1301098
  33.4059262  22.6923490  50.3050756  33.5558653  21.7471838  50.2846956
  32.6328182  22.8240991  49.7562790  42.8265285  31.7524981  76.5203285
  43.0555916  32.6602840  76.7195511  43.6684370  31.3161278  76.3899326
   4.2909640  29.0828562  55.1690388   3.3864307  29.2759895  55.4155159
   4.3115178  28.1321979  55.0592279  87.9737109  65.0762550   2.6611857
  87.7107495  64.1841410   2.8874926  88.8976735  65.0004469   2.4229006
  57.7276802  19.4882381  44.2234707  57.4218988  20.3948879  44.2502356
  58.0919695  19.3841827  43.3444405  41.3631201  20.2821708  68.2129908
  41.2347078  20.7891679  69.0146732  40.8047533  20.7124639  67.5654554
  42.9966593  55.3851938  83.7863350  42.2852325  55.0036049  83.2720470
  43.7694979  54.8769140  83.5401630  71.5862703   0.9964582  65.1497459
  71.7241335   1.2114871  64.2272568  71.0420799   0.2091710  65.1334286
  45.0073481  12.0259380  88.8642216  45.1274109  12.6295400  89.5973492
  44.3962908  12.4760938  88.2809544  86.3934440  18.1230354  16.9422678
  86.8909496  17.3774099  17.2780756  86.6751653  18.2082748  16.0314421
  73.5902553  18.4196734  52.6156378  72.7895647  18.0886722  53.0225325
  73.9840942  17.6514161  52.2022343 106.6083925  25.4313016  68.8521051
 106.9436621  24.6739960  68.3721972 106.1972397  25.9768867  68.1816435
  11.7474329  40.1163054  65.2252293  11.7318714  39.8004103  66.1286688
  11.7946863  41.0689688  65.3053904  85.7353753  68.4007929   5.2215056
  85.4764527  69.2197309   5.6440405  85.1547593  68.3281122   4.4639925
  20.9325528  26.7610240  60.3495884  21.5681267  27.3096228  59.8898935
  20.5294800  26.2327647  59.6605968  74.9825376  37.9573725   1.3259463
  74.9354667  38.4848867   2.1232848  75.7526845  38.2891367   0.8643870
  43.5041142   0.5795879  36.0515785  43.9874268   0.1274803  36.7431259
  42.6043701   0.2663315  36.1440849   5.1484996 106.5316864  76.1603069
   5.6251651 107.0650141  76.7963743   4.9316531 105.7293396  76.6351223
  40.3026104   0.5925215  48.9891720  40.0377989   1.4597097  49.2959118
  40.7487679   0.1991196  49.7391129  78.0764717  85.0325547  23.4835200
  77.8066629  84.9427472  22.5695376  77.2754401  85.2775060  23.9467577
  31.4376211   0.6685060  75.6957865  31.8539524  -0.1859400  75.5825472
  30.8634281   0.7578516  74.9351645 104.9838704  74.3902181   4.3329100
 104.6410340  73.4967755   4.3115096 105.9132165  74.2853282   4.5367388
  47.4029386   2.5637817  12.6961474  47.3910535   1.6792964  13.0619101
  48.3019054   2.6844310  12.3903136  28.4335518  25.7762671  78.5050678
  28.1103444  26.6057134  78.8569021  28.3128810  25.1500559  79.2188787
  24.1216731  25.0189614  70.1872396  24.1870308  25.7956076  70.7429218
  23.8498926  24.3205690  70.7827330   2.7354458   5.6887627  60.2473640
   3.2484663   5.1022446  59.6914530   3.2509655   6.4943767  60.2855444
  15.0973558  42.7668524  91.2774277  15.8142352  42.4678135  91.8367863
  14.9374938  42.0352030  90.6812954  58.5428661  43.4487592   5.0342421
  58.8901955  44.2193638   5.4834227  57.6159436  43.4302364   5.2723650
  83.4630459  97.9783618  65.5506372  83.0699896  98.4665047  64.8271370
  84.3928313  97.9284727  65.3287315   6.5537119  39.9532318  35.8275533
   6.7818063  39.4250226  36.5925360   7.2737765  40.5784512  35.7448649
  63.7388128  69.1009210   4.1339068  63.9978308  68.2647525   4.5211558
  64.3801707  69.7282849   4.4675307  17.5501990  36.6866779  62.7708387
  16.6215146  36.8651485  62.9189110  17.7422559  35.9356260  63.3323240
   9.1912156  67.4199724  57.9661512  10.0607693  67.4680328  58.3633900
   9.2674536  66.7316008  57.3054218 108.5182630 104.9768679  73.1706858
 108.8395297 104.2360490  72.6566744 109.1639935 105.0815176  73.8694763
  49.0933704  66.8470812  94.6276855  49.3523836  67.5968122  94.0919209
  48.8429976  67.2289562  95.4689407  25.0120997   8.4773654  83.3850479
  24.6494102   9.3582827  83.4781742  25.2355313   8.2147104  84.2779827
  60.3690690  70.1733588   2.9743723  61.1767858  69.8538826   2.5721888
  60.0558895  70.8519970   2.3763804  21.0203719  22.1260953  91.8287373
  21.2095141  23.0536819  91.9703007  20.8433604  22.0582223  90.8905029
  83.2756776  96.7325841  12.9952292  82.5366610  96.1242352  12.9942660
  83.6168355  96.6964303  12.1016268  46.3933420  11.2962806  69.1446590
  45.4554558  11.4707136  69.0660667  46.5014935  10.4090774  68.8020134
  55.3888828  71.1932216  13.8198046  54.6501714  70.8225392  13.3369689
  55.1908583  72.1277700  13.8801245  -0.0234693 105.1820247  59.3208170
   0.5647379 105.7904412  58.8735199   0.5548841 104.5067137  59.6753550
  25.1095849 109.3788232  94.0412998  24.5639449 109.4827061  94.8208618
  25.8804208 108.9027592  94.3501759  17.3830056  21.0005045  67.0500851
  16.9147241  20.5803323  66.3286972  18.2969594  21.0152769  66.7659998
  61.0840034  29.0951490  44.2659616  61.8949986  28.6045909  44.1322994
  61.3222218  29.7887039  44.8811579  64.2042512  75.1373039   8.9686350
  63.4142751  75.5132304   8.5802416  64.8434514  75.1345549   8.2561450
   4.0917903 100.0922321  74.1499805   3.8576871 101.0201310  74.1292238
   4.9294835 100.0461959  73.6891270  76.3201618  23.0081820  76.4117765
  75.8103085  23.7767339  76.6679192  76.8849611  23.3202004  75.7047558
  15.4798687  20.1561666  64.5894432  15.0424361  19.6049929  65.2383566
  15.9389162  19.5381296  64.0206385   1.1391138  15.0429332  66.5728283
   1.2591505  15.8788240  67.0235062   0.8149815  14.4497907  67.2505856
 108.1864261  26.1486006  73.1674242 108.4439462  25.6677628  73.9540052
 107.8116756  25.4823160  72.5913525  30.3479075  12.5688887  40.5247545
  30.0521684  13.3910525  40.1338387  29.8170018  11.8962574  40.0982094
  25.1594210  34.9517560  78.4190512  24.2677665  35.2993751  78.4376621
  25.1999974  34.4395494  77.6114464   7.5049001  94.8465239  85.4374409
   7.7422982  93.9867352  85.0901127   7.6222306  95.4439484  84.6988297
  41.6397190   3.6827818  34.9317408  42.3913431   3.5542378  35.5103350
  41.3210297   2.7980781  34.7529459 115.2943940  29.4750476  73.3924150
 116.1457309  29.8979735  73.2802057 115.4175086  28.8817263  74.1333914
 106.1459416  59.8025463   0.8743052 106.0168141  59.3064149   1.6826396
 105.7254380  60.6460743   1.0412364 103.8035839  19.7284698  55.5151176
 103.8000839  18.8543189  55.9050941 104.5555371  19.7235060  54.9228573
  21.8152809  43.4467793  94.5880318  22.2456741  44.2877293  94.4337749
  21.0009432  43.6733246  95.0372124 101.1287319 108.7265899  70.5944920
 101.4275419 107.8243791  70.7083273 100.2250659 108.6430032  70.2901268
 114.8455393 104.8930674  52.9010630 115.6213009 105.3248074  52.5432539
 114.5216166 104.3491005  52.1831417  11.5079343  36.2892985  78.6739159
  10.8808231  35.6106138  78.4242058  11.5760219  36.8488288  77.9002762
  72.6107740   0.8188144  73.0160713  72.1416187   1.4856681  73.5174990
  72.9911995   1.2967806  72.2791481   0.9891993 100.1973580  55.8137274
   1.8906337 100.2050053  56.1355782   0.4895407  99.7725486  56.5109396
  31.3515496  20.4156017  78.4323597  30.9230590  19.9615681  77.7067661
  30.8643270  21.2344480  78.5236597  46.2574005   2.7376309  59.4209290
  45.8626270   3.5738382  59.1736555  46.5997314   2.3825023  58.6006069
  46.8555480  89.8160826  21.1199812  47.7195257  89.9766694  20.7405238
  47.0307565  89.6211301  22.0405917  25.8589768  15.3077650  51.7953014
  24.9647737  15.0428081  51.5798187  26.1480117  14.6682250  52.4462080
   9.7332030 104.5396285  69.3534708   9.6141368 105.4644596  69.5696735
   9.7595531 104.5187586  68.3968639  94.9927253  92.1210156   2.9754405
  95.2293939  92.8626834   2.4185328  94.1243953  92.3418937   3.3122592
  49.9649829 105.6085120  10.5423598  50.2193064 106.5251981  10.6483893
  49.4559652 105.5933867   9.7318606  66.9708818  73.2440470   0.3827052
  67.8934235  73.0308126   0.5229907  66.5712279  72.4156795   0.1175360
  80.2892322  85.5567179   4.5851187  79.6854419  85.7371627   5.3056101
  80.7209653  86.3946877   4.4188551  50.8040220  86.3471423  20.9721808
  51.1225230  85.4505072  21.0762648  50.0007934  86.2579690  20.4592471
  40.5259562  82.7453613  77.8693056  39.8135400  82.9413795  77.2607994
  40.4139471  81.8180466  78.0784893  66.9618893  26.6390276  79.9521351
  67.1085691  26.1473060  80.7601738  67.6542139  26.3416839  79.3617916
  41.9236135  57.2200394  85.2402592  42.3939991  56.5273905  84.7763538
  42.1071148  58.0130196  84.7365284  68.7501669  68.1613779  94.7325420
  68.8134670  67.3343372  94.2548084  69.5566368  68.2034731  95.2464104
  75.6947422  64.8047400  88.6964130  76.1363554  65.4653406  88.1627274
  75.8557224  63.9799023  88.2382011  57.4367952  47.5771475  85.2929306
  56.6799116  47.2637701  85.7880592  58.1921291  47.3192930  85.8213329
  60.7835054  47.2534800  71.3242531  60.9523153  46.3203096  71.4543390
  61.6128826  47.6794004  71.5409422  42.2063160  58.4986687  69.7377825
  41.7914629  57.7803183  69.2601824  43.0260849  58.6558867  69.2692757
  89.6347142   3.2988357  12.7889018  90.1003671   3.2480668  11.9541411
  89.9698150   2.5590228  13.2954745  31.0685468  68.2714224  79.1502666
  30.2325964  68.3376217  78.6887074  30.9750438  67.4971867  79.7052860
  32.5003862  69.1199303  70.4594755  32.2376466  68.4845114  69.7935629
  31.9260526  68.9385509  71.2034369  16.4223421  59.7583723  88.3037663
  15.7004392  59.8950148  88.9172935  16.8490756  58.9583015  88.6103916
  82.6156044  31.5632176  72.9162502  83.4605598  31.7972112  72.5321484
  82.6061440  32.0084357  73.7635517  62.1015453  55.0743151  82.2637272
  61.9631433  54.1585112  82.0221043  61.6896868  55.1600456  83.1235313
   8.8821156  23.0948448  28.1297640   9.4109947  23.7884568  28.5240035
   8.7154896  23.3985471  27.2374396  50.6824636  30.7383895  84.4264030
  51.3459110  31.3668370  84.7112370  50.3972816  31.0619450  83.5718822
  39.9641371  48.2209444  89.2213440  39.7062421  48.6780405  88.4208488
  39.2647171  48.4166670  89.8448372 106.7579425  26.6494703   0.2544550
 107.5849951  26.7933416   0.7143645 106.1443103  27.2553300   0.6699233
  73.7611383 109.5828782  32.9114298  72.9688829 110.1193248  32.8833251
  74.4599265 110.1727019  32.6285319  41.8867111  79.9365711  77.2772980
  41.4014053  80.0023460  78.0997229  42.7760124  79.7015095  77.5421047
  31.9215989  47.2166872  73.3193111  32.7790451  46.7916393  73.3379459
  32.0240402  47.9353666  72.6954174  62.0146513  51.5572357  33.2690263
  61.3396978  51.9112301  32.6899219  61.7664289  51.8633413  34.1413331
  34.9988062   1.3267278   0.0032286  34.2671187   1.0737991   0.5661635
  34.9978573   2.2836875   0.0247054 102.2313023  24.7863603  83.9073658
 103.1343365  25.0400162  84.0981674 101.9513321  25.3941154  83.2229042
  36.6309738  56.0519314  58.0024815  37.1251869  55.2617502  58.2206488
  36.0183406  56.1597681  58.7300014  40.5759335  54.1558409  75.2359915
  40.7609129  53.3248949  74.7983360  39.6296740  54.2685604  75.1458645
  44.6332836  58.3904266  71.7449999  45.3451824  58.4294653  71.1063242
  44.0679264  57.6848793  71.4306593   9.9900753   6.8827724   5.0947718
  10.8687575   7.0919275   4.7779135  10.1178820   6.6383647   6.0113768
 104.9958676 108.6817323   9.5599322 105.5195970 109.2745601  10.0989012
 105.3757733 108.7553464   8.6844401  51.5074539  63.0305672  70.2260256
  51.3104486  63.6303234  70.9455490  51.2686110  63.5166836  69.4368029
  54.1365623  20.5512547  64.8435307  54.2167473  20.9110475  63.9601564
  54.9596405  20.0843191  64.9875879  56.6244555  47.1624756  72.9924250
  57.5553656  47.3111057  73.1584120  56.3458443  47.9273510  72.4888659
  43.7614965  70.4628992  48.4026766  43.3512545  71.0749722  49.0136576
  44.5198917  70.9370232  48.0616903  62.8936720  48.1404543  79.7261429
  62.3211908  48.6863804  80.2650833  63.7795162  48.3859110  79.9930906
  35.7949805  47.6375055  69.3920946  36.1022472  46.7436504  69.5432234
  35.6828713  47.6950216  68.4432220  88.5169029  34.7300315  80.4425812
  87.8874016  34.7243285  81.1636448  88.0938339  35.2501559  79.7594118
  70.3750181  36.7180181  76.7661715  70.4467392  35.7838464  76.9621563
  71.0886717  37.1218300  77.2599983  47.2509289  54.4262123  93.5768318
  47.4273825  55.3574848  93.7103558  47.9342651  53.9789724  94.0760803
  57.9795933  62.8402138  75.0216532  57.7580881  62.0432138  74.5400333
  58.6055088  62.5523424  75.6861782  25.5104446  75.7657051  75.4397488
  24.7209287  75.3108501  75.7330084  25.3921986  76.6674471  75.7382727
  22.0986414  84.3808937  76.1882448  21.1988783  84.4070435  75.8627033
  22.1687913  85.1453495  76.7600155  54.9952030  45.5459309  74.7292233
  54.2601967  46.1422396  74.5863390  55.5837107  45.7103062  73.9924288
  17.1652109  18.0800819  17.9380469  16.5049011  17.6923847  18.5124354
  16.7706186  18.8989209  17.6379923  39.2587662  68.0485916  78.4955978
  39.6581078  68.2150650  79.3494368  39.9909997  67.7934790  77.9343653
  39.5238573   5.6637239   1.9487338  40.3475744   5.2199411   2.1506648
  38.8458855   5.0601720   2.2525553  63.5356092  63.4457207  74.2118692
  63.1197119  63.5908031  75.0616980  64.3578720  63.9332342  74.2612743
  85.4726046 109.3840276   1.4797740  85.8747214 108.6911355   2.0036368
  84.5791406 109.0782080   1.3234667  59.7315025  56.6356516  70.1849174
  59.4188261  56.6251040  71.0895443  60.6068039  56.2508297  70.2295399
  94.2280483  47.8450537  57.5451326  93.8771629  48.5320187  58.1118679
  95.1708889  48.0090332  57.5255871  53.6382198  42.9980612  88.7820053
  53.7724590  42.2810268  89.4017506  54.2679548  42.8298378  88.0810356
  48.8972092  60.0393772  77.0739174  48.6500502  59.2048216  76.6756010
  48.0670023  60.4292870  77.3477030  21.4839871  19.0272378  18.0955367
  22.3537285  18.6711263  18.2770876  20.9260304  18.2562207  17.9933505
  18.5225916  89.7138023  34.0766191  18.0002689  90.5008030  34.2316318
  19.3394184  89.8713398  34.5501232   0.1566345   7.7665233   0.5463366
   0.3952701   6.8454217   0.4421572   0.0863750   8.0984544  -0.3487058
  75.7542658 106.7358112  82.3607731  75.8801222 107.1594715  81.5117073
  75.0504923 107.2347927  82.7754402  82.3703480  82.6022720  83.8556385
  81.6564178  81.9648075  83.8425922  82.1879959  83.1812859  83.1155491
  88.0767727  94.0445328  35.3660369  88.0322933  93.8638878  34.4270897
  87.2320843  94.4442463  35.5733204   3.2539523   6.1503542  91.0068989
   3.2534278   5.4764403  91.6866589   3.7210811   5.7503355  90.2734089
  74.5584822  85.5707741  65.4023886  75.1148129  85.8371925  66.1343336
  74.1672993  84.7448540  65.6871176  67.7318048  74.8394251  81.2447548
  67.2212505  74.1449785  80.8284473  67.4576235  75.6396723  80.7968140
  73.2512617  80.6339645  63.1259012  72.9683018  81.5290928  63.3127308
  74.0014458  80.7371902  62.5404072  75.9991550  86.1797333  67.5884867
  75.9248161  85.4806900  68.2381392  76.9298935  86.4031601  67.5825071
  78.7649632  86.0961151  67.2838926  79.3188143  86.8708038  67.1872997
  79.1622972  85.4441261  66.7066002   9.0947688   0.0962580  82.9051685
   8.1763042   0.1797331  82.6488781   9.1084636   0.3412283  83.8303947
   7.7495445   8.8324393  94.5239925   7.4044002   9.5121230  95.1029015
   8.2422412   8.2515658  95.1037025  94.7257900  90.6465912  61.3672686
  95.3267384  90.4994011  62.0976353  95.2687836  91.0445213  60.6867933
 115.2706051  71.9376516  68.5015202 114.3422794  71.8018579  68.6912727
 115.6612873  72.1422625  69.3510723  84.7218990  83.4673882  68.6353779
  84.0929699  82.7480316  68.5787296  84.2681503  84.2136383  68.2436419
  69.4612408  86.6113186  89.4157124  70.3225803  86.9230652  89.1379738
  69.6434307  86.0309792  90.1548004  93.0197430 102.2009277  94.4535351
  93.6519432 101.5792179  94.0929317  92.8555298 102.8168678  93.7394810
  69.7092915  66.4412785  92.8999805  69.9254417  66.2276649  91.9923019
  70.1638365  65.7764244  93.4172726  92.0553112  69.8398161  93.8882732
  91.4571095  70.0819206  93.1813240  91.6938972  70.2672243  94.6647644
  18.6470092  16.2500990  91.4195251  17.9688991  16.7701853  91.8506813
  18.6444820  16.5574778  90.5130196   2.0661873  81.9160080  72.9499865
   1.6767163  81.3971901  73.6538076   2.8419060  82.3129559  73.3461189
  80.0133991  92.5208950  64.2636347  80.8483410  92.9877281  64.2979050
  79.3743038  93.1906796  64.0203667  73.3781052  56.6123390  71.9051409
  73.8280916  57.3371887  72.3391151  72.7568293  57.0362282  71.3130569
   7.9534561  44.4730520  11.3009791   7.6522476  44.7856664  12.1540789
   7.2043783  44.6042394  10.7196860  75.8570194 105.7269287  53.6023617
  76.6019154 105.4469299  54.1343021  76.2407684 105.9612656  52.7573395
  86.9121933  88.5147762  58.5224342  87.6785851  88.8909531  58.0895758
  86.6475773  87.7910519  57.9546070  58.8159639  12.0629453  16.1705355
  58.2654173  11.9512414  15.3955130  58.2298834  12.4361944  16.8288855
  99.2492867 101.6119480  94.8009109  99.5854187 100.9474754  95.4023457
  99.0715408 102.3704529  95.3570747  29.4980396  47.4472941  87.6337051
  29.9121440  46.9288481  88.3236027  28.9770854  48.0985487  88.1034946
  75.7189226  81.6351891  66.1987495  75.4657269  80.7217407  66.0655594
  76.5922165  81.5873909  66.5877295  11.9439662   0.2311457  52.7613735
  11.3368858   0.4986037  52.0713425  12.4464668   1.0217608  52.9579735
  53.0729771  94.6370602  88.5784435  52.6827335  94.5199490  87.7122879
  53.7109804  93.9272499  88.6516571  93.3435631  76.3641214  91.4495468
  93.3520126  75.8388090  92.2496700  93.3518410  77.2702742  91.7578506
  77.5371647  79.2923212  82.5552082  77.9292011  79.2856932  83.4284115
  77.3208857  80.2112007  82.3967361 116.0524464  93.6810207  79.5820045
 116.8124104  93.7592220  79.0053177 116.2162685  92.8848457  80.0874805
  57.7315235 102.4577236  89.6622181  57.8572989 103.4047127  89.6019745
  58.3410740 102.0938301  89.0201473 102.8134537  98.3531284  89.9704075
 102.8469658  97.8485012  90.7831001 102.5543880  97.7168274  89.3038940
  50.0025446  59.9173688   5.7839350  50.8310873  59.8219919   6.2536768
  49.7426874  60.8255433   5.9386115  35.4104579  17.6159514  53.9063072
  34.6607078  17.1061934  54.2133188  35.6873191  17.1747912  53.1032085
  91.1061192  95.6052589  65.4291201  91.7228031  94.9292278  65.1482153
  90.3369236  95.4729748  64.8749828  85.4675293  82.7256489  81.3966846
  85.5658531  82.2966290  80.5466843  86.1833668  83.3602905  81.4288807
  55.1479227  12.1124362   0.2389578  55.0297148  12.5883674  -0.5830808
  54.3171007  11.6564798   0.3733401 107.4745083  73.6511707  47.4178171
 107.2410965  72.9442930  46.8160868 108.4095955  73.7925673  47.2699928
  86.3239098  86.6518307  77.2317314  87.0900536  86.6779423  77.8049421
  86.2690449  85.7397175  76.9466400 108.6360741  89.4271088  74.0045357
 108.8100338  90.3563213  73.8543940 109.4568825  89.0837574  74.3575239
  82.8675461  89.1571426  74.2862320  83.4009171  88.6407566  74.8904562
  83.1037331  88.8296032  73.4183836 115.0856876  82.5858116  76.1827755
 114.4779396  82.0094872  75.7193899 115.4060745  83.1866550  75.5100441
  88.4150982  93.3109760  51.7431498  88.1021214  92.4143887  51.8631697
  87.8577423  93.8378906  52.3158169  17.7248157   4.2180670  46.7803860
  17.6924861   3.6564482  47.5548363  18.4941352   3.9160861  46.2974834
  21.3349498   0.7123316  86.2321091  21.7549098   1.3656939  85.6726551
  21.6810287   0.8881796  87.1070576  91.0498303 110.0814496  19.5748190
  91.3419455 109.6017848  18.7996916  91.5457744 109.6950589  20.2965979
  76.5427351  86.1945534  63.4729958  76.0538626  86.4076805  62.6781321
  75.8689880  85.9813881  64.1186476  87.5590229 109.7067261  67.2125626
  88.1135464 108.9471436  67.3907852  86.7020035 109.3342400  67.0051765
  98.8330364  91.0384274  78.5376167  98.6517143  91.5464592  77.7468777
  98.3026123  91.4550209  79.2168283  36.2601883  34.4501638  10.6426386
  36.9844515  33.9534139  10.2619700  35.4735167  33.9957570  10.3411536
  97.9094791  80.2653694  76.5352392  97.3940086  79.6855545  75.9745836
  97.8369045  81.1254406  76.1214256  56.6233253  98.8752651  92.5180912
  57.2104979  99.5969582  92.2930908  57.1221209  98.0860043  92.3071480
  87.6704216  85.9722996  85.1796627  88.2831383  85.2786160  85.4238319
  87.5530052  85.8667850  84.2355728  75.0374269  90.0268459  62.3162794
  75.1041269  90.0217056  63.2711411  75.1082468  89.1055870  62.0662785
  70.9316206  88.1027222  69.3146753  70.4187298  88.4230137  70.0566912
  71.5004444  87.4301243  69.6892166  95.1832104  94.3526745  63.6718130
  95.4380608  94.5099163  62.7626610  95.5360031  95.1015377  64.1524029
 109.5245266  90.9993839  58.3878088 109.5835209  90.0456810  58.3313417
 108.6051273  91.1936855  58.2056141  84.4325322  19.7438181  62.9605341
  83.7730187  20.3602923  62.6423645  84.1595191  19.5417346  63.8554430
  82.5735474  89.1551399  81.4956474  83.3145046  89.4170189  80.9491730
  82.9432487  88.5256958  82.1148014  95.9091091 108.3653259  59.6296883
  96.2467766 108.3897686  60.5250168  95.6324768 107.4577999  59.5027351
  28.6385215   5.8068980  57.8379631  28.9325870   5.8307017  56.9273663
  29.0287269   6.5850104  58.2360888  74.7159100  79.3883038  64.9445629
  74.4580221  78.4707117  64.8565245  74.2439365  79.8380470  64.2437029
 114.2157859   4.0880049  60.9381199 113.6632556   4.0578402  61.7191648
 114.9415559   3.4958209  61.1351395  61.1512804 106.2972450  76.8290138
  61.7514229 106.0420895  76.1283350  60.4137611 106.7057323  76.3757658
  86.2814236 101.4350796  58.8095808  86.6547394 102.2095299  59.2303991
  85.5693913 101.7763138  58.2684565  99.4956017  87.0474434  81.3152122
 100.2193546  87.1346092  81.9355392  99.7627735  86.3353920  80.7339764
 111.3246250  99.4654846  87.0362949 111.4427090 100.3797054  87.2941589
 112.0407867  99.0002728  87.4686432  72.5909328  94.3170452  84.3230629
  73.1992579  93.7669468  84.8165894  71.7533493  94.2125511  84.7744656
 108.5647774  85.4875946  38.8648391 108.2058811  85.2840328  39.7285438
 109.5130539  85.4945087  38.9950752 102.6023006 102.0510578  93.0943298
 102.7380943 102.9981232  93.1235123 101.6527557 101.9434452  93.1492233
  81.3519287  91.1894989  90.3902626  81.8386459  90.5452156  90.9043026
  81.6277122  91.0331059  89.4870949  94.5419025 110.3204155  53.9911699
  93.7720108 109.7990513  53.7638283  95.0355530 109.7672176  54.5965624
  92.0097446 105.2014542  91.7515373  91.4989090 106.0077763  91.8231201
  92.6490784 105.2591324  92.4615765 109.8391217   7.2267951  67.8773737
 110.1375836   6.9118727  68.7305880 110.6372804   7.5195445  67.4375200
  75.0822115  88.8981724  64.9546099  74.9854040  88.5734653  65.8498335
  74.5211267  88.3265591  64.4305134  78.5233498  97.4579048  55.9951639
  77.8743649  96.7590427  56.0766745  79.1845083  97.1026993  55.4010868
  32.2462428   7.0063532  39.9385548  32.4039329   7.7473868  40.5235672
  32.1652568   6.2527216  40.5231142  92.5462151 100.4164314  86.4537048
  92.6564980 101.2636185  86.0220337  93.0339241 100.4998398  87.2731018
  11.2159026   6.9648970  65.5303192  11.6051353   6.8761576  64.6603441
  10.3746188   6.5132273  65.4635191 115.6526917   0.9777964  91.0416889
 115.2225512   0.4603137  91.7224503 115.9240025   1.7806757  91.4866638
  30.5877269   5.6396330  28.5758805  29.6406043   5.6402529  28.7143826
  30.9585059   5.5804003  29.4563627  26.6149742  67.9635667   9.5484690
  27.0964176  67.2161912   9.9032454  26.5705378  67.7949285   8.6072974
  11.9123519  10.2055300  78.5007906  12.8269065  10.3344573  78.2494020
  11.9529212   9.6326388  79.2665434  48.9021778  93.2289600  26.7099428
  48.5507011  93.3356857  27.5938582  49.5715761  93.9090061  26.6346383
  80.3159428  87.5773525  83.8286018  79.8517179  87.7489853  83.0092907
  80.3303337  88.4227180  84.2773628  26.9112457   1.0336531  57.7085638
  27.4329913   1.7211569  58.1224966  27.2995437   0.2168120  58.0219650
  18.8966525  24.6178187  39.8780417  19.5691455  25.1476611  39.4499612
  19.3792117  24.0795458  40.5054379   5.9548629   5.8275164  63.2427454
   6.4333881   5.0007952  63.1811953   6.5468753   6.4758814  62.8614664
  68.7682772  90.8719921  70.6211472  68.7719965  91.6326046  70.0400496
  67.8406954  90.6923485  70.7746029   0.7510675   4.6261538  71.2756252
   0.0900138   3.9964140  70.9881067   0.2463449   5.3586234  71.6291428
  11.8418658   2.2756327  45.1262665  11.8261398   2.0487536  46.0560560
  11.6418327   3.2114542  45.1046658  52.4581099 110.0664520  95.6156635
  51.8846273 109.5366859  95.0618553  52.2794771 110.9689236  95.3513241
  70.2902412 109.1985321  38.8083220  69.8874378 109.8518372  38.2363248
  70.8552551 108.6881161  38.2282710 106.8449563  27.7416838  78.4843874
 107.2373027  26.9359816  78.1480265 105.9024066  27.5762690  78.4627724
 103.5370541 105.9679794  78.7539577 102.9452801 105.7838535  78.0244827
 103.0999660 105.5915737  79.5178318  86.9980049 105.2348995  88.7544537
  87.2220421 104.4645119  88.2324028  87.8366756 105.5447102  89.0963364
  77.8670979  97.9684162  95.3174496  77.3020077  97.9345131  94.5455933
  78.6748981  97.5349712  95.0421047  74.4435215  86.8403244  83.0656433
  75.3735399  86.9007301  83.2839394  74.4123840  86.2527180  82.3106766
 103.5492897 102.2179413  81.3008308 103.5709286 102.6169205  80.4310131
 102.8377914 102.6701736  81.7541409  78.8444567 101.2525082  66.9098902
  78.3585167 100.4431915  66.7514992  78.1863308 101.9442368  66.8419600
 113.3885384  89.8666668  38.5305166 113.7749863  89.7942924  39.4032431
 112.8085995  89.1082668  38.4617233  76.7253256  95.2639198  69.5975924
  76.0047626  95.3602600  68.9749050  77.5140047  95.2784443  69.0553713
  93.1238365  82.6396942  67.5656414  93.7211609  82.8655529  66.8525982
  92.5497532  81.9699097  67.1940899  60.1313842   5.6239165  47.0323753
  59.5103133   5.9793890  46.3966560  60.9886325   5.7484377  46.6251278
   7.3128761  21.0047472  31.1983204   6.9932998  20.1957072  30.7988691
   6.7941821  21.6961039  30.7869649  41.2059958  27.0478963  39.1563658
  40.3748257  26.7651986  39.5377783  41.5792162  26.2516069  38.7784056
 105.6959724 100.1998520  74.1250801 105.3921795  99.3666553  74.4852543
 104.9092293 100.7433891  74.0823317  13.5443080   5.1862086  52.6932573
  13.1039584   5.8614291  52.1771240  14.4718135   5.4189147  52.6505613
 102.9086781 104.9315834  85.3286648 102.6851559 104.0056896  85.2338123
 102.2843456 105.3877163  84.7644138  73.6585712  83.2113075  63.4340143
  73.1136084  83.9054394  63.0633020  73.7399387  83.4394741  64.3600559
  46.9874365  24.4397115   7.2178320  46.3102705  24.1789912   6.5935664
  47.0395834  23.7088489   7.8337435  64.6870024  41.3698148  19.6855788
  63.9119608  40.8101701  19.6371989  65.4137785  40.7933854  19.4494872
  74.0056801 109.7846031  77.9964828  74.2294359 109.9468327  77.0800495
  73.2603645 109.1851902  77.9585648  66.8202734 106.2321091  74.5564604
  66.8735886 107.1818733  74.6629286  66.9316959 106.0898399  73.6164713
  52.5154955  15.4426383  17.6720862  51.8227179  15.8724784  18.1736044
  53.0519278  15.0036525  18.3322100 105.0348854  99.6619511  43.1201220
 104.1653347  99.4532871  42.7786970 104.9772358 100.5825710  43.3757877
  34.4058860  13.6388815  67.9518604  34.0449203  13.8106764  67.0821285
  33.6839545  13.8257159  68.5519791  97.4700928  97.3394299  58.2860947
  97.3474121  96.8038559  59.0698957  97.0521736  96.8383026  57.5857735
  75.2264643 100.9223652  50.1474047  74.7969437 100.0669670  50.1533079
  75.3490400 101.1224270  49.2194033  83.7764645  84.9336338  81.3654613
  83.6936665  85.1893139  80.4467678  84.2771435  84.1181278  81.3429260
   3.4876788  12.3674620  88.4891891   3.2891906  12.8594435  87.6924515
   4.4350970  12.4543131  88.5945415  68.7046385  84.5120811  67.0648050
  68.6638308  84.8351574  66.1646986  68.9051199  83.5803318  66.9759893
  80.2204609  99.0984535  67.8946877  79.9811602  98.9160919  68.8033724
  79.9589396 100.0087643  67.7562141  29.8197330  15.7730521  75.0646782
  29.4962943  14.8795165  75.1795721  30.1904929  15.7819594  74.1822386
 104.2825031  91.2305546  37.9089308 104.9260330  90.8442879  37.3148847
 104.5681477  90.9586525  38.7811136  98.9213562  75.5311203  66.1695242
  99.8000813  75.5183220  66.5488863  98.3419800  75.3140545  66.8998909
  90.4369354  79.5325899  93.7409115  90.2935982  80.3265476  93.2258320
  89.8709869  78.8771057  93.3331394  52.3380453  59.5587110   7.2923998
  53.0098421  59.1109800   6.7781500  52.4231417  60.4800557   7.0472102
   2.6242412  19.6624506  43.6006641   2.4549545  20.0247611  42.7310085
   2.3490012  20.3517855  44.2050600  25.1862109  30.6997050  91.6039371
  24.9920142  31.4012469  92.2255230  24.3329013  30.3162516  91.4013004
 101.3468999  14.9074782  84.7860241 101.7081326  14.5784701  83.9629269
 101.3822526  14.1575659  85.3798389  15.2054752  20.0397242  68.3979511
  15.3797973  19.2616404  68.9275074  16.0697139  20.3284396  68.1047487
  86.5045643 110.4664135  85.6662178  85.9033966 110.2997398  86.3921928
  87.1938133 109.8104572  85.7705784  64.5190048 101.5738010  81.2749386
  65.2611446 102.0435047  80.8943748  64.2537308 102.1101570  82.0220566
 111.4503670  94.8506927  93.5224533 111.9622898  95.3688240  94.1435146
 111.5635014  93.9462280  93.8146305  82.8778458  83.7551212  76.0415220
  83.1295490  82.9446316  75.5988169  82.6240921  84.3463230  75.3327751
  73.6901140 106.2374592  73.9118338  73.8812828 105.4328251  73.4299040
  74.5501852 106.5882397  74.1430473  91.9241619  77.8894377  81.8578053
  91.6392422  78.4291458  81.1203957  91.1233139  77.7195549  82.3538017
  37.6428063  79.2003202  16.2886099  36.7855055  79.5632028  16.0659365
  38.2567103  79.6750402  15.7282500 114.7974110 109.6209621  94.6381378
 113.9654160 110.0019836  94.9189091 115.0487900 110.1340580  93.8701725
  81.0765743  70.9232712  95.1769161  81.7559719  70.6161022  94.5766735
  81.1992836  70.3970671  95.9670353  76.2582953  59.3493985   4.4089083
  77.0457918  58.8156366   4.5145850  75.9296496  59.1218614   3.5391669
  85.9739113  69.9536037  69.7856998  86.6520596  69.7114849  69.1550398
  85.2078724  70.1549292  69.2482185  88.3803368  93.0520916  65.3094530
  87.5527573  92.6455021  65.0524998  88.4680271  92.8489304  66.2407255
  15.7276023  12.5668658  85.0565338  15.3648914  13.0567587  85.7945538
  14.9847854  12.0739211  84.7080326  26.2609274  82.4375486   9.9736170
  26.7364914  81.6408395  10.2088408  26.6480763  83.1187391  10.5234484
  68.9758474  28.6830854   2.4199538  69.0110857  28.2253789   3.2598929
  69.4537623  29.4985151   2.5713019   3.9836544 102.3598671  40.4042101
   3.2501072 101.7917442  40.1688766   4.2779297 102.0315170  41.2538052
  95.7937145  91.8838120  46.9499350  96.5831757  92.3776436  47.1715403
  96.1048794  91.1744881  46.3875580 109.9794865 101.3525677  78.9507103
 109.6208668 100.5665874  79.3628359 109.7541237 101.2616253  78.0248737
  73.8421297  91.1015320  57.4710608  73.2541990  91.8527985  57.3925638
  73.2737303  90.3795624  57.7392340  63.7523348  62.2255754   3.8969378
  62.9188521  61.7550992   3.8827281  63.5121615  63.1423997   3.7627940
 101.3322639  96.6495037  68.9582348 101.9913101  96.2513828  68.3895540
 100.8965111  95.9068394  69.3763113  85.0826073  94.8421764  86.2379742
  85.6761837  95.0422382  86.9617653  85.1260757  95.6132317  85.6724548
  32.5369991   9.5998801  56.0673380  32.7488673   9.5889224  57.0007324
  31.7800582   9.0195597  55.9867191  83.1204128  96.5282631  83.5156918
  83.9779663  96.9098854  83.3280659  82.6853561  97.1771049  84.0688324
 103.3706188 100.3992844  57.0989418 102.7187061 100.8544731  57.6318884
 104.0926266 101.0226822  57.0194912  75.7891798  91.8158722  51.8725920
  76.4572811  91.1813545  52.1319342  75.3061152  91.9980049  52.6786375
  91.9431210  88.4924507  74.1002607  91.2538338  88.0448723  73.6095619
  92.0261765  89.3450356  73.6731386  74.1607523  93.6153221  53.4345245
  74.5212555  94.3940639  53.8585806  73.6821413  93.9543915  52.6780891
  82.6061440 104.5489788  64.7578621  82.3235035 104.7428608  63.8641310
  82.3175430 103.6491680  64.9104595  87.9244232  86.5382671  68.5978556
  88.4651852  87.3044682  68.7895107  88.3586597  86.1182976  67.8553629
 110.8683843 109.2772446   7.0108943 110.3546828 109.5360385   7.7759890
 111.7521924 109.1388903   7.3514514  55.9535963  42.6734304   4.7848658
  56.2535841  41.8015050   4.5280032  55.2970678  42.9041147   4.1276030
 114.9428338  20.2629794  54.7306108 115.1718825  19.4732131  55.2205563
 115.7853335  20.6518973  54.4957209  80.5383587  94.5965099  93.7183189
  81.4938927  94.5619392  93.7630081  80.3027248  93.9093304  93.0950165
 104.5085687   0.1023615  76.7026711 103.8188237  -0.1164495  76.0760880
 104.9120158   0.8945311  76.3478041  79.0586615 101.4602089  72.0139694
  79.0217686 100.5175877  71.8516922  78.4388494 101.6045952  72.7289677
 101.9588470  92.5234890  55.4519081 101.5336037  92.3542309  56.2925911
 101.6126823  91.8484497  54.8681927  80.9497279   3.3934916  67.0471239
  80.6984204   3.2907618  66.1292362  81.2349671   4.3045462  67.1168327
  94.7985286   3.4183825  77.4302578  94.9821633   3.0873908  76.5510798
  93.9487428   3.8516558  77.3504114  83.4965897  86.3063431  63.7791061
  82.7731419  86.0126305  64.3328094  83.6486244  85.5777550  63.1772089
  82.9735661  85.7415485  67.7076626  82.3652267  86.1622715  68.3152390
  82.5275707  85.7739449  66.8613386  79.8576021  79.5754623  32.0855927
  80.2079296  78.7113190  31.8693471  79.2481232  79.7717333  31.3740849
  38.4110672  69.1710519   1.2601904  38.0044920  68.6263227   1.9341330
  38.6479170  68.5561609   0.5658965  41.4825500  13.0211771  52.5166082
  41.9479907  13.2508124  51.7123270  42.1252597  13.1579054  53.2126379
  92.0119256  30.1492537  59.2152357  91.8986386  30.3953303  58.2971668
  92.9330033  29.8980082  59.2839479  91.6459751  98.8597298  63.3028603
  91.9823360  99.3011761  62.5229740  90.9992218  98.2392979  62.9666996
  96.8003082 105.2687168  77.4263382  97.2972012 104.4996071  77.7052641
  95.9562206 104.9182987  77.1418285 110.5116367 104.2328930  79.6158600
 110.7069778 103.9653111  80.5138969 110.1181221 103.4577465  79.2152023
  63.5881090 101.8140125  91.9595623  62.9007387 101.3635159  91.4688301
  63.7299728 101.2657928  92.7312946  10.5192912  11.7594756  83.1485939
  11.0227740  12.0775927  82.3992348   9.6929515  12.2404612  83.1035137
  12.1097816  31.1572302  70.1426601  11.6970981  30.5359591  69.5427084
  13.0336345  30.9068430  70.1485920   8.5135139  23.2357825  67.1387815
   9.3957961  23.3917464  67.4756527   8.0076659  23.9935816  67.4322224
 114.6309728  17.3571337  52.6986074 115.0821227  17.0433463  51.9148779
 114.7600192  18.3055056  52.6857138 101.8284607 100.0599670  72.2693110
 100.9934807  99.6773720  71.9997549 102.4758053  99.3813801  72.0777464
  82.5581551  90.5098152  87.6953983  82.9633045  91.1281109  87.0872879
  81.9484425  90.0072098  87.1551514 109.9661160  77.4629831  85.1090622
 110.5034351  78.1675720  84.7470188 109.2391205  77.9130840  85.5393219
   3.1246895 100.0361824  66.4266253   2.7999539 100.2006912  67.3119020
   4.0031761  99.6788406  66.5563011  27.0801098  64.2333173   8.0253176
  26.2874348  63.7512445   8.2609229  27.5943930  63.6115789   7.5103621
 116.5379304  16.1672057  51.0275984 117.0462436  15.5845965  50.4633188
 117.1621245  16.4638747  51.6898632  64.1180957  19.4316901  82.9640865
  64.9942744  19.7042311  83.2365990  64.0968383  18.4897746  83.1331539
  74.9826384 105.5305862  56.2515068  75.4157019 105.5893707  55.3998995
  75.6324244 105.1212978  56.8229008  54.4513095  28.7443102  27.2095060
  54.2692626  28.4620989  28.1058598  54.3915427  29.6990908  27.2422028
 103.3323574  93.8976479  50.9000397 103.8552952  93.0962086  50.8786392
 103.7841034  94.4944096  50.3033495  79.6317959 104.4471931  61.0171223
  79.9142313 104.1659164  60.1468658  79.1031313 105.2287960  60.8563662
  81.9944477 103.7303162  84.0511513  81.1359215 103.5864925  83.6530590
  81.8131351 103.8159561  84.9871159  18.3375991   2.9599799  69.8545218
  19.0895427   2.6716174  69.3371630  18.6819518   3.6616934  70.4070282
  19.7931255   9.3021716  88.3443642  20.2761996   8.7469901  87.7322865
  19.9114764  10.1900805  88.0069542  46.3461459  14.4760455  57.9162598
  46.8257011  15.1468695  57.4302006  45.7375777  14.1059817  57.2767830
  98.6536772  71.7712735   6.7479662  99.1420729  71.0784864   7.1926550
  98.7041456  72.5195550   7.3427348  90.7854652  90.8697414  76.1461067
  90.7929993  90.8940315  75.1892424  90.5209446  89.9752426  76.3609123
  98.5223311  17.4691428  87.5845337  98.9817685  17.2978343  86.7624569
  98.1630391  16.6194190  87.8396797 112.6791209   2.2796000  72.9871130
 113.2766074   2.8379668  72.4896479 112.3384494   1.6593207  72.3425770
  31.8669284  10.2685965  92.7713871  32.3417056  11.0943831  92.6770973
  32.2182620   9.7098196  92.0781612  12.0203174  16.7047347  71.5598202
  12.8229583  16.7537154  72.0790529  11.8238223  15.7692374  71.5102673
  32.3224319   5.8379591  67.2750807  32.1362460   6.3969077  68.0294943
  31.5386546   5.2970065  67.1785545   6.7039359  40.0528849  88.1886387
   7.1347106  39.2382468  88.4475327   5.7685531  39.8581828  88.2468224
  14.9692214   6.6686858  34.3791318  14.3034232   5.9932841  34.5086455
  15.4764140   6.3638724  33.6267519  23.4989703  12.4761046  49.1982889
  24.2055286  12.2071875  48.6111832  22.6985324  12.1993960  48.7522316
  94.2708558  16.0304965  59.7247934  93.9166039  16.3712538  58.9034367
  93.6172027  15.3982676  60.0235462  79.2611647  91.5270519  88.0364990
  79.6995068  92.3142433  87.7133560  79.4258547  91.5311623  88.9794159
  12.1952957 109.1414547  77.5558186  11.8732495 109.9323654  77.1234035
  12.1031231 108.4536171  76.8965673  66.8255997 107.0986366  53.0123281
  66.1546850 106.7818356  53.6170959  66.6945076 106.5820599  52.2172117
   9.5204890   6.2991370  61.9848680   8.8790477   5.5888403  61.9683599
  10.3491748   5.8686675  62.1951342 116.8692398  67.1943045  90.1098919
 117.6211262  67.2682428  89.5221519 116.1277771  67.5053549  89.5905495
 111.9071549   9.9662722  71.5320158 112.3784131  10.3700007  70.8032179
 111.2902421  10.6389750  71.8203306 110.5956191  24.8013152  89.4136143
 109.6886462  24.9513472  89.1469288 110.8102340  25.5528773  89.9661922
  89.0969181 103.4920597  46.0555315  88.8089275 103.5937881  46.9626951
  88.6719608 102.6875782  45.7581186  99.7438908 104.8663139  34.8082805
 100.2546501 104.0641499  34.9173212  99.8038292 105.0632095  33.8734698
  98.7721252  97.4481773  85.3374481  98.9094067  96.5764332  84.9666977
  98.3288479  97.2871017  86.1703968  54.0959323  15.7664145  77.6653624
  53.9529575  14.8469103  77.4410677  54.4582141  16.1537779  76.8685341
  39.9318726  47.0729017   3.2806353  39.0718586  46.6641950   3.1828074
  39.7509272  48.0128049   3.2881503  94.9625015 102.7605343  79.1335773
  95.8950615 102.7450943  78.9183331  94.6940327 101.8423271  79.1014194
  20.8621467   3.5774554  68.7053776  21.0820449   2.7267779  69.0851307
  21.4228786   4.1990889  69.1694689  93.9460850 104.3798542  47.0126486
  93.3035755 104.1988659  47.6986980  94.6496677 103.7505627  47.1713829
  92.0915508  93.9132977  77.0640516  91.4025784  93.6217308  76.4669418
  92.7334595  93.2033062  77.0540285  59.0298922  62.4855851  32.2869830
  59.9321444  62.1676778  32.3202185  58.9583666  62.9146241  31.4343218
  80.3976631  88.5411835  67.5801325  80.7008553  88.9449120  68.3933401
  80.5172634  89.2204475  66.9163990   2.7576775  84.6327877  34.0348458
   3.6786694  84.7040939  34.2856932   2.4992317  83.7560368  34.3190026
  64.9575806 106.0018253  62.1977425  65.7511806 106.2118149  61.7054701
  64.9789667 106.5931129  62.9501772 110.2047634  80.5541039  78.7508774
 110.3282452  80.3315926  79.6736336 109.3975163  81.0682106  78.7344122
 111.9175339  81.0687447  58.3219528 112.4920940  81.6557789  58.8133812
 112.3181057  80.2048302  58.4190702  77.4022926  21.3797797  68.4579945
  76.8568481  21.4864768  67.6786852  77.4196208  20.4349936  68.6106968
  76.5183067  91.3471508  57.4927855  76.6479921  91.7514324  58.3506727
  75.5820084  91.1510277  57.4595118 114.9235153  97.6648140  68.8863373
 115.5970192  97.9838467  68.2856321 115.0684166  96.7195892  68.9284611
  97.4022168  27.1217001  67.2828960  97.8641719  27.4247778  68.0645466
  97.7240962  27.6865519  66.5803528  30.1831324  92.3557996   9.0567164
  30.2026255  92.8981828   8.2682566  30.7970459  92.7812528   9.6553282
  27.8645004   4.8451746  29.1013932  27.3652328   4.9574889  29.9103117
  27.5036586   5.5005110  28.5042739  93.1884956  87.9649353  51.6609764
  92.4267292  87.6152706  51.1987257  93.8715172  87.3075199  51.5286446
  59.8268778  74.1052484   4.5982604  60.0140936  74.1335630   3.6599688
  60.6888849  74.0907144   5.0141482  94.9859428  83.2696915  95.3191376
  95.0120544  83.3499432  94.3656635  94.6314430  82.3945427  95.4762173
  24.2046226   6.7394579  44.2644167  24.9934161   6.4289797  44.7089863
  23.4935249   6.2326563  44.6564722 102.9651356  82.3367023  31.9458294
 102.1111393  82.1476746  31.5570068 102.7608299  82.7009678  32.8071094
 114.7204590 109.9705791  42.4617147 114.3771935 109.6838093  41.6154528
 115.5569839 110.3861332  42.2524881  32.0762313   3.4641207  71.6270971
  32.9021800   3.7207354  71.2169886  31.6804565   2.8524149  71.0062838
  59.1496146   8.1259573  68.8661098  59.4314349   8.9341582  68.4376001
  59.5386375   8.1697596  69.7395945 115.2541703  10.4597414  81.5182781
 115.4474324   9.5592726  81.2574291 114.6246785  10.3719080  82.2340012
  75.1812887  99.4303608  89.1722107  75.1019382  98.6149216  88.6772442
  74.7435808 100.0846481  88.6276436  95.3691196 108.4662628  72.0674992
  96.2198830 108.0715466  72.2589016  95.0378990 108.7468719  72.9205990
  48.4656966   2.0419920  73.0539942  48.1098331   2.4767054  73.8289833
  49.3599857   1.8064250  73.3009529  67.9999304 103.0231762  45.3026152
  67.8178549 103.7153721  44.6670485  68.7440014 102.5480461  44.9327040
  89.1615677 100.3010654  73.4748888  89.6771049 100.9308529  73.9786863
  89.6823788 100.1401234  72.6880646  26.9592345   3.6238326  71.3279867
  26.4646304   3.6372412  70.5085802  27.8010810   3.2334364  71.0932350
  99.2990685  90.5926800  61.9626284  98.9187050  89.8347282  62.4065590
 100.1775742  90.3072739  61.7116308   0.0890268   3.3869017  61.6784096
   0.7550014   3.5675181  62.3417997   0.4597963   3.7326277  60.8664799
  56.7491306   3.7503851  39.3588352  57.2930873   2.9665411  39.4358516
  57.2691787   4.3513430  38.8253260   6.0696758  18.1843317  27.4192977
   6.9777740  18.3538569  27.1686077   5.8123458  18.9561594  27.9235792
 114.1199589 106.3041782  49.7839069 114.0525913 106.2680721  48.8297653
 114.2914295 105.3997612  50.0463009  10.3621734  11.8586958  45.7240391
   9.9455608  11.7985571  44.8643541   9.9907363  12.6493205  46.1154175
  18.9919341  34.3338240  76.3819218  18.8007415  35.2707423  76.3387918
  18.6541904  33.9822901  75.5581617 111.0752744  17.1562899  67.1302128
 110.2839345  16.6871489  67.3946428 111.7291278  16.4692439  67.0010376
  73.5981798  96.7168999  83.3371544  73.3738089  95.8537483  83.6848068
  73.6183882  96.5949535  82.3879719   3.8242782  12.7317847  85.3628445
   4.4586910  13.4281863  85.5324650   4.3547881  11.9392622  85.2808762
  60.7566833 101.6352177  73.9717770  59.8241186 101.8247604  74.0748549
  61.1930847 102.4627686  74.1741037  31.1187804  28.8738097  76.1843204
  31.4714778  27.9889811  76.0899210  31.5075839  29.3651045  75.4606533
  98.9395350  33.1688536  80.7844448  98.7505120  33.8560809  80.1455212
  99.8071689  32.8467406  80.5401134  25.9343369  63.5635900   0.7556681
  25.4321987  62.8230905   0.4154353  26.7556173  63.5419511   0.2644782
  41.5915168  11.1197031  60.7446384  41.2335265  11.9983901  60.6182528
  41.7960990  10.8149851  59.8605967  88.8675213 104.7304440  58.3195734
  88.1490421 104.3207836  58.8014460  88.4351349 105.3007889  57.6839828
  25.7967723   1.3495673  72.3208332  25.5026115   1.0204066  71.4715099
  26.1007465   2.2391737  72.1407080   1.7959446 106.7610550  62.3044634
   0.8437008 106.6649532  62.3192930   2.1283669 105.8744717  62.4447966
   5.9657539  13.0443514  83.0505753   5.0599254  13.2836092  82.8544426
   5.8939231  12.2595252  83.5938358  42.0448668  53.4396314   0.2295069
  41.7980177  54.1821527   0.7808451  41.7096502  52.6735544   0.6953196
  99.7472000  69.9103308  73.2972145  99.5700455  70.1920509  72.3997259
 100.6037998  69.4857454  73.2502985  10.0356448   1.6944922  90.4742622
   9.4468845   2.1593512  89.8797035  10.5238403   1.0961855  89.9086380
  85.9607506  96.5640163  84.2161465  85.9462452  95.7706165  83.6808586
  86.8214703  96.9487953  84.0507984 105.5439281  93.2163620  81.4105892
 105.5271816  93.7648869  82.1948528 104.7983360  93.5178089  80.8915043
   3.4493679 100.1521111  90.7022667   4.4059128 100.1855946  90.6905556
   3.2409138  99.2236996  90.5982208  28.6200411  90.0313806  16.8750243
  29.1852839  89.7914838  17.6093153  28.4432966  90.9633302  17.0033316
 116.2962455  24.6886958  66.2196636 115.3544969  24.8555315  66.2584400
 116.5266055  24.8283232  65.3011465   5.7504714  37.3364295  47.9888105
   6.5826762  37.2901762  47.5181532   5.3538097  36.4749754  47.8592205
  48.4180988  22.0626296  95.3008938  47.8217948  22.6847781  94.8842621
  48.0527747  21.2032164  95.0907040  88.7410450 105.0764751  69.3797445
  87.8078365 104.9403954  69.2159414  88.9612007 104.4365311  70.0566816
  28.2078708   5.4116095  25.4488444  28.9236987   4.7781981  25.3977799
  27.8056205   5.3889693  24.5805621   6.0782874  30.6163348  53.7282896
   5.5176509  30.3602351  54.4606304   5.6840099  31.4225043  53.3953190
  56.2280161  48.1898259  10.1355700  55.4465849  47.8030824  10.5305628
  56.0566408  48.1673478   9.1941027 109.9542540  16.7242850  59.3206644
 109.5907849  17.1876849  60.0752354 109.3249434  16.0252608  59.1429901
 106.3353443  70.2127743  78.9887428 105.7699108  70.9846973  79.0143347
 105.8070469  69.5431995  78.5542345 115.4126644  91.4825630  66.9987154
 114.6508503  91.8290424  67.4632788 115.8485317  92.2567749  66.6425562
 109.5836067 101.5432167  84.1386604 109.3865013 102.3810768  83.7198830
 109.2348766 100.8863544  83.5360432   0.7767308   3.2516612  58.3229160
   0.0259412   2.7012099  58.5455179   0.4237331   3.9056719  57.7196741
  15.7252086  14.3982733  65.3141785  16.4239467  14.7474612  64.7609568
  14.9593604  14.3659152  64.7408819 101.3474274  92.2372723  40.6265116
 100.8789062  91.9175625  41.3975525 101.0387611  93.1363773  40.5144167
  54.6397001  77.6697873  32.0482878  54.1736967  77.4287652  32.8488974
  55.5506880  77.4317407  32.2205119  11.9770569  94.0886688  60.0781155
  11.1286015  94.1934872  59.6475792  12.6182885  94.2753315  59.3923950
  72.7404308 108.5970402  69.0946913  73.3018732 109.3198490  68.8144112
  73.0985165 108.3299828  69.9412632  33.2258857   8.6400641  90.9451485
  32.9200137   7.7772654  90.6654072  33.8258136   8.4585417  91.6685867
  93.9509296  97.3977661  52.6082468  94.6163082  97.0948410  53.2261086
  93.1937790  96.8372059  52.7777338 110.1907730  74.0838432  47.4544954
 110.3760242  73.3859873  46.8260765 110.7501602  74.8097420  47.1781158
 114.0651053  16.4340914  75.0718927 113.2959765  16.7942751  75.5134106
 114.8087710  16.8435324  75.5141068  79.3647814 102.9506111  32.6540422
  79.8761749 103.7408352  32.8279829  79.9864864 102.3479939  32.2459149
   2.7731860   7.6690997  81.0517597   2.4670470   7.8467978  81.9410992
   2.6178706   6.7327822  80.9275913  12.1279491   8.5071791  59.3435335
  11.4690841   7.8517474  59.1143513  12.9216350   7.9997672  59.5132923
 116.4091796  19.0650404  63.4167910 115.5947751  18.9127863  62.9374218
 116.8506545  18.2157362  63.4147739  11.9405139  15.6290186  68.4928274
  12.8324569  15.7389487  68.1633043  11.9805206  15.9350050  69.3989229
  97.7520180  80.0004292  57.0026445  97.1141434  80.6516075  57.2947168
  98.6014938  80.3785038  57.2299957  69.1186411  51.8306970   8.1302790
  68.3630259  51.5096616   8.6224513  69.2306215  51.1961126   7.4224715
  51.8075418  91.9105530  73.2729912  51.1409807  91.5878963  73.8794661
  52.0157623  91.1558437  72.7222824  44.8820729  95.4997158  56.4102602
  44.2227406  94.8861980  56.7344618  44.5135731  96.3645840  56.5903330
  30.1019508  85.1486825   3.6882452  29.6629793  85.8305406   4.1967730
  30.4977257  85.6159448   2.9525332  26.6726363  14.1887034  57.2756243
  26.7092670  13.4643877  56.6509199  26.7589343  14.9747599  56.7362785
   7.7257980  10.1858080  74.9055386   7.5768913   9.8670329  75.7957315
   8.5389961   9.7613944  74.6320391  83.6356544 106.4161682  56.3745928
  82.9757690 106.3765144  55.6823349  84.1607952 107.1874237  56.1610174
 111.7211646   2.4188937  37.3350906 112.1707219   1.6024817  37.5532818
 111.9463557   3.0146731  38.0496287  74.7006321 107.7214813  58.2599115
  74.9853325 107.1204376  57.5714922  74.2354012 107.1660709  58.8854551
  86.2870312 101.1996174  41.9983053  86.4097977 102.0082474  42.4955750
  86.3250446 101.4738083  41.0820055  22.4410880   3.4572638  75.5310011
  22.7932704   3.7972296  76.3535738  21.8385280   2.7628268  75.7972765
  98.1883907  97.1269417  73.1559563  97.5702953  96.4146996  73.3199692
  97.9156017  97.8231525  73.7535381  66.5661669  13.7945700  84.8381138
  66.2229633  13.3914602  85.6355762  66.4840746  14.7358882  84.9911213
 108.8393413  93.9266931  84.8345280 108.1788074  94.5358037  84.5045185
 108.3988392  93.4559511  85.5420589  99.0409916  15.1006842  75.6664515
  99.7490555  15.1165998  75.0225401  98.2472330  14.9746859  75.1465464
  91.5580594 103.3300017  63.5324717  91.1312949 103.3838593  64.3875742
  92.3527788 102.8212075  63.6930323  91.0768163 106.1734744  64.1859818
  91.3329064 105.4537581  63.6092138  91.8787658 106.6824829  64.3043804
 100.9106170  81.7929970  19.0551066 101.4306580  82.5706803  18.8526344
 101.5152823  81.0614668  18.9307082  15.3133136  78.0894147  79.0526009
  15.4603225  77.1436607  79.0655851  14.5863563  78.2271611  79.6598816
  29.0799999  26.8108606  46.7112970  29.3188882  27.0828366  45.8251858
  29.6199346  26.0383654  46.8784809  89.3674373 110.0988726  26.0324240
  89.7294890 109.3825377  25.5108738  88.5226321 110.2889442  25.6244922
  31.4696532 108.3115744  50.1304245  32.4096805 108.4441892  50.2528715
  31.2449819 108.8655866  49.3828773  14.9446136 102.5332068  71.1199474
  15.2467805 101.6638791  70.8568954  14.1388875 102.3686438  71.6098022
  98.8037359 109.4654939  79.7478485  98.0607259 109.1737170  79.2196131
  98.5282051 110.3107915  80.1025105  51.5964985   8.6047107  48.4401131
  52.3731422   8.9555079  48.8760042  51.9324636   8.2029128  47.6389170
   6.6090661  88.3008682  22.1067286   5.9786922  87.5818335  22.0637035
   7.3906594  87.9110633  22.4983907 115.9462678 101.1942421  44.1058016
 116.7585027 101.5070390  44.5041275 116.2131488 100.8575570  43.2504368
 116.8398034  88.9684998  60.8551502 117.2944199  88.9631950  60.0128174
 115.9593093  89.2830264  60.6501341 115.4617106  84.6173417  44.4982910
 116.0127174  85.2908598  44.0995455 114.6647894  84.6150004  43.9680624
  23.7968135   9.8861659  68.7238503  24.0785670  10.0465310  69.6244764
  23.8587809   8.9367503  68.6189604  53.5153866   4.5979232  68.1562424
  54.1514683   5.3123802  68.1906366  52.7013969   4.9862990  68.4768820
   0.1906878 109.2222744  29.3179655   0.6809193 109.5181589  30.0850105
  -0.2120155 108.3989604  29.5940423  71.4264863  99.0055632  95.7271004
  70.4964422  99.0552889  95.5062485  71.8691074  98.9222776  94.8824787
 115.3830635 105.3382220  77.9643154 116.1864650 105.5296834  77.4804544
 114.7740614 105.0164585  77.2996235  57.6481152  22.4049902  74.7068310
  56.8126822  22.6456547  75.1072836  58.1982803  22.1373010  75.4429626
  88.6226713 109.2673923  88.7512684  89.5360290 109.5025198  88.5877895
  88.3687531 108.7481872  87.9882526  97.9418504 104.7651952  53.8977432
  98.8437139 104.5055019  54.0859795  97.4433958 104.4690250  54.6593618
  63.5335480 101.4027082  73.3001709  63.9359652 101.9616716  73.9648914
  62.5935566 101.5565001  73.3950138   8.2177377   8.9341319  77.4348354
   8.0310416   8.3674777  78.1833553   9.1627324   9.0809965  77.4754333
  44.5523548  14.7363174  70.3560352  44.0051699  14.6527231  71.1369562
  45.1000643  15.5022120  70.5282211  92.5526296  91.6715514  88.0417442
  91.7664170  92.2174322  88.0309296  93.1962477  92.1685516  87.5367832
  32.0365143  11.0224402  79.3048954  32.7835250  11.1519957  78.7205791
  32.4072576  11.0852253  80.1851463  29.3430591  28.4782791  40.0789785
  29.7624803  27.6391292  39.8888564  28.4149480  28.2654595  40.1767015
  97.3766314 100.7736676  61.4987850  98.1275641 100.3427928  61.0905218
  97.4127805 101.6742193  61.1764002  11.9148839  25.2846146  90.3798294
  12.8669298  25.3710818  90.3312016  11.5829313  25.9479094  89.7747803
  57.1069050  24.5355248  62.9357195  56.2716293  24.1985464  62.6116943
  57.0118046  25.4872656  62.8986216  85.8429574  83.5815846  46.6012621
  85.9187114  83.2739793  45.6980038  86.0270911  82.8079354  47.1339846
 101.6732919  86.7284786  61.7112637 101.5965211  86.6577398  60.7597733
 101.2370860  85.9448158  62.0456743  33.0391288  18.3686864  57.1353674
  33.8682723  18.0786264  56.7550802  32.5029588  17.5766563  57.1733236
  25.4746032  31.6396141  52.3216152  25.8197498  31.1375737  53.0598974
  25.7834387  32.5327134  52.4740171 112.8251278 109.1065910  62.7149391
 112.2109639 108.3935287  62.5400782 113.1586158 109.3524706  61.8520594
  24.3163043  84.1711794  95.2017593  25.2673751  84.2732274  95.1659107
  24.1463309  83.3479010  94.7439957  22.8607488   9.9720442  87.6947403
  22.2914648   9.6175385  88.3777237  23.6341882  10.2830458  88.1651688
  93.8396751 104.5935481  69.5775223  93.7418019 105.4614638  69.9691534
  94.6037137 104.2180901  70.0151396 107.4240863 100.8183335  76.9226074
 106.6886579 101.2000757  76.4433908 107.0676100 100.0199043  77.3120546
 100.9923064  63.9584934  56.6280985 100.6597006  63.0868017  56.8420219
 100.3746950  64.5594274  57.0448256  79.4535112  25.6191254  56.2611198
  79.2776871  25.2139831  57.1103430  78.8101625  26.3247514  56.1945915
  72.1159410  17.6525378  70.1807070  72.2333574  18.5989356  70.0983906
  71.5943050  17.5441790  70.9759378   2.7141553  92.9753005  47.7963734
   3.2254726  93.5271250  47.2045279   1.8697959  92.8716051  47.3575783
   2.8527668   6.3616550  70.7465410   2.3292218   5.5864418  70.9494638
   2.2159648   7.0072281  70.4400301  39.3120509 100.4674607  53.2912302
  40.0334245 100.7628201  52.7356911  39.7318059 100.2098631  54.1120100
  40.8371067   2.5177070  62.2816610  40.3742456   2.3722985  61.4565277
  41.7372465   2.2459093  62.1024704  24.5183778  14.9103236  19.0665686
  23.9836478  14.1165221  19.0798640  24.9914026  14.8665738  18.2355666
  99.1130983  94.7385668  84.3144512  98.2368910  95.0040435  84.0351391
  98.9744031  94.3008815  85.1543427  25.0666380   3.4232947  95.4480839
  24.5409012   4.1857409  95.6899643  24.4238114   2.7435806  95.2456093
  12.0713222  12.3558581  56.7635012  12.9761219  12.6678026  56.7796469
  11.9583440  11.9052994  57.6004410  30.7648593  88.2494699  48.2855225
  31.0850030  89.1261446  48.4980822  30.2600461  87.9857766  49.0548468
  33.4234262   5.1963609  63.2164383  32.9718113   5.3680813  62.3901272
  34.1117597   5.8603561  63.2556725  43.3803558   6.9684708  45.6620407
  43.5817575   6.0943222  45.9960032  43.6359644   7.5600338  46.3698149
 115.6106889  87.1875845  54.9659586 115.9110390  87.5594508  54.1366577
 114.7187506  87.5195753  55.0682402  29.6759272  13.1278419  52.7975988
  29.5672703  13.2561779  51.8552876  30.6237984  13.0979431  52.9275274
 102.5940048  95.3202211  54.9223995 103.3912050  95.3458988  54.3932056
 102.5315511  94.4117795  55.2174616  18.9027673  87.3955904  64.1466236
  18.2446366  86.7253839  63.9624405  18.6051971  88.1638085  63.6592531
  11.1798125  73.3174263  43.1298542  10.8813840  72.8464829  42.3517895
  10.7622224  74.1762744  43.0648327  71.4704466  11.0534751  85.2327442
  71.8226194  11.9431424  85.2062798  72.1487236  10.5151534  84.8248482
  15.6186152   1.2754142  82.8587341  16.3142347   1.5059447  82.2429466
  16.0748196   1.1062274  83.6830425  18.3974439 102.9699021  35.8920312
  17.7789622 103.6363011  36.1914062  18.2305747 102.2165429  36.4584565
  17.1879005   0.1715530  75.4929781  16.4615023  -0.3867824  75.2157784
  17.0715189   0.9807594  74.9951124  30.4858160   9.4305247  49.5303965
  29.9753761  10.1044202  49.0814543  29.9393201   8.6459923  49.4847822
  32.0273185  10.6707692  51.4878511  31.4114857  10.2382076  50.8963490
  32.3842549  11.3952148  50.9740353   6.8292075 105.4936494  40.0655937
   6.3288098 106.2619074  40.3405762   7.3561078 105.2644139  40.8311367
  10.6228817  40.4592991  52.8810596   9.6934825  40.2821398  52.7359247
  10.6443262  40.9867573  53.6795330   2.2005810  25.0348830  62.2652483
   1.4483503  24.6803164  62.7392340   1.8177158  25.4962301  61.5190506
  76.5504425  92.1586405  19.5929122  76.0686622  91.4780365  20.0629115
  75.9210035  92.8730153  19.4943893  49.9545527   9.0815181  77.9607296
  49.6564579   9.7328079  78.5957050  49.9321795   8.2527846  78.4391975
  70.2132082  13.8785064  83.5821247  70.0160980  14.8146987  83.6124992
  70.5838203  13.6837161  84.4429016  21.7409015   1.8366727  60.0603819
  20.8256412   1.5638238  59.9964809  21.9028187   2.3230836  59.2520380
  18.6802894  99.0788495  75.3020000  19.1805059  98.4590458  74.7710943
  17.7704650  98.9395379  75.0392389   6.8582684  15.1914883  47.7075243
   5.9750068  15.4400539  47.4349546   7.1402264  15.9023499  48.2832050
  24.4507122  23.2369733  44.2391109  24.9835920  23.5326815  44.9772358
  24.5446587  23.9282751  43.5837412  71.7536736   3.9935026  44.1527128
  71.1784267   3.9170712  44.9139452  72.6133013   4.1965806  44.5215321
  29.3416291 102.0136069  34.8645663  29.0300685 102.3374002  35.7097387
  28.5610753 101.6534435  34.4435501  38.5254002   3.0472928  41.9331408
  38.4904432   2.1188658  41.7028522  39.4580722   3.2622284  41.9205713
   3.2812333  17.2830772  64.0028763   4.2377564  17.2799015  64.0387297
   3.0215943  16.4858878  64.4647312  28.2795525  15.8498156  62.6844597
  27.4594736  15.7327878  63.1640530  28.1283522  15.4195452  61.8428898
   4.4236022 101.7246889  53.9955235   4.2774898 102.0556735  54.8817158
   3.5555583 101.4571266  53.6936331  47.7981138   0.6014910  47.8269053
  48.3678246   0.9618321  48.5064745  48.3837318   0.4303536  47.0893431
  20.2857542  46.1176109  46.9337893  19.8176765  46.9117641  46.6759968
  19.6387231  45.4180861  46.8429804   6.2094146 108.3231813  35.1524615
   6.5763169 107.9102921  35.9342122   5.8733588 109.1645589  35.4613018
  96.1874151 107.5821145  93.5671425  97.0434164 107.5625428  93.1392288
  95.9646808 108.5118177  93.6148262  14.5813399  90.8692872  90.7722282
  15.2096969  91.5775680  90.9126949  14.9999267  90.0983058  91.1551189
  27.2980785  21.8887854  54.9523973  27.3913980  21.5809751  54.0508604
  26.8234277  22.7164006  54.8749971 110.1785766  68.6500322  15.4329967
 111.0010134  68.4316074  15.8713126 110.1324426  69.6053039  15.4725492
  32.8737617  17.5376332  92.5507164  32.5578356  17.0290840  91.8038654
  33.6302257  17.0468628  92.8718758  13.4294063  74.4918047  39.1570711
  13.4794551  73.8553249  38.4438944  13.4942084  73.9647423  39.9534631
  29.8487186  30.9330177  47.6094818  29.4708419  30.0664854  47.7596951
  29.8334885  31.0393524  46.6583300  90.4527807  99.2610632  51.0653210
  90.1077616  99.5303129  51.9166136  90.1614391  98.3548628  50.9645510
  89.8992490  97.2233533  62.3845100  89.1729616  97.4672328  61.8106985
  89.6192574  96.4025270  62.7895784  21.0359078 100.3664487  59.4182014
  20.5578452 101.1153286  59.0620184  21.3800317 100.6781142  60.2552652
  52.7385664   7.1368939  12.9678261  53.5880804   7.1184194  12.5271297
  52.7886343   7.8928345  13.5528731  31.8889904   2.8975785  77.1159363
  31.6686201   2.1505406  76.5595150  32.3852515   3.4836569  76.5445614
 103.1475531  66.0045015  37.0162344 103.0447161  65.9469854  36.0663128
 104.0881097  65.9027111  37.1619201   2.7891195  27.8306985  64.9005651
   3.2379067  28.2394981  65.6406355   2.9296476  26.8919635  65.0241041
  48.8260078   2.9120314  64.5544767  49.0806532   2.9376590  65.4768276
  49.5143509   2.3998569  64.1301060  95.3445637  96.8879580  65.2139854
  94.4679736  97.2591280  65.3142643  95.6587171  96.7700290  66.1104441
  93.7526714  74.5572173  21.7516065  92.9107987  74.2820679  21.3885975
  94.3130409  74.6855985  20.9862733  92.5683498 100.6029063  34.5305228
  93.3701884 100.7092219  35.0423670  91.8863260 101.0067468  35.0671697
  37.2002053  17.9120469  50.7743120  36.9681716  16.9859493  50.8431339
  38.0077243  17.9949725  51.2815285  27.1770125 101.6559528  76.7931938
  28.0011445 101.1767565  76.8792343  27.0917684 102.1357142  77.6170826
  36.5191317   4.4812828  43.8918781  36.9402695   3.7696648  43.4097242
  36.1519527   4.0597135  44.6688557  14.7297406  15.3569388  67.8095627
  15.1039553  14.7215068  67.1992970  14.5896769  14.8607254  68.6160278
   1.4431602  92.7437948  68.0137014   1.7230350  93.2183014  68.7964821
   0.6930238  92.2247194  68.3036804 109.3441331  87.2822081  54.4477797
 109.2295992  88.1045472  53.9714670 108.6537754  87.2912799  55.1107693
 116.2664329  83.3434068  66.3142300 116.3756072  84.0116488  65.6376457
 116.1929809  83.8384568  67.1301746  29.3550181  33.0038238  39.8695397
  30.0012684  33.6017609  39.4939518  29.6440077  32.1342540  39.5928335
  11.3983083   1.9044316  84.7996235  12.2398698   2.3604453  84.7920227
  11.5968990   1.0412338  85.1624966   5.7871842  16.6405714  39.0179229
   5.1716799  16.3539279  39.6926236   5.4650235  16.2361205  38.2124019
  28.1308889   5.8649164  39.4713211  28.0289006   5.0040758  39.8772573
  27.5026989   6.4222598  39.9306417   6.9251519  78.9922606  30.8197665
   6.5596658  79.8102676  30.4828405   6.4375192  78.8264333  31.6265798
   4.4959193  93.9454423  85.4209900   5.3605205  93.5682260  85.5835056
   4.0124446  93.2517659  84.9723339 106.6964280  98.0192553  31.4756322
 106.2912261  98.7795233  31.0584521 106.5087020  97.2920310  30.8822227
  23.1617069   8.7941778  52.4490356  22.3968410   9.3543583  52.5809813
  23.7565708   9.3224961  51.9168234 102.1070641  67.0810841   2.7007155
 101.9295567  66.1464356   2.8063254 101.3672751  67.5149165   3.1258349
  46.0092402   4.3841925  38.9994788  45.7980108   4.8236066  39.8232079
  46.9106722   4.0829343  39.1130185  83.0611491  82.6995050  24.0975332
  82.3107373  83.2714592  24.2587233  83.1708007  82.7105009  23.1466985
  46.0679245  10.2398121  37.4003196  46.1871004   9.2902118  37.3833585
  45.4716158  10.4193842  36.6734052  23.0349135   1.4647865  62.6105928
  22.8591084   1.7471288  61.7130375  23.6196613   2.1359020  62.9625988
 115.0385463  93.9457237  46.3276243 114.6343910  94.1063355  47.1803236
 114.3793546  93.4526335  45.8391953 110.7777488 100.8558642  64.7518158
 111.6349232 100.6324439  64.3890953 110.7916486 101.8098365  64.8291159
  18.9880490  32.1285963  29.0198493  18.3364093  32.7817917  28.7650275
  18.7046039  31.3248491  28.5840940  43.2337713   6.9786233  32.8338838
  42.4595642   7.1681762  32.3038840  43.8658285   6.6157168  32.2133708
  88.1298839 100.0888740  76.1503315  87.4419516 100.7371890  75.9997702
  88.4943365  99.9201869  75.2814531  52.1114700  48.6526263  93.5682751
  51.9394832  48.1912351  92.7474402  51.5440016  49.4226975  93.5336203
 107.4784552  84.8529421  61.1600828 108.4251987  84.7207557  61.2093830
 107.1095120  83.9729034  61.2351990   9.3172580  92.5496112  69.7998190
   9.1767245  93.3279871  70.3389025   8.4881621  92.4253117  69.3378830
  98.4578454  66.7816602  70.1358986  98.5613906  66.7405330  71.0865927
  98.8819944  65.9861719  69.8141384  93.7847954  12.6613879  68.0406475
  94.4552403  12.4048805  68.6738443  93.8476592  13.6155927  67.9985666
   3.6219975  11.2739396  42.5169134   3.0339718  10.6394184  42.1072340
   3.0378804  11.9130278  42.9250908 112.2599136 100.6016361  41.9142008
 112.8626882 101.3398313  41.8249798 112.0762646 100.5544220  42.8524303
  54.4728249  49.9854408   7.1090178  55.0027293  50.7725809   7.2348933
  53.6945802  50.2924697   6.6439394  85.1958322 101.6124373  74.1850090
  85.0542169 100.6966203  73.9453077  84.3476348 101.9071465  74.5165825
  43.9688969  26.5317941  30.3400254  44.1819525  26.4075351  31.2649035
  44.5091581  25.8884597  29.8812556  55.5273008   5.3715640  52.7810144
  55.4636526   4.5170581  53.2076263  56.4543962   5.6016105  52.8427219
  78.2201376  99.1802024  62.0140839  79.1023982  99.5078146  61.8393850
  77.6405826  99.8772298  61.7066717  63.5872984   7.6589215  62.1960545
  62.9300404   7.9777855  61.5775299  63.4706974   6.7088616  62.2008324
  59.6423435  18.7769020  46.0332012  60.2780581  18.4110212  45.4182005
  58.9949512  19.2116618  45.4781389 110.0237428  99.0092610  70.0582266
 110.2498066  99.3308174  70.9309959 110.5661761  99.5278036  69.4639969
  16.5100318  87.0996391  60.4171467  16.4655286  86.8429696  61.3382149
  15.9619695  87.8823101  60.3598595 112.6819407  73.0993353  66.4681292
 112.6402294  73.0442559  67.4228334 112.1790802  72.3443972  66.1624670
  38.6584330   4.1714695  52.3380327  38.7871408   3.2500350  52.5630331
  38.4312129   4.5911497  53.1677723  20.5887586 108.6091713  81.1024857
  20.7167846 108.3131396  80.2012634  19.6445399 108.5423926  81.2446785
   4.9176282  27.8807974  69.4668245   4.8797238  28.1843328  70.3738308
   4.1790283  28.3134198  69.0384102  13.5924226 101.5610724  67.6824331
  12.7381927 101.2140368  67.9395056  13.7071830 101.2692802  66.7780447
  58.2534409   5.6196922  85.2112293  59.1622782   5.5348140  84.9230576
  57.8705502   4.7567204  85.0534058 100.3637809  56.8041168  14.7918658
 100.4806298  57.3153920  13.9911322  99.4267196  56.8620202  14.9784140
  26.0772109   7.2623271  67.2826052  26.2976193   7.7005935  68.1045341
  25.1218510   7.2036111  67.2911692  64.8156452  27.6254511  19.9736834
  64.5924473  26.8355680  20.4661250  65.3581715  28.1367183  20.5741024
  12.6310998  75.9864365  56.6011810  13.2029468  76.3944518  57.2513723
  13.1288701  75.2330624  56.2835503  30.0537610  18.7497306  76.6032791
  29.6456528  17.8893721  76.7005587  29.9043632  18.9834869  75.6871605
  39.5404100  24.7271729  14.2845953  40.2674007  24.2330599  14.6635044
  38.7781882  24.1603589  14.4028199 109.4722276  18.5826671  14.4042730
 108.8101178  17.9229140  14.1979516 109.4931548  19.1501355  13.6337066
  19.6744931  18.3027399  61.3891315  20.0313783  17.4230027  61.5113163
  19.1494334  18.4593475  62.1739960   8.6510116 101.4686852  78.5908604
   9.5111829 101.8835329  78.5257149   8.7440520 100.8348130  79.3020439
  61.9929314   4.1803458  76.3669014  61.2752676   3.5472131  76.3852215
  62.3659372   4.1451228  77.2477293  57.0574713  23.7847638  84.2673683
  57.3215866  22.8843307  84.0784359  57.7323532  24.1126108  84.8617458
  22.6518136  75.2657401  47.4229145  23.4126407  75.2768623  48.0036449
  22.3299104  76.1671363  47.4325991  10.6501901  17.8402877  41.0738039
  11.0078931  17.6999378  41.9504881  10.8242416  17.0211649  40.6101465
  54.0155172  14.2390871  67.8322935  53.0674696  14.1072261  67.8391695
  54.2163420  14.5793307  68.7041521 105.6336581 105.7179811  81.5284824
 106.4682280 105.2850770  81.7082691 105.6220280 105.8304059  80.5779839
  16.9401217   7.7995640  79.1852140  16.0025811   7.7485764  79.3713570
  17.0482242   8.6325514  78.7262154  97.0217752 109.1685452  65.5097866
  97.6495671 109.8723592  65.3462172  96.3121151 109.5887270  65.9956455
   2.5326520  98.8976692  63.1065178   2.4460155  98.4307431  63.9376020
   3.4743291  99.0380668  63.0077028 114.5904886  85.1340710  29.9989247
 113.7902962  85.2513110  29.4868922 114.7548043  84.1914069  29.9740362
  74.2526054  24.5177984  87.3579502  74.3843842  25.2957845  87.8997993
  75.0038481  24.5089626  86.7648315  39.9775791  19.5930374  29.7225666
  40.0865698  20.0664759  30.5473137  40.0116205  20.2730298  29.0497470
  15.2542907 108.7958950  67.4567223  14.9872428 109.7150804  67.4527931
  14.4337827 108.3084095  67.5298691  25.9016442  21.4739490  64.2360735
  26.0493040  21.6776419  65.1596212  26.3433194  20.6353641  64.1021729
  39.2234731   1.0423728  73.6100912  39.1789961   0.1428833  73.9343929
  40.1030302   1.3383302  73.8446522  65.2698803   3.8021737  84.7313786
  66.0436344   4.3558529  84.8361397  65.4015923   3.0864021  85.3531075
  57.7637959   4.2758688  50.4125404  57.1211195   4.9039871  50.0828934
  57.8272104   3.6142543  49.7237206  71.2631655  28.9958763  78.9411926
  71.0716009  28.1814480  79.4062138  72.1296024  28.8555384  78.5593224
  19.2082167   7.9337621  34.3748593  19.2783558   7.6090258  33.4771633
  19.1632187   7.1432340  34.9127007  71.1883068  15.8925235  52.1984196
  70.7108212  16.3132477  51.4834166  70.6464434  15.1409280  52.4386692
  56.9469452   8.6241442  45.1098108  56.4481688   9.4396359  45.0605297
  57.2057867   8.4466821  44.2055178  45.6007767   1.4593974  54.5939589
  45.4625130   0.5176678  54.6952581  45.4614115   1.6229707  53.6611938
  56.2392426   5.7775527  56.9903183  57.1791458   5.6237459  56.8946314
  55.9805441   5.2273059  57.7295971  29.8623371  13.0100739  70.9697580
  29.9365878  12.8900599  70.0230217  29.5858788  13.9204371  71.0748291
  33.1319690   0.2874786  42.4123573  33.8932943   0.1315468  41.8535185
  32.4338555  -0.2347994  42.0172691  49.0142536   9.4171786  65.6626606
  49.1140842   9.6754462  66.5789366  48.1002569   9.6132624  65.4567671
  87.1290779  11.5189791  72.2814226  86.5093899  11.0088599  71.7598915
  86.6061306  11.8636179  73.0052900  43.5008288  53.3902807   9.6099715
  43.0204034  53.2950091  10.4323725  43.5660175  54.3362161   9.4788603
  59.8382521  10.2466631  45.1562166  59.3270779  10.0805116  45.9482574
  59.5523930  11.1121237  44.8638248  41.1836958  18.2278287  85.6851959
  41.0942936  18.0632555  84.7464943  40.6166315  18.9808512  85.8514118
   9.4880706 107.2710153  69.6611786   9.1327315 107.3856031  70.5425644
   9.4824153 108.1509190  69.2843914  13.5433131 109.1208505  52.3830509
  14.3438798 108.6592329  52.1335888  13.6670953 109.3320948  53.3084106
  27.5642800  14.3286097  54.0606594  28.3859348  14.0251470  53.6746216
  27.1169829  13.5271955  54.3324852  33.0152965  13.2310724  74.9090052
  33.5815048  12.4674273  75.0207472  32.3194122  12.9298460  74.3248463
  33.2430100  25.3095889  51.9454288  33.3579397  25.8896780  51.1927509
  33.3143759  24.4273639  51.5809822  24.1006309  79.3747913  71.4404678
  23.7086135  80.2163707  71.2074471  24.9206191  79.3478071  70.9473896
  13.7956363  96.8251680  76.3207388  14.0214568  97.6138054  76.8139791
  12.9352981  97.0148777  75.9464979  58.6665869  19.9847627  93.9951038
  58.2746220  20.6590295  94.5500469  59.3803883  20.4330373  93.5414791
  66.3858461  35.4455137  86.0528660  67.2909737  35.6044221  85.7850456
  65.8822346  36.1307120  85.6134224  29.7396564   7.6988775  85.6662464
  30.6395984   7.4575078  85.4469776  29.3857336   6.9273037  86.1085701
  42.7960110  11.7434180  32.0047641  42.6414394  12.1138883  32.8737235
  43.5592175  11.1769545  32.1181941  61.5964937  19.1423881  90.9961510
  62.3362160  19.2895079  90.4067421  60.8549404  18.9784300  90.4135323
  56.0946751   1.1317908  45.4755831  56.3652611   0.5384086  46.1762333
  56.5980721   1.9309941  45.6308079  43.7557507  18.8570130  21.5967774
  44.3894434  18.1431580  21.5255165  43.4892750  19.0317225  20.6941700
 109.3064653  89.5583688  62.3056602 108.4570443  89.6103560  62.7438545
 109.6279108  90.4599546  62.2986126  10.4165584 100.8462935  27.0876360
  10.5866366 101.7827426  27.1894574   9.6841413 100.8013265  26.4730048
  79.2465026 102.5882172  62.9598665  80.0593718 102.0828127  62.9533863
  79.3361100 103.1953763  62.2253180  45.8852243   7.9816753  74.0228128
  45.3753424   8.7080014  73.6640596  46.4071274   7.6676846  73.2843971
  56.5116167  13.3634603  73.6676836  56.1419821  12.9802132  74.4631243
  57.2540426  12.7989101  73.4524632  31.0656667  12.1183074  73.3311796
  30.4350543  12.8091943  73.1281137  30.6134439  11.3063681  73.1020927
   1.1347562 105.0030904  56.4883947   0.5411869 104.2528241  56.4566851
   1.8530923 104.7165172  57.0524025  27.7095318   0.7243606  74.4416571
  26.8977785   0.9932414  74.0115547  28.3926105   1.2306601  74.0020037
  53.4798622   7.2509861  60.6282234  54.1595697   6.7085725  61.0282373
  52.8770447   6.6237730  60.2289152  54.1880417   0.9913885  49.4884920
  54.4428587   1.6880585  48.8835526  55.0096321   0.5515313  49.7069979
 112.7918898 102.2725379  69.9911785 111.9930875 102.6985215  70.3021145
 113.3200633 102.9860662  69.6332073   5.5919963  96.4805244  59.2644453
   5.2473384  96.4266144  60.1558113   6.3829356  97.0135354  59.3453074
  17.6605254  96.3832532  54.5386219  18.0777103  97.1338355  54.1157579
  17.9407197  96.4368366  55.4523230  28.5340977  13.1651187  59.0736151
  29.2642570  12.9195499  58.5054636  27.7887464  13.2560074  58.4799623
  28.4042382  25.1137304  70.0434685  28.2050848  24.5113230  70.7601786
  29.3552876  25.0648570  69.9467802  59.1399813  33.9976525  69.3334341
  58.2047606  34.0415788  69.5325804  59.1896105  34.1282272  68.3864784
  58.2290268  10.9476352  61.3020229  57.9831457  10.6620991  60.4221106
  57.8768730  11.8348646  61.3730621  46.4908791   7.6642585  50.9546947
  46.0084152   6.8774056  51.2083149  47.4119043   7.4118733  51.0197973
  24.5877910  10.0516808  71.3336468  23.6930108   9.8217475  71.5841103
  25.0624681  10.1051176  72.1631384  33.3953786  15.4003608  54.3640280
  33.3739710  14.7695494  55.0836468  32.4833035  15.6690884  54.2538738
  43.0808640  13.8667738  50.3744793  43.3533621  13.0268645  50.0049829
  43.8561440  14.4234014  50.3014278  43.5863686  19.8493767  69.9705458
  44.1003847  20.2869391  69.2919016  42.7363300  19.6886134  69.5608807
 111.6021144 110.2986828  84.4634151 111.1749446 109.5603795  84.8977661
 112.4191868 110.4208661  84.9468327  39.7955728  14.1649878  45.3485107
  40.3580570  14.9237895  45.1933956  39.0035224  14.5305336  45.7425451
  98.5999429 103.7500762  88.3952522  99.4634592 103.6080371  88.7830544
  98.5169637 104.7019207  88.3374691  20.6395846 109.4260935  61.7009497
  20.4177123 108.9662852  62.5106287  19.9336034 110.0620977  61.5855265
  60.5097771   4.1750410  49.5035982  60.4453373   4.8795161  48.8587761
  59.8419046   4.3857703  50.1561069 108.6102974  99.4358729  53.3455753
 108.8306605  98.9657854  52.5414038 109.4044220  99.3856668  53.8776255
 116.2134992 106.3071074  61.9101954 115.4349458 105.7541927  61.9763136
 116.6614591 105.9968736  61.1232233  27.9318601  97.5788986  70.7199907
  28.3576089  98.1765281  70.1053333  27.0539933  97.4509667  70.3605270
   7.1444678   9.4940984  31.7462254   7.7936900  10.1349747  32.0360875
   6.6194093   9.3154150  32.5263643  30.5727673   5.7995033  64.3600082
  30.4198098   4.9102673  64.0404844  31.4890385   5.9762925  64.1468859
  34.3803501  32.9706955  94.6351433  34.0684581  33.7178659  95.1457214
  35.3275633  33.0970359  94.5798492  35.0648385  99.0276181  44.1869020
  35.1473170  99.4569813  43.3353901  34.2538863  98.5231124  44.1232061
  31.3010931   7.9343367  68.6270809  31.0012674   8.4086275  67.8515911
  32.1077490   8.3810109  68.8840246  68.6349964  16.1061084  46.4961338
  69.1422272  16.8811882  46.2548876  67.9315853  16.4433134  47.0508766
  16.4277685  38.1682324  19.2260373  16.3734639  39.0944743  18.9907587
  16.4645791  37.7096558  18.3866417  46.0555792   4.5373598  82.2639942
  45.8687449   4.1533360  83.1206417  46.3543940   3.8004336  81.7311859
   6.4097148 108.7684644  44.6569920   6.5948993 109.5097238  44.0803909
   6.4385253 109.1383553  45.5393696  69.2890120  20.3277659  68.2770634
  68.3807421  20.4990387  68.0281687  69.2432594  19.5455384  68.8268471
  35.7457542  28.7636685  15.1293087  36.1480737  28.3863187  15.9115994
  35.4763794  29.6418810  15.3983998  42.9445791  11.7089248  22.7874565
  42.0340347  11.9851160  22.8916574  42.8866386  10.8111548  22.4605250
  46.2788200  12.4017799  79.6678638  45.7192230  11.6302741  79.5792103
  46.2354469  12.6235187  80.5980110  63.9477682   6.1239630  70.0455856
  63.1367970   5.6263614  69.9409389  63.8993073   6.8047971  69.3745041
 100.4713547 107.7915395  48.6935043 100.6360304 108.4904425  49.3264723
 100.7987654 108.1380851  47.8634834  31.1357331  16.7832088  53.9043093
  31.3305044  17.6704872  54.2060232  30.3997016  16.8912184  53.3019590
  24.8441553   1.6296811  45.0032997  25.1216984   1.8600118  45.8899498
  25.1199603   0.7195168  44.8948336  64.6626520  40.1730013  75.0199461
  64.5064116  41.0948181  75.2250719  65.1718760  40.1909208  74.2096376
  76.6363144  30.8238578  62.8832769  75.7971191  31.1849093  62.5975704
  77.2199583  30.9539771  62.1358395  76.3451815  19.5429409  80.1081657
  77.0161438  19.5912588  79.4272089  76.8226767  19.2864978  80.8971310
  56.4718819  24.4889569  50.5518150  57.0537138  23.9110756  51.0455370
  56.3369083  24.0378022  49.7184658  66.0071659  27.6102281  56.8989134
  65.9194756  28.2445025  57.6104164  66.8263292  27.8487897  56.4649868
  84.2572594  34.8978543  57.7350473  83.8234425  34.6748233  56.9114590
  84.2961311  34.0715790  58.2167006  71.4186049  19.2033374  79.8043060
  71.9950342  19.7089863  80.3772640  71.4393711  18.3171034  80.1654053
  80.6825256  30.3952360  62.7600288  80.1659107  30.9647655  62.1899557
  80.9041214  29.6435475  62.2103977  68.5741472  28.0196953  50.9638357
  68.9722824  27.5912428  50.2061081  69.2006636  27.8808999  51.6740751
  65.3503275  15.7797647  62.5168228  65.2202368  16.3364065  61.7490578
  64.8001671  16.1733854  63.1940317  94.8262215  21.4673853  78.2985878
  95.7046700  21.2797093  78.6292601  94.3835068  20.6187177  78.2996941
  84.3539590  91.9681559  21.9845538  84.0771264  92.2095285  21.1006217
  83.7279862  91.2971030  22.2567229  90.3906727  34.1661596  34.4617867
  89.9656963  35.0234485  34.4878817  91.0497475  34.2043543  35.1548886
  59.9464273  20.1098704  32.4142098  59.7195101  19.2319477  32.7207923
  59.1072035  20.5060196  32.1796775  68.9277792  29.5791745  38.5319853
  68.5930824  29.7860122  37.6593876  68.5640430  28.7161279  38.7296629
  46.6285133   6.4725578  54.8926497  46.0546255   7.1789759  55.1890659
  46.2021828   5.6726259  55.2001953  17.7868062 109.1645527  80.5021000
  16.8646747 109.0106723  80.7075787  17.9321128 108.6903830  79.6833944
  83.9058304  31.6947842  14.8603845  83.6463547  31.0646701  14.1881776
  84.8625660  31.6648817  14.8601711  83.1423950  35.5795145  27.4114060
  82.7710342  36.1004686  26.6994166  83.0559731  34.6733308  27.1154356
  67.8297329  14.5141542  69.6926832  68.2297134  14.9667597  68.9501238
  67.1679831  13.9458287  69.2985725  62.6480722  36.5384316  64.2235422
  63.5560942  36.4748096  63.9274311  62.6760960  37.1612191  64.9498940
  56.8171215   8.4678960  39.3293285  56.0461044   7.9489100  39.5582819
  57.3731613   7.8655595  38.8351202  51.8330145  25.0960374  57.3655558
  52.7170420  25.4507256  57.2710943  51.9047308  24.1905212  57.0636845
  55.9433079  15.9952855  66.7637300  55.2238131  15.3697252  66.8487597
  56.0282087  16.3825524  67.6349640  52.6479244  19.5415282  62.0884466
  52.9408836  20.4077315  61.8054295  51.7694473  19.4531596  61.7187166
  80.7343483  29.4913530  37.2465444  81.1836910  30.3327775  37.3261023
  81.0779572  29.1118622  36.4377475  74.1321135  21.5146708  53.4405661
  74.4408941  20.6119943  53.3626986  74.3094397  21.9032025  52.5839281
  80.9072781  22.2038388  52.0526505  80.2831078  22.8887582  52.2924995
  81.1528492  22.4088311  51.1504841  56.4017010  27.6311231  57.0125771
  56.2632751  28.0247235  57.8740597  57.3087645  27.8452516  56.7943716
  25.8023990  61.6035800   2.5570445  25.9291232  62.4650834   2.1595721
  24.8522819  61.4917205   2.5884680  66.9112587  31.6569424  48.5904026
  67.6045513  32.1014977  49.0781975  67.0901108  31.8678331  47.6740122
  52.5772762  37.0093751  55.3443003  52.3021793  37.4832582  54.5594501
  53.4274769  37.3884130  55.5672646  68.7072945  58.7722063  91.1916447
  68.7071657  58.4420347  92.0900917  67.9569387  59.3653393  91.1543274
  73.4363127   3.9019597  25.2578115  72.6315594   4.1404656  25.7179403
  73.1391048   3.3931145  24.5035052  76.9743013  39.7677183  76.5990305
  77.0082760  40.7112074  76.4412165  77.3162270  39.3778372  75.7944727
  62.3515654  24.5858765  50.2708483  61.4394283  24.8310685  50.1155472
  62.7855587  25.4085350  50.4969263  51.7453337  29.5721269  30.1637626
  51.2868643  29.2869329  29.3733811  52.6047134  29.1545630  30.1060033
  56.9039774  16.5730071  28.9747667  56.1659193  16.0736024  28.6253476
  56.7632246  17.4640524  28.6546755  48.7530088  38.8041711  52.1694946
  48.0266142  38.4967732  51.6271973  48.4849167  38.6021090  53.0658960
  45.6251192  23.4810019  26.5172410  45.7649088  22.6061296  26.8795800
  45.1900911  23.3262777  25.6787634  70.7957888  23.3098912  48.7789345
  70.9423780  23.5697174  49.6884584  71.6236019  23.5022140  48.3385086
  61.5385008   4.7767499  66.7198992  61.9832087   4.8287576  65.8738708
  62.2113037   4.4654042  67.3254013  42.8182298 107.3101353  59.6445847
  43.1089669 107.6802625  60.4780769  41.8626290 107.3179277  59.6993971
  83.9973927   8.4341383  30.3149724  83.4737682   8.3593357  29.5171905
  84.7283840   7.8312963  30.1790833  67.1008396   1.6299675  76.0533237
  66.4194393   1.0037689  75.8087778  67.3438787   2.0531887  75.2298880
  46.8532801  43.4306860  33.7334991  47.7176762  43.2131958  33.3845735
  46.8524075  44.3860388  33.7929010  41.6805696  29.3207240  35.4005361
  41.6026926  29.1554928  34.4609261  41.1077166  28.6700869  35.8064222
 110.4254877 109.7915853  69.0418816 110.8608639 109.3633536  68.3047915
 110.1830279 109.0737093  69.6267748  54.9307156  33.8531661  51.7407417
  54.1902304  34.3181109  52.1302795  54.8674536  32.9650068  52.0920324
  64.0976381  23.0766034  48.6698246  63.3379889  23.4954429  49.0744638
  63.7302923  22.3519707  48.1636667  65.0197554  24.9961233  54.9474669
  64.3624926  25.3437972  55.5502605  65.8548450  25.3026199  55.3009081
  74.9275446   5.0747091  60.0744295  75.0993299   5.7111531  59.3804121
  74.0113592   4.8267230  59.9505854  69.6995115  36.1145020  80.9358597
  69.7925711  35.1628637  80.8916473  70.5917788  36.4471745  80.8388042
  60.4021931  35.0195980  45.1165390  60.6817627  35.6789351  45.7516384
  60.0580168  34.3035507  45.6504393  16.3564152  71.9802666  25.0743365
  15.8261627  71.9858932  25.8712292  16.5949101  71.0613871  24.9518251
  62.3089600  21.3502884  51.3300276  62.6980972  21.9732690  51.9437838
  61.6183138  21.8465042  50.8907032  54.1316557  36.7574978  57.9776430
  54.4093323  37.3080635  58.7097692  54.4573164  37.2108531  57.2000551
  74.1585541  44.2798853  73.4370708  73.7593937  43.5195637  73.8599396
  73.9029932  45.0210333  73.9862728  53.7403297   5.5051839  77.4803066
  53.2966566   5.8166784  76.6914129  53.0315733   5.3202164  78.0964899
  60.3184891  41.6274023  85.6857777  59.8329210  41.0458565  85.1007462
  60.0234270  42.5065660  85.4486179  59.6986341   8.6060667  43.0018330
  59.6691656   9.3205583  43.6381245  58.8511848   8.1701922  43.0917263
  77.6017523  46.4008617  62.6879597  77.7648258  45.4600811  62.7555609
  78.4671021  46.7842913  62.5451708  68.5831022  33.6330795  83.7046909
  68.4186840  34.3248272  84.3455410  69.2994165  33.9702964  83.1667233
  59.9749231  44.3180609  64.8450613  59.8028803  43.4385538  64.5087528
  59.1483641  44.5871735  65.2458191  60.5110455  34.4239283  62.5811434
  61.3741636  34.6462917  62.9301596  60.6784344  34.1658640  61.6747141
  86.9113827  23.7163305  18.0464852  87.0002174  24.1160631  17.1812952
  86.5859222  22.8335905  17.8702092  70.7944489  34.7978044  56.5840721
  71.0626030  34.0893960  57.1692944  71.4056778  35.5095720  56.7738438
  78.3136129  24.8639560  31.5537548  78.2134438  24.3420267  32.3498631
  77.7070141  25.5953860  31.6689777  94.4277382  52.7736425  64.3995523
  95.0348854  53.4697819  64.6505451  94.3542004  52.8514004  63.4483576
  82.1468067  65.0814056  54.2866516  82.2416019  64.9133158  53.3491087
  81.4206409  65.7021618  54.3464661  13.9122259  83.9855314  80.6691595
  14.7938311  84.0462471  80.3013082  13.7127936  83.0493832  80.6599184
  84.3882942  21.6191649  71.4303827  85.3158379  21.4305806  71.5729380
  83.9853954  21.5037346  72.2909498  68.0322123  54.7434759  45.2177429
  67.9124022  54.7266912  44.2682171  68.1487894  53.8249969  45.4607201
  81.1637688  60.4116392  71.2160444  81.0863495  59.6628952  71.8073368
  81.6183472  61.0778952  71.7315006  85.4878139  64.0280581  93.7707424
  84.8473835  63.4370518  94.1667175  86.2797356  63.4978867  93.6812782
  82.2430134  43.4363031  55.1524067  82.9477596  43.2229996  55.7640171
  81.4655304  43.0249691  55.5299807   4.8038334  37.4210906  53.5330391
   5.0135369  37.2436166  52.6161051   4.7134060  36.5548182  53.9300585
 101.0349083  43.1857443  27.8900170 100.9369278  43.7743521  27.1415687
 100.3250599  42.5513792  27.7903724  77.3567438  57.8999424  57.4076796
  77.9242754  57.4706078  56.7675209  77.6697540  58.8040447  57.4369574
  88.6078453  52.2629356  26.4874601  89.1610909  51.4838839  26.5443254
  87.8038311  52.0197439  26.9464207  96.5686798  65.6998777  42.0108509
  95.8712482  65.8583832  42.6470184  96.5851593  64.7486305  41.9055510
 105.5396652  40.6993818  59.0178156 104.6237946  40.6004143  58.7577963
 105.8152580  41.5229702  58.6153412   6.5499634  53.4394741  43.0550814
   7.0231575  52.9017639  42.4201155   6.9770951  53.2541418  43.8914013
  94.4370461  15.0660813  64.5692873  94.8233318  15.4700196  63.7922096
  94.9534702  15.4083490  65.2989388  87.6624012  46.2479925  40.1606083
  86.8216324  46.7027617  40.2109241  87.5800323  45.6760120  39.3975329
  98.4690189  48.1261444  82.2434521  97.9135704  47.4655724  81.8295002
  99.2523956  48.1585884  81.6943550  66.0589647  58.1043196  67.6301670
  66.3213491  58.5369444  66.8176222  66.5792656  57.3011971  67.6527214
  87.1526814  44.8491287  45.2561855  86.6213512  44.3617249  45.8857632
  87.9858971  44.3786573  45.2309942  96.9141579  13.4189558  74.2694092
  96.2719631  14.0072203  74.6665955  97.0863628  12.7618790  74.9438190
  68.0781364  29.2986560  65.5830383  68.4317636  29.8146248  64.8585033
  67.8439617  29.9471617  66.2469912  82.7091026  49.8977423  25.9621739
  83.1209183  50.2258015  25.1627874  82.8653717  50.5838680  26.6110516
  76.3743162  66.5857553  50.6712103  76.7111731  65.7688665  50.3031731
  77.0964813  66.9263554  51.1991310  97.9295349  46.0265350  67.4899769
  98.2209206  45.1151323  67.5158215  98.7203217  46.5250778  67.2842169
  84.2521381  58.5511065  54.3780565  83.9147854  58.1013107  53.6033916
  83.5275459  58.5278177  55.0030804  90.0269508  24.6491218  62.7965498
  89.8654175  23.8878751  63.3539009  89.3306732  24.6176863  62.1404696
  84.8226738  49.0639019  75.8504534  85.4166317  48.3789825  75.5433321
  85.1909256  49.3419313  76.6890955  72.0350647  44.0767860  82.5400734
  72.5975800  44.1047239  81.7660999  72.6136875  44.3122482  83.2653236
  75.7153130  59.1687822  41.4625168  75.6552315  58.6073256  40.6896067
  76.5766144  59.5805693  41.3930559  86.1047554   0.8659408  57.2941160
  86.4386368   1.4300045  56.5965557  86.0245132   1.4446521  58.0523300
  79.9710274  45.7769775  59.4660330  80.1066494  46.5902996  59.9521828
  80.5888367  45.1587629  59.8563623 102.5922108  74.9255562  90.1519489
 101.6931057  74.9474812  90.4796124 102.5959778  75.5438519  89.4212437
  80.3522968 107.3120689  57.3753834  81.1326504 107.0822716  57.8798294
  80.6748199 107.4499130  56.4847612  95.0046349  99.6838665  59.7949934
  95.7468128  99.8046684  60.3872871  94.7438049  98.7715244  59.9208450
  96.5884876  93.8952732  68.9220047  96.5405083  93.0312634  68.5128355
  97.2060680  93.7840271  69.6448088 106.8331909 108.8143826  81.2204552
 106.0825825 109.3723965  81.0168648 107.2732544 108.6887455  80.3797531
  78.1477928  81.1504745  67.1880102  79.0826035  81.2649536  67.3590660
  77.8156757  80.6997299  67.9643869 112.1985245  42.2115612  55.6323433
 112.7005959  41.7781591  54.9421883 112.3553181  43.1453705  55.4921865
  23.2280410   7.1821726  66.8797588  23.0221809   7.4698294  65.9903193
  22.4104751   6.8051375  67.2048092  97.8294373  58.1401825  13.8888562
  97.9356861  57.4250126  14.5161319  96.9390583  58.4586573  14.0372825
 108.9947224  84.5646858  70.3431559 108.0466652  84.5796108  70.4742956
 109.3191147  85.3051186  70.8557701 103.2628918  48.4449768  29.8551393
 102.5443935  48.3834887  29.2256832 103.8633347  49.0841532  29.4715405
 107.9662991  86.4119434  92.1571350 107.2660446  85.8178997  92.4272919
 107.9277802  86.4083195  91.2007141 105.0909233  85.7067966  39.5402503
 104.3932056  86.3534260  39.6465373 105.3153992  85.4475594  40.4339170
  19.1947902   2.7801741  35.2902031  18.7165130   3.1942690  34.5718694
  20.0640739   2.6051844  34.9296975 107.8997040 103.5347557  69.6052551
 107.0273876 103.8066769  69.3200111 107.7387619 102.9616737  70.3548622
   0.5698693  29.4660223  79.3127346   0.8201993  30.3772391  79.4652128
  -0.2764546  29.3737067  79.7502804  84.7200203  92.8359032  59.7657108
  85.2131748  92.0271969  59.6278191  84.9743557  93.1250763  60.6420279
 106.8927193 103.1382561  81.2610340 106.4082718 103.2942295  80.4503441
 106.9056225 102.1855545  81.3528252  99.7055244  80.7556725  63.5303402
  99.5958233  80.6989479  62.5811386  99.3301392  79.9408007  63.8639545
  76.8416500 104.6844959  75.5743551  76.7763138 104.8654938  76.5120125
  76.7407751 105.5403042  75.1576328   6.7068333  91.0892200  27.0975089
   6.0883755  90.4332638  27.4191618   6.6193337  91.0541344  26.1449623
  92.0855141  64.7048903  47.7630901  91.9928455  65.6566620  47.7210188
  92.0853043  64.4235516  46.8481684  19.8929275   4.3178118  61.1388445
  20.6457103   4.4408453  60.5605602  19.4985164   3.4959258  60.8470058
   8.0306781  17.0393694  42.4444962   8.8630546  17.4068011  42.1472120
   7.3660911  17.6158465  42.0673656  10.7957596  95.7063007  73.0651617
  11.1661572  96.5676212  73.2578945  11.2082142  95.1206779  73.7001085
 109.4513321 104.8067093  43.6566877 110.3778267 104.5987034  43.7774706
 109.0953350 104.8388386  44.5446396  92.1445084  95.5858231  59.1617870
  92.5017929  95.2122784  58.3561563  91.8568039  94.8276329  59.6703148
 102.2954082  99.5005989  86.3870430 102.4680233  98.6833000  86.8544292
 102.7825832 100.1636887  86.8761253 101.9557446   4.1559638  28.9575791
 102.0551700   3.2622469  28.6295223 101.2239188   4.5152033  28.4559679
  25.2000106   2.9125346  74.6385002  25.1535381   2.2702158  73.9303303
  24.4233478   2.7391757  75.1704454  79.8886013 101.5836143  39.2769670
  80.2240086 100.7408524  39.5827246  79.5713234 102.0168495  40.0693512
  25.5041832 101.7138386  47.0503283  25.8466191 102.5333214  47.4072838
  24.6534104 101.9504738  46.6809797 107.8776550 107.0528793   3.4311301
 108.8342094 107.0862389   3.4201884 107.6592827 106.7288399   4.3049413
 101.9463253  97.6081562  56.2524319 102.4840546  98.3977509  56.3125944
 102.4584389  97.0105648  55.7075787  83.1409550  97.3948193  20.3990698
  83.5843277  96.7079735  19.9011683  82.7346897  96.9341564  21.1332154
  76.9721365  84.5613956  26.6411376  76.8736792  84.7217846  27.5796533
  77.9119921  84.6464443  26.4809203 111.2135792  92.0398998  48.7408972
 111.3985348  91.7120647  47.8608131 111.9903183  91.8092918  49.2505360
  13.2709641  74.6001577  35.7469797  14.0294689  74.5406485  35.1661491
  13.4558911  75.3549337  36.3058591  78.3520794 108.2390690  67.6917982
  77.8834009 107.4366665  67.9214144  78.4252644 108.2090569  66.7378712
   4.1505665 108.3843613  68.8507414   3.4867997 108.8161850  68.3129930
   4.2770142 108.9737606  69.5942879  37.3543704  14.1853560  77.1480370
  36.4121116  14.3526400  77.1279287  37.6979793  14.6593131  76.3907146
 115.8698368 103.8497639   4.0656951 115.9560871 104.4369602   4.8166847
 115.3149509 104.3284130   3.4498861 111.7300510  93.8767815  71.2138224
 111.9392872  94.3726444  70.4222584 111.1052322  94.4287777  71.6840744
  97.5806808  71.4807940  79.1427994  96.6906643  71.5568590  78.7988234
  97.5458241  71.9145012  79.9953938  83.3081722  89.4109535  68.9204741
  83.2370186  89.7045612  68.0121946  84.0865231  88.8539410  68.9318609
  66.3514376  86.3029003  27.0274615  65.4635000  86.2265587  27.3767066
  66.6209555  85.4000282  26.8588877  93.0955791 106.8857193  45.9585619
  93.4397602 106.1311817  46.4365244  92.5164413 106.5066051  45.2974319
 100.3671360  80.8392620  43.8296318 100.2576065  80.6756687  42.8928947
  99.9078560  80.1148796  44.2545795  12.4456066  71.1228704  40.2528048
  12.0305485  70.8567762  41.0732651  13.2216400  71.6127682  40.5248356
 106.5350312   4.5887030  83.5583115 106.5096349   3.7828196  84.0741920
 107.2752398   5.0789107  83.9161205 114.8545837  95.3832150  76.5933943
 114.0669823  94.8486614  76.4926100 115.5626011  94.7483540  76.7024660
  67.7198458 103.7072468  63.0301619  68.4244585 103.0593967  63.0236149
  68.1705475 104.5515060  63.0118656 112.0380211  65.3012514  37.5044966
 112.8794289  65.7568359  37.4778128 112.2445583  64.4017124  37.2507334
   3.6288780  71.1477613  52.1137190   2.8920216  71.7468119  51.9936943
   3.2516426  70.2765560  51.9915581  49.6820528  62.2600316  17.6327471
  49.4642241  62.1252012  18.5550265  50.6005175  61.9996404  17.5630240
 106.8234921  57.4041653  12.3334694 106.9353104  58.2554483  11.9103265
 107.7029419  57.1646118  12.6257312  66.8967390  89.6470833  67.6255512
  65.9774065  89.4160175  67.4926472  67.3076248  88.8346004  67.9209805
  73.6419630  94.3931007  74.3148947  73.8162231  94.3010998  73.3782005
  74.3957281  93.9840794  74.7400570   6.9606823  77.9706860  78.0582428
   6.7473835  77.5034761  78.8659906   6.3721890  77.5964975  77.4025822
  30.5320323   4.2212332  49.1861343  30.2519382   4.3587626  50.0910473
  31.2583316   3.6012305  49.2518091 111.9222421  31.6204775  36.6274786
 111.8148583  31.1390532  35.8071589 111.8116731  30.9584750  37.3099446
  70.9061909  97.9538441  46.7312813  70.8755779  97.1258926  47.2106457
  71.8225431  98.2259083  46.7814493 110.7850647  85.2672482  59.0314960
 110.6068707  84.3576622  58.7924767 110.7956982  85.2656937  59.9886370
 102.5050449  82.4520779  44.1913605 101.7552376  81.8682671  44.0765047
 103.2500648  81.9540977  43.8549232  95.6258965  64.0867186  53.9440870
  96.4503574  64.3403149  54.3590450  95.6713200  64.4690132  53.0677223
  80.7035923  91.7274952  78.2556963  81.5466499  91.9342709  78.6590862
  80.0667667  91.8377399  78.9617634  26.8332428  79.0819454  70.6309843
  27.4880547  79.0122652  69.9362898  27.2852082  78.7767601  71.4176369
  79.1162252  64.2631197  43.6862421  80.0689793  64.3477249  43.6496973
  78.8186312  64.5287561  42.8161240  95.8778667  88.3546448  41.0650730
  95.2449512  88.3338928  40.3472853  95.4307747  87.9199409  41.7912722
   8.6737675  73.3239508  51.9906569   7.7831597  73.1463909  52.2931910
   8.8167614  72.6941490  51.2841654  88.3474064  85.3510475  61.0883522
  88.3466816  85.2531815  60.1361656  88.9531040  84.6775723  61.3978767
  78.5441828  89.6281815  57.1208382  77.8916407  90.2604103  57.4220371
  78.0328751  88.8624001  56.8593454   0.0373406  98.9508152  31.9047666
  -0.2162128  99.8551178  31.7199230   0.2715725  98.9526749  32.8328633
 104.5588779 108.5433388  63.1242990 105.0262642 108.8377571  62.3425722
 105.0456619 108.9276791  63.8533735   6.9250817  74.4920874  89.7663879
   7.2124047  73.9282322  89.0482235   7.4648518  74.2257547  90.5106735
 111.0835361  84.1113567  49.0986967 110.9241104  85.0198174  49.3546534
 110.8995438  84.0913010  48.1595612 100.0499153  85.3170681  65.1042747
 100.2966690  86.1871815  65.4176950  99.3438530  85.4791737  64.4786310
  56.7390108  99.4559383   8.3031881  57.2913313  99.4177914   7.5223434
  56.7106771 100.3851128   8.5313612  19.7660679 102.4013710  48.5640478
  20.2842182 103.0400658  49.0537596  20.0260205 102.5308418  47.6519680
  94.8125744  80.5162525  33.1228733  94.0453434  80.6677341  32.5709248
  95.3068066  81.3346291  33.0758309  76.4772129 103.3587074  49.9551821
  75.8900404 102.6745224  50.2766657  76.2006855 103.5061169  49.0507269
  71.5054035  84.7571659  62.9325056  70.8840656  85.3028870  63.4145498
  71.1183310  83.8818741  62.9488945  19.0999377  18.3618582  64.2255068
  19.5787109  19.1741789  64.3902254  18.5778583  18.2269610  65.0163746
  24.5454449  63.5690212  23.9801979  24.9662728  63.2700348  24.7862697
  25.0074906  63.1045961  23.2823014  70.3674316  82.4711132  63.2693434
  69.5726252  82.5379944  62.7401543  70.0620699  82.5587845  64.1722822
 102.4921513  90.4327869  51.2147522 102.5888348  89.5065880  51.4361858
 102.0092487  90.4323101  50.3882885   7.5669712  79.1345072  50.7984257
   7.9108853  78.5027599  50.1668835   6.9793934  79.6898222  50.2859688
  77.2196293  98.5284805  46.4144230  76.3825703  98.8175392  46.0510921
  77.4324989  97.7347755  45.9235668   2.4250645  74.6143723  55.8269072
   2.9063839  73.8085318  55.6393337   1.8737740  74.3947744  56.5779686
 109.6396065  95.5733109  81.8742943 110.3027439  94.9398994  82.1486378
 109.9213696  95.8530140  81.0033131  74.2577362  91.9147778  60.5436707
  74.0043974  91.3445568  59.8177862  74.4708443  91.3135910  61.2573910
 114.2848969  73.6552382  26.3433528 114.9161816  74.3303633  26.0945129
 114.2856693  73.0435610  25.6070924  96.9285679  64.1735935  11.5479720
  96.2412834  63.9173985  10.9329617  96.7976952  65.1131773  11.6755915
  27.3994315  19.7007788  37.6249290  27.3431648  20.2914179  38.3760643
  26.6187061  19.1512145  37.6933622  13.5325760  71.5591097  53.9557219
  12.6009697  71.7491961  53.8452101  13.6705441  71.5797472  54.9027014
  81.5533638 102.8348541  58.4019661  81.5004635 102.9276943  57.4507475
  82.3546124 103.2993698  58.6437607  14.9832005 107.1560478  64.3311930
  15.5420632 106.6934490  64.9556160  14.6344513 107.8977489  64.8256493
  83.4922314  60.3517962  36.4188910  83.5191441  59.9583387  35.5467105
  82.9367256  59.7632980  36.9300890   6.3304657 100.5387115  46.5626240
   5.4705471 100.9455490  46.6687202   6.9340557 101.2755966  46.4682007
 105.2277660  87.4616432  75.6852818 104.7561073  86.6519451  75.8806419
 105.9659004  87.1839237  75.1428127   1.2040943 102.6668835  53.6220312
   1.1078400 103.4337234  54.1867542   0.9229798 101.9315910  54.1665983
 110.7641888  56.4233971  10.5893970 110.9588528  57.2398663  11.0495186
 109.9826622  56.6200161  10.0728750  30.0423700  32.6813745   7.1240191
  30.8831627  32.2777128   7.3393301  29.4063885  31.9713830   7.2116808
  58.1818008  90.3816891  43.8593006  58.7935114  90.9394455  43.3787203
  58.2048607  89.5450878  43.3947611 104.2486095  88.6767387  41.6974545
 103.7854290  87.9943943  41.2115479 105.1721382  88.4345818  41.6290092
  10.9165901  59.3609905  25.4162407  10.5116219  59.6974277  26.2156439
  11.0831589  60.1402235  24.8858786   5.2177758  80.9274769  56.8285990
   4.7560067  81.6388321  56.3847876   5.8669133  81.3684940  57.3766470
 111.0775852 107.3220444  61.7864323 110.3725815 107.9217911  62.0303917
 110.6293774 106.5123653  61.5419579  89.3265533  94.6094704  63.4247065
  89.6088314  94.4309330  62.5276661  89.1823483  93.7439251  63.8071632
  25.7956374   1.2602652  39.8599482  25.2607215   1.1825121  40.6499195
  25.1610912   1.3124693  39.1452026 107.0783138  76.6207886  64.5614195
 107.3707581  77.5000715  64.3214941 106.8512821  76.2081718  63.7280893
 102.9371071  61.1884975  52.1247339 103.4369755  60.4036236  52.3490810
 102.1045876  61.0819197  52.5849342  90.8033752  96.9912910  39.7973084
  90.9375477  96.3272190  39.1211176  89.8521996  97.0650959  39.8751354
  86.8222713  89.3940449  66.7554617  86.8537712  88.8107586  67.5137615
  86.3164997  88.9105797  66.1022520 111.2325764  79.1554737  55.6729126
 110.9789658  79.8873138  56.2353420 111.9963551  79.4757080  55.1929951
  76.7707920  98.9738369  69.3348312  76.1907148  98.4295082  68.8024282
  76.5578127  99.8714924  69.0797424  74.5908910  29.9032010  86.7791869
  74.8702317  30.0643434  87.6804252  75.1713162  29.2080392  86.4691974
 104.6135139  78.1616879  64.8991394 105.4465866  77.9930162  64.4589424
 104.5364189  79.1157341  64.9084759  20.6098217 106.8843842  57.4733782
  20.3039974 106.8753719  58.3803654  21.3877625 106.3266945  57.4773741
  73.2206249  94.8873329  51.2396193  73.8152504  94.5615482  50.5639601
  72.6257420  95.4739952  50.7725239  89.9596500  79.8152781  21.3238907
  90.8458996  79.5334768  21.0972428  89.7188663  80.4294395  20.6303048
  12.9116577  87.9286766  26.4634728  12.4914688  87.7562428  27.3060513
  12.3095459  87.5618839  25.8160448 105.5802155  86.6211128  61.8182850
 106.3511276  86.1704636  61.4735413 105.0231457  85.9193039  62.1549940
  93.2287598  87.1292400  15.0789571  92.3714828  87.1155262  14.6533751
  93.7206841  86.4295197  14.6492696  93.1266785  92.3329353  46.8570566
  94.0800381  92.2509003  46.8325186  92.8190136  91.7630291  46.1522341
 114.9631023  95.9196854  44.5324469 114.7599697  95.2946854  45.2283955
 115.3859615  95.3934479  43.8538551 107.2715282  75.5247974  87.4977207
 106.9328880  74.8982954  86.8581581 107.2916794  75.0384617  88.3219147
  19.8643268   1.6952170  63.8767767  19.0506232   1.8761195  64.3472958
  20.5225051   2.2281779  64.3228531  79.1377831  87.1059608  64.5589304
  78.4878159  86.7141247  63.9756298  78.7373686  87.9262257  64.8471355
   0.4685826  49.7230577  42.7984905  -0.1315742  50.4625416  42.7024937
   0.4444355  49.2831230  41.9487238   6.2049145  85.1991749  91.1332130
   6.3547844  84.2819214  91.3621521   5.6797356  85.1637650  90.3337383
  22.1510375   2.9409350  57.6950979  22.3631633   2.0860995  57.3202801
  22.1328128   3.5339678  56.9439507 104.2471218 109.7720718  42.8769541
 105.0904751 109.8179817  42.4265385 103.6236763 110.1508331  42.2572136
  82.8072071  97.5159264  88.7854862  82.2404003  97.2714996  88.0538940
  82.9623508  98.4528351  88.6656284  39.4290889   2.2122992  83.6823273
  39.8159660   2.8627242  84.2684174  38.5947479   2.5974692  83.4144688
  89.1824627  91.5345383  35.4308653  88.9544964  92.4423790  35.6310940
  89.4770908  91.1717415  36.2662148  19.6790946  24.2729891  79.9904013
  19.6909965  24.9543036  80.6626320  20.5276740  24.3516959  79.5545578
  98.4044361  86.1483097  74.9073362  99.0765762  86.7366505  74.5633602
  98.7690163  85.8234501  75.7306099 116.5367794 107.0161438  50.6943321
 116.7674828 107.7019978  50.0677395 115.6649590 106.7280388  50.4238701
 115.1525021  69.5758247  37.4770880 114.6076107  69.2415237  38.1895208
 114.7044373  70.3696823  37.1851015  55.1207317  18.9036120  72.6672268
  55.5951656  19.1039790  71.8603849  54.1972888  18.9450587  72.4186659
  30.4008353   1.0448111  70.2694845  30.0402892   1.8733061  69.9535227
  31.0286582   0.7842864  69.5955420  22.8095764 100.4657364  29.8614168
  22.7491326  99.6780205  29.3209720  21.9233746 100.5922604  30.2003312
  43.6369861   1.8233813  26.5007091  44.2656100   2.4436892  26.1315441
  44.1528762   1.0370387  26.6789079  13.5188544   2.3756064  38.1849360
  14.1496719   1.6670931  38.3126664  12.6640189   1.9500006  38.2509565
  31.2945712  15.9186972  47.9509354  32.2483791  15.9954108  47.9267931
  31.0159267  16.5904749  48.5732698 115.2222079   6.3153399  77.9819107
 115.0740785   7.2541560  78.0955124 115.6038970   6.0308779  78.8123512
  87.5375271  90.1025677  94.9766064  88.4400940  90.3990078  95.0937557
  87.5339985  89.2067242  95.3137779  30.8261723  85.2492619  63.6304379
  30.5908150  86.1111641  63.2869911  30.8747811  85.3742027  64.5782042
  18.0486435  97.9068279  82.5190067  17.6068444  98.7481213  82.4037933
  18.1977410  97.5905991  81.6279411 101.4652157  90.0589275  72.3422432
 101.9822788  90.0103855  73.1463146 100.6693459  89.5648861  72.5390863
  57.3011077   7.7541388  61.0083199  56.5408004   7.2351874  61.2707472
  57.0188869   8.2077635  60.2140951  60.5826075  53.9151143  26.5505747
  61.1580832  53.2618284  26.1527495  61.1249907  54.7006273  26.6215281
  59.2973566  98.6673355  85.2666664  58.4149647  98.9791679  85.4676056
  59.7414160  98.6424828  86.1142635  47.3203624   7.3697031  91.4304447
  47.1491492   6.5892542  90.9033680  48.2731498   7.4610175  91.4206982
  28.9777816  10.7980002  64.6124506  28.4569801  11.0942973  63.8659906
  28.3334697  10.4636324  65.2363873  93.7090492  87.5035381  80.9759617
  94.1597652  87.1849060  81.7579937  94.1132545  87.0224953  80.2538490
  47.9375518  16.9955958  84.7650814  48.8079227  16.6010607  84.8201370
  47.9807246  17.5647200  83.9966679  83.6406136  91.8836689  79.4118214
  84.3255138  91.4575768  78.8964701  83.7717628  92.8191948  79.2574978
   8.1413502  96.7525387  83.1309223   7.3269123  97.1077347  82.7748871
   8.6889118  96.5922260  82.3623562  12.6073898  11.1208476  59.0348148
  12.3913730  11.3377989  59.9417353  12.8296531  10.1900900  59.0576172
  82.7722549  98.8949013  39.1503882  81.9760323  98.9054203  39.6815729
  83.4825706  99.0122700  39.7811890   7.3958821 106.2651348  37.2447348
   7.7242035 105.3693485  37.3221922   6.7674393 106.3527012  37.9614139
  87.9228878  91.2412453  43.4014225  88.0490494  91.0161209  44.3231821
  88.7104321  91.7310333  43.1645346  24.5558113  87.6380730  69.1165209
  24.7011418  86.7971611  68.6829519  24.4602818  88.2642174  68.3988523
  99.3623924  84.8043346  39.3523169  99.7339249  84.5578003  40.1993179
  99.7673798  85.6475735  39.1494393   7.1068329 100.7608891  41.3443279
   6.8159241  99.9169827  40.9987497   7.0446629 100.6648254  42.2946644
 111.0927677  80.3341770  34.0881085 111.1773396  79.4251871  34.3758750
 111.2031746  80.2959061  33.1380677   2.8215737 104.0713120  62.6374626
   3.5297913 104.2644024  62.0231533   3.1128926 103.2852268  63.0994463
   7.9659600 103.6120892  60.4023218   8.5814709 102.8875637  60.5138826
   8.0997223 104.1611195  61.1749172  83.6905956 102.2194481  46.8289804
  84.3541908 101.7108059  47.2949791  84.0931702 102.4216366  45.9844208
   8.0305619  85.5627251  49.6197462   7.2116989  85.1238823  49.3892956
   7.8810162  85.9004688  50.5028105 105.6272030 104.6502495  31.2287211
 106.2543392 105.1020718  31.7933345 105.3555202 103.8855839  31.7363548
  78.9618587  91.7912197  74.9974442  79.1333771  91.2341499  74.2381811
  79.5201778  92.5571156  74.8635817   7.5008262  20.2551592  47.7503395
   8.2558978  19.7009219  47.5530767   7.6942409  20.6258620  48.6113834
  79.8240423  98.6793709  44.6291018  79.1617107  99.2210865  44.2000437
  79.3903732  97.8378201  44.7703743 109.8215103  69.3669462  84.3783760
 110.5741978  69.5759916  83.8252068 110.1251984  68.6499453  84.9350834
  42.9702819   9.7177733  70.6636953  42.0402492   9.9356593  70.7253599
  43.3530582  10.4402960  70.1660252  40.3648437   6.3388670  81.7142010
  39.8143829   6.3610400  80.9314346  40.8687938   5.5294646  81.6297626
  20.0758136   1.7088355  80.7657528  19.9572242   1.6809500  81.7151737
  20.6718696   2.4435462  80.6203079  98.7270546  80.1317596  60.8475256
  98.1018829  79.7432709  61.4594650  98.5529327  79.6916008  60.0155592
  60.8780622  97.1344566  34.5837402  60.1989126  97.7467823  34.3008137
  61.2895250  97.5631523  35.3341746   4.3776668   2.1420992  51.8002653
   5.1238788   1.5473784  51.7247725   3.6691440   1.5954531  52.1399784
  99.9529284  26.1489142  59.1272306 100.7522506  26.3052310  58.6243582
  99.2844933  25.9714068  58.4654760  94.0251255  82.8283119  43.1470299
  93.7929440  82.7561855  44.0728378  93.2005882  82.6876259  42.6816559
  91.0519695  76.9114304  25.7486749  91.6442585  76.7270184  25.0196838
  90.9907627  77.8663921  25.7718635   8.3546490  98.0747604  56.8637419
   9.0623898  98.2832050  56.2539244   7.5540585  98.2780647  56.3800478
   5.1002163  63.5816145  40.6003094   5.0564236  64.2983627  39.9673939
   4.1894192  63.4277534  40.8513165  18.2095302   1.6252078  55.5629253
  17.3561824   1.5836943  55.9945536  18.0155814   1.4902152  54.6353483
  89.5972538  91.7585850  59.8253059  90.0918388  91.0141373  59.4826460
  89.1781998  91.4233208  60.6179094 111.5743542 108.8978672  19.3727314
 111.3016129 108.0207729  19.1033792 110.9431934 109.1483402  20.0473690
  48.6525024   2.6744021  38.1866455  49.4715179   2.4481905  37.7458835
  48.9153922   3.2661570  38.8915920 111.3418388  84.3607998  38.6340332
 111.6942215  84.3776321  37.7442145 110.7274818  83.6267757  38.6345029
 101.7005253 101.4146709  28.5153365 101.7694283 100.5204487  28.1809044
 101.0115719 101.8160343  27.9857349  33.1990779   4.0636958  75.1340199
  34.0340102   4.4406832  75.4114962  33.3709110   3.7203349  74.2572021
 107.5785351  78.9747334  63.5990191 108.4105968  79.4106865  63.7830162
 107.0872688  79.6075726  63.0751801  26.5814555  15.5398882  44.2501926
  26.8014587  15.0735701  43.4437323  25.6250251  15.5780257  44.2514992
 113.3521956  13.5432948  53.6265087 112.5209254  14.0016306  53.5034227
 113.1062287  12.6235331  53.7253141  90.9263706  93.3839893  83.3698463
  90.3526306  93.9728165  82.8796005  90.6854916  92.5082874  83.0675983
  25.9681362  90.9306335  86.7832470  26.0820240  91.8589878  86.5797138
  25.0485462  90.7531452  86.5855408  98.4930706  89.3539143  66.7182541
  98.1909943  88.6869240  67.3347902  99.0466881  88.8760471  66.1006832
  91.7055702 104.2836761  35.4077983  91.3261890 103.4088421  35.4913545
  91.0809994 104.8588085  35.8498001  79.2301083  94.8180199  82.3507690
  79.8184490  95.5509281  82.5322628  78.3522606  95.1799679  82.4716663
  90.1427555  87.7567577  61.2216854  89.6027756  86.9749355  61.1058855
  90.6488895  87.8203869  60.4117441  20.9726108  10.5950202  68.6218071
  20.5471862  10.0774802  67.9381466  21.8890155  10.3198088  68.5952282
 109.0946865  95.2534008  68.4170914 108.3347321  94.7246552  68.1739283
 108.7340260  95.9575653  68.9559031  11.8941922 100.2230263  61.6145802
  12.7856392 100.0341511  61.3215113  11.5297550  99.3670940  61.8399286
  34.6482528  22.9198779  52.8312159  34.8590244  22.0329131  53.1229448
  34.2640460  22.8013552  51.9625568  29.6018661  15.8659400  65.1074219
  29.2913783  14.9758662  65.2735710  29.1091216  16.1518038  64.3381929
  13.5443366   9.9291552  48.8516331  13.0959380   9.7232092  48.0314159
  13.0895007   9.4055022  49.5112801 116.0221481 102.6876545  63.4974337
 116.6381454 102.0287704  63.1770611 116.5740204 103.4256077  63.7564611
  41.0932601   7.0033873  55.0919437  41.5086711   6.8789805  55.9452820
  40.9278167   7.9448164  55.0410700 104.5491409 107.6960659  54.1486120
 104.1205788 108.2609558  53.5055971 103.9963341 107.7575684  54.9276209
   6.5198863   2.8865660  63.2801914   5.6773341   2.6402319  63.6618567
   6.9920123   2.0590533  63.1876802  88.7887859  95.8440113  94.1140556
  88.1131935  96.0087299  94.7718334  88.3649349  96.0453415  93.2797623
 110.0162506 102.1177673  41.3078785 110.3815651 101.8709278  42.1574974
 110.4950619 102.9093361  41.0621309 110.0749493  93.9575195  64.5212603
 110.7261753  94.0782928  65.2123117 109.5852280  94.7798347  64.5072794
   7.5798554  93.8083649  60.2783632   7.7940888  94.4427681  60.9623671
   8.2952732  93.8859177  59.6471786  92.1127987 104.2743587  19.3729055
  91.7665863 105.1663876  19.3982863  92.6265717 104.2397118  18.5660148
  34.1295398   0.7355155  64.6072006  34.3491901   0.1363696  63.8937521
  34.6163333   1.5350092  64.4070005  37.4686015   5.4005564  50.2358294
  37.9399551   5.2198733  51.0490990  37.5144065   6.3517130  50.1386929
 109.5825577 103.4189796  35.7331824 110.4961967 103.1878662  35.5655932
 109.0805721 102.8488541  35.1507759 101.7417431  93.8542366  62.0219851
 101.6991901  94.6825504  61.5441751 100.8272743  93.6295414  62.1937132
  24.9624503   3.2945574  63.1705761  25.7335532   3.8530196  63.0718088
  24.3386615   3.8317145  63.6590099 104.1804981 101.3769627  62.9552889
 103.3678913 101.7599106  63.2858324 104.3735123 100.6631947  63.5631561
  97.0609856 106.4957142  64.4349909  97.9581451 106.2247562  64.2402554
  97.1585846 107.3085785  64.9309301  13.9149249  26.9365347  52.4500895
  13.9275802  27.8538455  52.1769333  13.9431918  26.9709433  53.4062529
 110.3521699  31.3469351  50.6693459 110.7173747  32.1765269  50.3617334
 110.2575225  30.8184184  49.8769140  14.4983715  81.4060593  56.9923019
  14.6886486  80.4700851  56.9292021  15.2115483  81.8282700  56.5134001
 105.2421570  61.5930891  57.8089762 104.8811531  62.0133638  57.0284128
 106.1827469  61.5405083  57.6393557  24.3695319   5.2076949  89.1956043
  23.8243259   4.4713820  88.9184284  23.7533534   5.9304465  89.3147373
  39.6272243   1.8833197  44.8375225  39.1250861   2.1360625  45.6122541
  40.2259792   2.6155699  44.6907854   3.3438439  99.7830200  57.0220709
   3.9638943  99.7948742  57.7512026   3.6478085  99.0697479  56.4607525
 104.9246407  73.4920359  71.3292885 105.2053833  73.2861090  70.4376554
 105.5953312  73.0996132  71.8882227  14.6901000  10.5112685  68.6674118
  14.6033061  11.3217104  68.1655312  14.1593230  10.6565512  69.4506121
  66.8888057   9.2523325  94.0014362  65.9434188   9.3953169  94.0464973
  67.2499908   9.8234404  94.6793842  43.3520568  13.0320967  58.3092451
  43.6656535  13.3412112  57.4593401  42.8447498  13.7649096  58.6583328
 112.7563953  85.1912785  73.7845373 112.6284027  86.0632992  74.1579580
 113.6619949  85.1940536  73.4745169 106.3440132 100.2099228  46.6752005
 105.7640362  99.4877911  46.9168091 106.9878292  99.8138523  46.0879517
 111.5389633 100.9804153  31.6356134 111.5022755 101.6140366  30.9190941
 110.7741356 100.4210377  31.5000772  92.1542263 100.2706432  45.7607841
  91.5610695  99.6104240  46.1192560  91.6979599 100.6096554  44.9906349
  23.5411609  15.2384032  64.3296432  23.5087550  14.7802485  63.4898376
  22.6309455  15.2619208  64.6249199 108.1944180 108.9391804  66.5859699
 108.9499474 108.3809853  66.4020586 107.9778290 108.7555695  67.5000858
  26.5493167   0.9312953  30.8680820  27.4361861   0.9521807  30.5085659
  26.2839282   1.8502558  30.9044766  88.5130484  61.8440580  11.8641905
  88.0974848  62.5029611  12.4204115  87.7829153  61.3971090  11.4359812
  28.7953705  63.6603165  36.4589572  28.8722081  63.7438917  35.5085135
  27.8720326  63.4563971  36.6075921 107.1359444  89.6212292  64.4851542
 106.8208027  89.4710636  65.3764296 107.4797726  90.5144215  64.4999886
 108.3477116  79.7475815  84.1175175 107.6329517  80.2123547  84.5526505
 107.9552841  78.9251709  83.8244724  22.1344817   7.9278410  55.4810858
  21.7462218   7.2353590  54.9463367  21.3987888   8.4970892  55.7068110
  13.1067813  30.1250113  65.3896856  13.3170093  29.3983592  64.8031616
  12.2348846  30.4094828  65.1156282  15.8437390  68.7559414  64.5343590
  15.1112789  68.5901165  63.9408541  16.5749115  68.2688951  64.1543627
  35.3542656  73.3171272  26.5335822  35.0446362  72.4722242  26.8599224
  35.9610218  73.6259890  27.2063971 103.6313152  91.8523693  75.6165934
 103.1960678  92.0921707  76.4346981 103.0967808  92.2569942  74.9333763
  29.2603535 101.4675713  21.2739921  29.1502995 101.9850159  20.4762602
  29.5498318 102.0999718  21.9316459  76.4843178 104.4137859  58.5140371
  77.1207571 103.9826107  57.9437208  77.0146704 104.9560642  59.0978909
 101.1168289  46.9981575  35.5440974 101.3158894  46.3178587  36.1873698
 101.7170334  47.7126026  35.7575393  43.7794746  12.1870173  69.7230625
  44.2199958  13.0358923  69.7628784  43.3537639  12.1780718  68.8657904
 102.3968315 106.0625267  65.3539038 101.7970562 106.6438580  64.8863935
 102.9592228 106.6522503  65.8560848  76.0612822 109.6880245  36.0942459
  76.9533682 110.0001907  36.2457991  75.6975937 110.3024387  35.4567099
  67.4687750  38.0997228   3.5951857  66.6865618  37.5586843   3.4872393
  68.0963499  37.7413892   2.9675154   5.7036537  94.8528099  37.9680324
   6.3110489  94.4958973  38.6160326   5.9470791  94.4219017  37.1487093
  17.6458973  99.1885662  16.6328835  17.9976696  98.6102486  15.9561014
  16.7428250  98.8949203  16.7531633   1.7947144  83.6335373  58.0323172
   1.2141270  84.1127777  57.4411535   2.4689431  83.2665825  57.4604893
   8.0290360  90.3600216  89.1974449   8.6941094  90.5809021  88.5454273
   8.4505886  89.7091103  89.7585583  22.6501889 100.1140022  52.5956202
  23.3813233  99.9234486  53.1832933  22.9910034 100.7786179  51.9969893
  27.4359364 108.2102680  94.7738171  28.3313793 108.5306740  94.6653461
  27.4808163 107.2861958  94.5282650  96.5144539 102.5873375  55.0204849
  97.1947002 102.7073574  55.6831217  96.9917583 102.3341274  54.2303658
 100.9349126  19.0906085  92.5038815 100.1312846  19.5929659  92.6382256
 101.6299981  19.6562041  92.8403282  12.8199542   3.2215441  66.4424562
  13.6161674   2.8275527  66.0860157  12.1171249   2.6337279  66.1654377
  87.1230984  91.1003780  76.7143202  87.6645947  90.4689598  76.2406921
  86.3233280  90.6188965  76.9258976  93.5377693  92.0266819  83.4366035
  92.6057339  92.0195580  83.2186699  93.7217140  91.1346626  83.7310600
 101.4284097  96.0745405  29.7831964 101.9150793  96.1902021  30.5992889
 100.5203640  96.2676715  30.0164032   4.1669446 106.4192482  34.1980815
   4.3560296 105.7201867  34.8240137   4.8370439 107.0811500  34.3686152
   6.9430858  97.8960847  40.4472303   7.6938134  97.6179515  39.9225593
   6.2544709  98.0714535  39.8059154 101.9453990  87.2259771  43.4787655
 102.4597823  87.8754579  42.9993725 101.3494264  87.7441918  44.0195990
 113.5558950  80.5452239  54.7453547 113.9003908  80.0752651  53.9859533
 114.0691911  81.3523923  54.7805834  31.2160015   9.0839165  20.2525735
  31.1168528   9.8112226  20.8669257  31.2721467   8.3067429  20.8085251
  40.7326412  41.7242861  40.1922464  41.3427353  41.8279076  39.4619870
  39.9498820  41.3397837  39.7976804  60.8578539  13.2838476  26.6890621
  61.6123533  13.1068945  27.2508883  61.2344408  13.4298909  25.8212590
  32.7768260  72.6224743  22.5640702  32.3959857  72.8422033  21.7138290
  33.5203391  73.2184659  22.6547003  39.0262014 103.6065673  21.2598038
  38.5547334 103.1174075  20.5855083  38.7254840 103.2269537  22.0854521
 100.3261172  78.3567511  40.9744453 100.6940018  79.2185103  40.7788277
 101.0895263  77.7970516  41.1164761  40.0211555  54.1135370  42.2791004
  39.9968511  54.5192920  43.1457043  40.2909642  54.8194324  41.6916084
  72.6709175   6.8618876  61.0353994  72.5394869   6.1082149  60.4601336
  71.7948675   7.2293401  61.1526680   6.0905772 104.4680159  83.4282398
   5.5968696 104.0258252  82.7376175   5.4804021 105.1150965  83.7820816
  10.5172616  76.7194449  31.4132404  11.4385587  76.6697680  31.6681504
  10.1384765  75.8965765  31.7225051  63.0515099   4.6629483  37.2009063
  62.8886080   4.0523633  36.4819622  62.6372099   5.4790372  36.9205785
 109.6331131  88.2599913  57.4988461 110.2395403  87.5266968  57.3951387
 109.0015446  87.9580080  58.1516552  11.2691146  81.1964809  67.8683138
  10.7772475  80.7206666  68.5375690  10.6128388  81.7353355  67.4265337
  21.7332870 103.0278658  37.0881629  20.9876329 102.7344804  37.6117611
  21.3720018 103.7034809  36.5143633  59.7175598  10.7470357  87.1705151
  60.4662752  11.0557151  86.6602516  59.2722559  10.1280093  86.5919495
   8.1015950  86.4679395  13.9020395   8.7950927  85.9102642  14.2545867
   7.3824149  85.8652078  13.7130177  10.2036172  91.6113364  60.5292702
  10.9303218  92.1185922  60.1675701  10.5605203  91.2147259  61.3239717
  40.9806252  13.3893311  33.6481404  40.5182219  13.1939900  34.4631600
  40.3411722  13.2055211  32.9599953  63.5558128  24.4192982  71.7356491
  63.8368559  23.9256430  70.9652233  62.7914143  23.9428949  72.0596409
   2.9104596 102.4256819  57.6359892   2.3417216 102.5230639  58.3997202
   2.9646331 101.4802217  57.4966955  37.6818114  89.1939818  76.8366432
  37.8530294  90.1227128  76.9927645  36.7558795  89.0816747  77.0517254
   5.4820472  94.5714270  78.0333471   5.3233653  95.1314007  78.7932682
   4.6626025  94.0912305  77.9143953  87.8493995  56.8864982  16.7755274
  87.7386540  57.5419329  17.4642806  88.4435004  56.2387536  17.1546130
  98.7406170 107.8320835  32.6162601  98.7976491 108.5773732  32.0183301
  99.3370568 107.1815511  32.2457194  25.0148183  90.3705071  61.4621639
  25.0751954  89.7687613  62.2041130  25.4076320  89.8913251  60.7325649
  40.6145620   1.4618018  37.8717923  40.7956219   0.6027567  37.4903584
  39.7087002   1.6475447  37.6245213  43.0872422  77.0251929  20.3688645
  42.8441602  77.0507132  21.2943339  44.0093309  77.2817718  20.3562570
  33.7571603 103.6631267  25.3145313  33.3107930 102.8956371  24.9568295
  33.3114081 104.4085800  24.9122429  11.9874650  77.8534256  63.1630278
  12.5325709  78.4364711  62.6346827  11.6114312  77.2398435  62.5318766
 112.8334796  95.5937552  23.6394024 112.3297726  96.3829826  23.4403253
 112.5450908  94.9548041  22.9876328   2.6151734  93.2364999  41.0046101
   1.8967467  92.6100587  41.0921574   3.1182128  92.9206692  40.2539825
  16.1736184  90.6044745  78.9290714  16.0180598  91.5453075  79.0119410
  17.1143132  90.5304944  78.7682819  45.0018930   8.2761645  56.3267565
  44.3532705   8.6870289  55.7551718  44.7485781   8.5462284  57.2094393
  28.7457466   1.9023071  80.6262207  29.0833664   1.6843517  79.7574615
  28.4862089   2.8211737  80.5587292   5.4620105 107.4256404  48.2194042
   6.0491782 108.1699007  48.0869436   6.0323745 106.7232012  48.5316467
 112.1330153 104.7647684  37.0072436 111.9875109 105.1943581  36.1643243
 112.9813587 105.0961946  37.3016977   9.2791062  87.7530586  34.7075009
   8.6405736  87.6892840  35.4177403   9.1137153  86.9808017  34.1666698
  56.2543661  52.1014862   2.3260073  56.8536145  51.5958322   2.8750472
  56.8257815  52.6613374   1.8003802   6.5267688 106.6688727  54.1515017
   6.3786965 106.2998824  55.0222206   7.4184686 106.4028718  53.9271164
  39.4184065  20.4315066  33.7694144  39.6395993  20.8414340  32.9331923
  39.0845346  19.5666063  33.5312748  14.6752292  69.7389137  32.4018908
  14.3821984  68.8807975  32.7084899  14.8208314  69.6209775  31.4632106
   7.3624068 101.7873674  14.8266482   7.0522624 100.8832782  14.8782730
   8.0205566 101.8546747  15.5184138 113.5558494   1.2943901  30.4299450
 114.3619275   0.7802417  30.4760075 112.9319977   0.7221963  29.9831414
  31.4209634 106.7100846  46.8398857  31.6245252 105.9692599  47.4108267
  31.1661035 107.4114882  47.4393129 108.9626061  96.0017919  46.1483574
 108.1073176  95.6614291  45.8859348 109.2314708  96.5614389  45.4198408
  24.2440176  25.8905578  43.0198717  24.0354228  26.8164587  42.8956747
  24.8698401  25.8810854  43.7440872 100.5017792  80.6938063  53.1429768
 100.4731190  81.6505515  53.1499386  99.5827925  80.4267966  53.1229687
   0.5788523 107.6082753  65.4031897   0.0695425 107.7712879  64.6092987
   0.5975443 106.6546907  65.4841757  90.6823026  96.2050020  48.0177164
  89.7699487  95.9418355  48.1384850  90.6335627  97.1234368  47.7525139
  31.1866117   8.1986952  71.5984821  31.5195084   7.3546255  71.9033766
  30.4777718   7.9731452  70.9960651  43.2434750   0.2987497  58.0756378
  42.3796225   0.0321124  57.7611637  43.1704426   1.2445775  58.2033396
  72.7988005  19.7528148  67.4488211  72.1345997  19.0930986  67.2492123
  73.6320066  19.3109298  67.2853136   5.2783137  98.3857059  62.2402477
   5.9562474  98.8346063  62.7453423   4.9371654  97.7191984  62.8365850
  28.3703881  90.0539862  55.6885958  29.1327745  89.7959076  55.1705313
  28.6879808  90.7661795  56.2437105  66.4144897   0.7007100  10.9094107
  66.8661880   0.0619783  11.4609754  65.8475733   1.1803092  11.5134180
   4.6090108  70.6323539  41.9866133   5.5070954  70.3233420  41.8675137
   4.0730744  70.0023662  41.5048218  81.0815334   5.3986406  30.3041601
  81.1748791   5.4857391  29.3555117  80.2619839   4.9181187  30.4210711
 114.3804156  97.6656674  50.5288029 115.2813470  97.8209709  50.8124161
 113.8906013  98.4159361  50.8655691  30.5890113  95.1234876  48.8535929
  31.3399345  95.7149731  48.9035225  30.8194762  94.3946635  49.4297266
  76.4337540   3.5656720  66.9637299  75.5992699   3.1510055  66.7448235
  76.5159798   3.4531534  67.9107332  30.6170154   3.7195128  25.5817127
  31.0930753   3.8783321  26.3968062  29.8698521   3.1806946  25.8418179
 102.6344144 108.6581664  31.0950160 102.1814358 108.7448915  30.2562523
 102.9138481 109.5482001  31.3094640   6.2798983  -0.1009054  76.0600519
   6.6676807   0.4363082  75.3692102   5.3653991  -0.2053649  75.7973480
 113.8859545 100.4288428  84.7101593 113.8139545  99.6608185  85.2768898
 113.3933937 100.1933562  83.9239216  21.8519282  16.6975772   0.3446101
  22.7446008  16.7000723  -0.0008806  21.8832779  16.0914803   1.0848097
  34.1546988  20.4766345  15.7763410  33.7010384  20.2708554  16.5937018
  33.4894156  20.3620267  15.0977433  36.5298253  87.8046285  49.3480301
  36.6656524  87.0027362  48.8433027  36.7421895  88.5107004  48.7376261
  77.3258734  17.1046162  23.9498067  76.4200926  16.8006170  24.0078902
  77.3924255  17.4938774  23.0778670  15.1397973  84.8409139  36.7517471
  14.4414788  84.9871360  36.1136246  15.6154710  85.6710516  36.7806959
  95.9314036  77.2968995  73.0667830  95.3757750  77.8671514  73.5981274
  96.0066544  77.7504550  72.2272301  85.0988674   8.3165026  43.6593771
  84.9062634   7.6802576  42.9706621  85.5263424   7.8043711  44.3458319
  81.5318992 105.4302745  20.1533461  81.4537849 104.5066999  19.9143064
  82.4748587 105.5935298  20.1735258  40.1427031   1.7182454  78.3000708
  40.7823801   1.0232902  78.1448841  39.8949957   1.6149597  79.2188787
  32.6462126   6.6623038  47.0683956  32.5460720   5.7627153  46.7570353
  33.5832024   6.8406743  46.9880056  20.9906268   1.2576231  54.5768976
  20.9690547   0.5559891  53.9261436  20.1619053   1.1726297  55.0483084
 108.3306062  96.0566949  28.3053637 108.8425481  96.8331539  28.0789614
 108.7306105  95.7330464  29.1125059  12.4969512  96.4305734  31.1726952
  12.3830396  95.9339749  30.3623605  13.2598001  96.0326945  31.5922093
  85.2767849   1.9472726  38.6724520  84.5336342   1.3899808  38.9034748
  84.9293327   2.8383157  38.7118340  35.2836591  75.5534255  71.2192822
  34.8936778  75.4034053  70.3580952  35.2586919  74.6969663  71.6459990
  65.0381279  35.2377009  53.2456207  64.5251799  36.0327554  53.3905506
  65.1515293  34.8632574  54.1192102  30.9769946 109.4773908  30.9488392
  31.3099605 108.5993986  30.7631087  30.0265151 109.3702899  30.9855509
  28.3258009  -0.0290006  60.5961084  27.6375937   0.5702475  60.8850813
  29.1401482   0.4509015  60.7469797  14.7480565  97.2055041  66.6070604
  14.4416886  96.7186760  65.8419657  14.2739421  96.8182956  67.3429394
   9.2808705 105.8584779  18.2615530   8.9744788 104.9558662  18.1741011
   9.5935947 105.9188654  19.1642094  56.9215918  25.0603580  58.6439753
  57.5645828  25.6071067  59.0954876  56.4522648  25.6664109  58.0706882
  10.6873685  88.2879364  59.6088600  10.7858020  87.3631059  59.3825150
  11.5301686  88.5318910  59.9914932   7.3354322 110.3680741  24.7228456
   6.7537385 109.7061179  25.0965810   8.0904132 110.3830870  25.3110766
   2.9076034  96.4280783  57.7102041   3.5449868  96.9355034  58.2126999
   2.3221379  96.0576211  58.3706760  21.8708181  42.5989914  33.8235545
  21.6741085  41.7271805  33.4808040  21.1202884  43.1333637  33.5639644
  13.5363847  87.1887862  61.6189766  13.9566213  86.3287722  61.6167307
  12.9291421  87.1567117  62.3582077  33.5124373   1.7961818  61.0260963
  33.2369733   1.2449531  60.2936363  33.3489609   1.2614560  61.8029976
   4.2526990  83.1553589  31.0134697   3.6615592  83.9080917  31.0269976
   3.6966926  82.4187051  30.7596397  44.2828035  56.0894108  24.6739793
  44.0867376  55.1535797  24.6291280  45.1514149  56.1332512  25.0737643
  44.5828485  11.8081796  49.6704054  45.1487112  11.4938366  50.3755426
  44.2907619  11.0128045  49.2251062  45.1587534   6.0860437  31.1617303
  46.0635805   6.2483919  30.8949757  45.1900005   5.2430803  31.6141343
   3.2163364 105.0854646  45.0953674   3.3550244 105.9910481  45.3727007
   4.0985900 104.7317474  44.9825048  20.8601975  11.2141871  38.3339143
  20.1360583  11.8220389  38.4834838  20.6501508  10.7917261  37.5010633
  22.3861104 106.2214448  36.9279981  21.4586955 106.0392608  36.7765212
  22.3890906 106.9254263  37.5765610 105.4438626 100.5187689  79.4426632
 104.9237716 100.3275990  80.2231693 105.4301655  99.7041248  78.9402723
   2.2416192  87.8854953  42.5780916   2.7785712  87.4171006  41.9389391
   2.7207738  87.7996003  43.4022665 116.4958011  87.1412312  69.0113020
 117.2996151  87.2703182  69.5147371 116.4327919  87.9191028  68.4570599
  65.9736538   4.6663028  34.8090649  66.7205954   4.3978018  34.2740679
  65.3312540   4.9906540  34.1779160  41.9019490  80.5796968  30.6763840
  42.3737317  79.7691332  30.8677983  42.5896722  81.2186014  30.4891133
  81.9772070  88.6994148  94.5887622  81.0544460  88.4714986  94.7019117
  82.1985500  88.3756734  93.7155904  33.9401627  34.5633006  34.7312903
  33.9696598  35.2821445  34.0999246  33.0405903  34.2396402  34.6838808
  69.3604565  19.1696084  60.6597853  69.1980886  19.6621180  59.8552322
  69.7219038  19.8152447  61.2670231  18.4109318   2.1441613  49.1328478
  19.1793442   2.6157701  49.4543409  18.4319210   1.3073507  49.5971107
 115.3328454 108.3527254  63.3990526 115.4367983 107.6530399  62.7541733
 114.4283664 108.6464480  63.2900763  84.7220516   1.7073661  79.7142553
  85.2417183   1.1041222  79.1829586  85.1377392   2.5597769  79.5845079
  57.4376249  21.6595006  63.8843584  56.8004847  22.3048234  63.5780239
  58.1211948  22.1796465  64.3067408  25.8216029 100.2942966  68.4165525
  25.4174644 101.1388110  68.2173109  26.6597205 100.3149288  67.9546356
  41.4367723  13.8342226  60.3874397  41.1649990  14.1582894  59.5287466
  40.6836033  13.9985991  60.9548378  72.2584677  22.1121264  29.7423100
  72.9304552  22.5096202  30.2960801  72.7088737  21.9196224  28.9199305
   1.6427976  84.8157250  53.2925749   1.9328433  84.0676986  52.7705002
   2.0745689  85.5698143  52.8911304  71.3175154   6.7847925  45.2329588
  70.4068232   6.9790196  45.4546499  71.2612820   6.0924000  44.5744276
  25.0389415 105.8286541  36.2592149  24.1265088 106.0384070  36.4584780
  24.9871570 105.1421665  35.5941701  30.0085044   0.0523286  15.9359825
  30.1001835   0.5843380  15.1455438  30.8460593  -0.4041098  16.0159612
  42.0674467  11.1959851   2.1166179  42.3867559  11.0551786   1.2253013
  41.1139011  11.1889088   2.0333472   0.2819973  96.1130916  91.2736607
   0.7680398  95.6001662  91.9193363  -0.1796264  96.7733382  91.7905807
  81.6094780   1.1190215  18.9610815  82.3592854   0.9788316  18.3828402
  80.8511353   1.1070438  18.3771205  40.8282328  10.3054738  26.9413257
  40.2437830  10.8866084  26.4545703  41.4437437  10.8949685  27.3770690
  34.3180305  97.7153360  47.3462105  34.6728593  97.6518153  48.2329416
  34.8807126  98.3539390  46.9082499  36.1730033  89.3220316  41.1058712
  36.0179216  88.4126889  41.3613701  35.3293401  89.6232902  40.7686758
  44.3152696  84.4567071  40.5363417  44.5922929  85.3612744  40.3905773
  44.3931371  84.0410387  39.6776271  18.5313350  96.9301378  79.8081064
  19.4395047  97.2078585  79.9278212  18.5708552  96.2762319  79.1101980
  11.8773395 107.9243574  34.1326332  12.4148112 107.6168217  34.8625517
  10.9864837 107.6612290  34.3636537  44.1951656   0.6152714  40.6641245
  44.0470839   1.5594587  40.6110859  43.3337498   0.2485510  40.8633947
  27.9345113  97.8405725  33.0347610  27.9313975  98.4241747  33.7934661
  28.8608676  97.7331912  32.8189826  66.7164660   2.0151606  53.3637905
  67.1297073   2.8450337  53.6020613  66.1972713   2.2206584  52.5863361
  35.6403017  12.9539990  40.7247305  35.4697561  12.0279372  40.8966494
  35.7245040  13.3473063  41.5933228 100.7369911  79.6778904  76.9324160
  99.8864257  79.6536504  76.4940262 101.2876403  80.2095043  76.3576078
  43.9413452  16.7934084  67.8092527  43.1208992  17.2316265  67.5832796
  44.2533445  17.2555721  68.5872602  44.7799444  16.0749912  50.0743055
  44.8822021  17.0003760  50.2966499  45.1633596  15.9947217  49.2009354
  24.8741227  96.5373825  28.2510662  24.1695243  97.1826195  28.1923914
  24.4738275  95.7183980  27.9590726 114.5248234 104.0661984  69.1391706
 115.3075372 104.2765455  69.6484280 114.4395410 104.7915595  68.5204554
  96.7902910 109.9980396  36.5300989  96.9918179 110.6970836  35.9080386
  95.8659577 109.8012562  36.3780594  25.0067121  95.1341104  48.4167528
  25.2767068  95.2870928  47.5112534  25.1146203  95.9830653  48.8455439
  45.0437337 101.8460762  41.5227509  45.7865697 101.2456398  41.5853119
  44.4019013 101.3781958  40.9885550  58.1888723  22.1993613  67.1054411
  58.5213566  22.7726936  67.7960730  58.8026333  21.4650536  67.0875931
  95.0986290  13.2529569  36.4772153  95.2449512  13.9352870  35.8220458
  95.4648304  12.4608254  36.0839558  13.8739377 107.9012301  28.6444831
  13.6415559 107.5044074  29.4839835  14.5031148 107.2923069  28.2577229
  44.2206383  14.2330325  22.0679021  43.3710718  14.1963363  21.6284466
  44.5831108  13.3534348  21.9623041   9.5103150  86.0335790  88.6359119
   9.1470557  85.3185998  88.1133461  10.3056079  86.2910067  88.1695747
  40.4288673   9.2430681  49.9942923  39.6759343   9.5036185  50.5247974
  40.1387787   8.4529263  49.5384884  53.6529714 107.9621244  25.8527923
  52.8972989 107.5595086  25.4248905  54.3197614 107.2753965  25.8571649
  52.5272465   4.3516323  53.2737494  52.1213675   3.8383123  53.9723110
  53.3258724   4.7027832  53.6676073  27.2466117  94.9383985  38.7494373
  27.0605880  95.2329456  39.6409917  26.5501863  94.3114470  38.5541081
  32.3104697 104.9983608  68.3192635  32.6003724 104.1849112  68.7321663
  31.3561803 104.9277990  68.2950354  12.8207761 100.7105850  25.6285262
  12.0511848 100.6786804  26.1968040  12.8297549  99.8600506  25.1895022
  45.0330210  17.9899406  39.7473311  45.5655193  18.5363317  39.1692901
  45.2704096  17.0924151  39.5142508  94.6554470  36.0470438  37.2668290
  95.3066635  36.1184740  37.9647112  94.2879963  36.9276547  37.1910644
  10.8436709 100.7840609   4.5696232  10.8080321  99.8372113   4.7054094
  11.7466050 101.0223412   4.7797623  38.5535556  87.6664864  45.0649309
  39.2477828  88.2568752  45.3577137  38.6804658  87.5982200  44.1186380
   9.0547639  96.8120955  49.1412449   9.9189025  96.5377532  49.4482088
   8.8656264  96.2292325  48.4059000  35.3542262  97.6316594  49.6992588
  34.9231607  97.8151630  50.5339718  36.2437659  97.9672801  49.8101950
  31.0880351  13.0041409  83.5194016  31.8423867  12.5019836  83.8276577
  30.7198620  13.3942640  84.3121719  73.3067465  28.2785821  20.8844066
  72.5485420  28.8572788  20.8040118  73.8027000  28.4201860  20.0780487
  20.6897163  34.9929500  18.5857987  20.7443690  35.1593804  19.5268333
  20.5150747  35.8515787  18.2004583   6.9851667  85.2310835  59.1857862
   6.9981032  85.3161608  58.2324600   7.0370132  84.2882811  59.3428373
  50.3649026  88.7014328  48.9234114  50.4364663  87.9622709  49.5273590
  50.1938993  89.4557725  49.4872952  51.0340309  14.3114018  44.8598242
  50.5600309  14.7201991  45.5840111  50.4557896  13.6095893  44.5609426
  70.9134912  31.8319559  78.8286877  71.3342428  31.0110664  79.0843010
  70.7549286  31.7375040  77.8894472  20.0509405   9.0861923  58.6431217
  19.4368696   8.6870021  59.2593956  19.4951832   9.5590991  58.0236673
   2.5638372  81.8508851  41.5637684   1.7482596  81.9000184  42.0624161
   2.5193578  82.5909530  40.9583282  70.1825190   5.0368267  55.8366203
  71.1100197   5.2556628  55.7466888  70.0248861   4.3789831  55.1594019
 107.5560366  85.8466684  13.3000183 108.0437552  85.2656614  12.7162433
 106.7722236  85.3491246  13.5330820  23.1962806  92.0494591  68.4498739
  22.8323251  91.1854433  68.6428595  24.0858680  91.8718409  68.1443977
  95.1972877 104.3721562  63.7432766  96.0306906 104.8410385  63.7859631
  94.9511360 104.4048827  62.8188467  68.2770300   6.7548579  53.9483166
  67.6949358   6.7038715  53.1901598  68.1717730   5.9112895  54.3882561
  55.1881313  12.6398790  83.4522057  54.2330551  12.6084149  83.3968163
  55.4872704  12.3799336  82.5809002  49.7644788  78.9436399  38.4953094
  49.1388208  79.6275746  38.2565355  50.4790288  79.0424310  37.8661084
  56.5595913  21.9359708  56.1115980  56.8883562  22.6787853  55.6052685
  56.4001513  21.2535024  55.4596424  49.1189718  12.0384836  29.9104714
  49.5149708  12.5836205  29.2305899  49.4117641  11.1503708  29.7061205
   6.8379527  85.5097734  30.7078576   5.8839351  85.5727254  30.7539010
   7.0024949  84.8642098  30.0205398 115.2536785  93.8426434  51.8165445
 115.1083218  92.9726516  52.1883249 115.5099260  94.3827962  52.5640774
 111.7367207 106.2344178  22.3137975 112.1885883 106.4862042  21.5084076
 111.5438425 105.3038662  22.1993232 111.3276040  88.6292850  20.1746631
 111.1950599  87.9392849  19.5246136 111.8340170  88.2092725  20.8699107
   4.8204261  84.8993479  37.2912979   4.6877509  85.1103865  36.3671279
   4.1978675  84.1939818  37.4676752  84.1608238  12.8910291   9.7363651
  83.2757187  12.9340935  10.0982404  84.7335529  13.0680478  10.4826069
 111.5344965  66.6861545  57.0530748 111.7550289  65.7874357  56.8083382
 110.9272730  66.5923749  57.7870512  54.5530176  19.6149945  41.0734034
  54.3667078  18.8098252  41.5563345  53.7342978  20.1097202  41.1076546
  43.7904531  91.2005793  34.0884209  44.1736203  92.0471858  34.3179274
  42.8467923  91.3319146  34.1804981  70.9884739  39.0858269  29.9666071
  70.4695559  39.6239042  30.5644560  70.4173279  38.9486766  29.2108226
  28.8768416  89.3962609  52.3877668  28.0386954  88.9846050  52.5981951
  28.7410813  90.3251587  52.5747204  78.2235050  13.8647413  85.7028103
  78.8125896  13.1251228  85.5538750  78.8063335  14.6133804  85.8296204
  40.3964168  95.2321123  38.8023448  40.1332742  94.3158244  38.8884044
  41.3483220  95.2182960  38.9018869  37.0997143  46.2870884  36.7525244
  37.3301172  45.8015919  35.9604168  37.4331498  45.7476997  37.4695420
  64.6412277  24.6163750  62.3550701  64.1667080  23.9791799  61.8211746
  64.9319315  24.1191220  63.1195688  50.9476423   5.3766662  13.9372158
  51.5923691   5.9958678  13.5949433  50.5845642   5.8110881  14.7090209
  71.6131926   1.2380765  50.2020454  72.3925638   1.7042941  50.5044651
  71.8917036   0.8037244  49.3958187  23.7088042  91.9513701  33.1717563
  23.3715039  92.5910520  33.7988663  23.3294755  91.1183690  33.4518433
  50.8223534   0.5541842  16.8489695  51.2410021   1.0987040  17.5156498
  50.7883310  -0.3190017  17.2396362  57.9562187   4.8658708  17.2219884
  57.8872061   5.4269415  17.9944313  58.6214972   4.2183015  17.4549949
  59.0874290   7.5086123  36.7270231  59.8653793   7.6173937  36.1800337
  58.3577251   7.7493429  36.1562204  35.6250048   5.8805150  52.3945665
  36.0480189   6.2080997  51.6008568  34.8318720   5.4457521  52.0812702
  58.0058908  35.5993295  63.4044313  57.2171450  35.1201534  63.1504679
  58.7244463  35.1020861  63.0137110  58.5603523   6.4046979  44.9829721
  57.9855394   5.8010185  44.5124435  58.0170155   7.1760470  45.1443386
  43.1182194  34.4231534  89.7639656  43.7201214  33.6801100  89.7211456
  42.5877571  34.2570901  90.5432320  53.8046646   2.2922157  21.3930535
  53.3869314   2.9642946  21.9316053  53.2716894   1.5092014  21.5310955
 112.1122491  99.5850157  51.2665176 111.8582784 100.3087603  51.8391657
 111.5418326  98.8618719  51.5271378  17.9410583  95.1564168  15.1499951
  17.2101956  94.8117720  14.6368754  18.0311090  94.5438372  15.8799744
   1.8641835  95.3153645  78.9839602   1.6662246  94.8212515  79.7795057
   1.9675523  94.6471261  78.3064604  94.3457138  93.7255978  49.0902042
  93.7281977  93.1546771  48.6330891  94.0495562  94.6122610  48.8844061
  34.0404397  89.5238720  34.8455501  34.2262727  88.6119591  34.6216893
  33.4057265  89.8074614  34.1875625  51.3151121   9.3264258  37.8958821
  51.1879683  10.1264727  37.3859882  50.4731655   9.1811031  38.3274317
   6.7600566  90.7213127  37.3994493   7.2393256  91.2469160  36.7589211
   6.7715007  91.2483465  38.1984091  32.0119333  27.0769787  14.3583214
  31.6829205  26.4236498  14.9756896  31.3649464  27.7817893  14.3880379
  13.3214742  95.4812681  23.7644529  12.8505117  95.3832685  24.5919919
  12.9338151  94.8221063  23.1887317  42.1485472   3.0694553  52.5418997
  42.0064354   3.6809689  51.8193436  42.4227953   2.2565933  52.1173096
  53.4945822   1.7656618  38.6785626  52.6851702   1.8056783  39.1879630
  53.7763596   2.6774532  38.6046028  23.2184917  80.9954869  68.1175518
  22.8523236  80.1371347  67.9045200  22.6980573  81.3001000  68.8609171
  65.2785492  13.5285079  57.2320557  64.4457150  13.9521825  57.0243979
  65.1791143  13.2359636  58.1380129  62.4585485   8.2139075  73.6809635
  62.4957848   8.6281705  72.8188562  62.4731350   7.2748095  73.4962654
  67.9076862   2.7268821   9.6601784  67.9063988   1.7751357   9.7622031
  66.9972897   2.9845393   9.8051572  48.5182285  11.6325772  47.1014643
  49.0001392  11.3776648  47.8882408  47.8579187  12.2506797  47.4147844
  50.6729078   1.0404936  63.3742189  51.1533165   1.6280210  62.7909088
  51.3535404   0.5357159  63.8193846  10.1297885 108.4154372  57.0161772
   9.2110950 108.5497219  57.2490025  10.1044684 107.7889525  56.2929153
  29.2035609 107.4930622  22.4841666  28.7853604 107.6665281  23.3275223
  29.1195899 106.5469938  22.3652744  11.3229781 106.8771892  27.6172781
  10.5496961 107.2415950  27.1866155  11.1611825 107.0087772  28.5514832
 107.9318821  87.9093420  37.8634048 107.8608238  88.2932412  38.7373638
 107.9655492  86.9653832  38.0184650  82.0793247   2.5567153  37.2892070
  82.5542736   2.0593080  37.9549742  81.2235355   2.1310812  37.2373581
  58.3014727   3.0510905  62.3544407  58.0001640   2.6675341  61.5308332
  58.3319187   2.3143396  62.9647684  54.8219776  29.4288850  41.3379622
  54.1883039  30.0221848  41.7413092  54.7665739  28.6284423  41.8599319
  30.9394407   3.0346143  35.8464193  30.5435157   3.8398254  36.1797523
  31.4067626   2.6687837  36.5974259   8.3105880 103.7329434   1.5408139
   7.3659068 103.8836252   1.5739316   8.6515981 104.1789829   2.3160523
  70.0862885   4.1268995  46.3157225  70.5177593   3.9183262  47.1443129
  69.5979357   4.9302691  46.4955568  61.4428806   9.3492436  52.9086161
  61.0123396   8.6055917  52.4868965  61.9680882   9.7471875  52.2143316
 109.7074067  81.6937243  49.1846514 109.0017545  82.3117363  49.3753004
 110.5016624  82.1382367  49.4809580 113.0849540  84.6074807  43.2501841
 112.8391611  84.8563420  42.3591805 113.2205283  83.6609732  43.2057238
 109.5803510  99.4745635  47.8704166 109.0948879  98.8107656  48.3602381
 109.1681659  99.4839381  47.0065594  91.2296009   7.9433984  51.5534115
  91.8748283   7.9086298  52.2596073  91.7514610   7.9266906  50.7511473
  55.4181910   4.7045085  45.3724146  56.0600948   4.4790405  44.6991014
  54.7895193   5.2702314  44.9241257  65.3289080  31.3575745  52.7412748
  66.1455965  31.3317370  52.2426939  65.5760145  31.0715890  53.6206961
  42.5972986   2.6170361  65.5824137  42.4297237   2.3410672  66.4835215
  43.0936575   1.8940178  65.1988745 100.3402697  82.4410092  73.1454992
  99.5191609  82.8238546  72.8365660 100.5839168  81.8147050  72.4638748
  34.3423015  98.7413489  17.6757228  33.9377433  98.4836947  18.5040832
  33.7388545  99.3849503  17.3044300  43.5279465   9.4413155  19.6969509
  43.8837481   8.8784587  20.3845787  42.6112795   9.5681131  19.9416447
  23.0567771 110.3136893  37.1801543  22.7935773 109.5275716  37.6586699
  22.4491054 110.3594651  36.4420033  44.7891217  93.3719825  54.1789198
  44.1143685  94.0449499  54.2686796  45.4663449  93.7820863  53.6409521
  28.3251691  22.6751399  46.0609722  27.9412746  23.4413266  45.6345797
  28.8656139  22.2694349  45.3830671  61.6115952   0.4801837  27.6948404
  61.3159275  -0.2017922  27.0917487  62.5376940   0.2865119  27.8399611
  35.2303791   0.3497785  57.2931194  34.9492359  -0.4667693  56.8802738
  35.7694125   0.7804156  56.6296244  67.7663136   7.3364794  23.2520342
  68.0264187   6.6475803  23.8635874  66.9159842   7.0513237  22.9175901
  28.0880004  60.6124698  57.6959229  27.7820998  60.0694095  56.9694614
  27.6486951  61.4532243  57.5679970  15.2293712  97.9068243  18.0814803
  15.0168496  98.7910615  18.3801281  15.9072524  97.6060735  18.6866701
  81.8266106  28.7605357   8.8243777  81.8886566  28.4374595   7.9254878
  82.4448013  28.2201219   9.3163335  95.3768158   7.9752904  48.7585497
  95.3658199   7.0512635  49.0081215  95.9677696   8.0132502  48.0065107
  35.9294891  17.9555607  46.6046238  35.1906013  17.6263404  47.1163797
  35.5408645  18.5930908  46.0056591  29.2114687   9.4012219  43.4936619
  29.5204782   8.8407189  44.2054081  28.2570243   9.3592441  43.5528755
  42.2289353 104.7502845  35.5870509  42.4674207 105.6761928  35.6323099
  42.2841245 104.4442140  36.4923167  59.4488239  26.0520911  46.5428543
  59.1576242  26.8139386  47.0438814  58.8497448  26.0124540  45.7973576
  39.1306764 107.2666972  71.4860725  38.9558631 106.3902636  71.8289089
  38.6751205 107.2899677  70.6445503  23.8892245  39.3047547  25.8773375
  23.4739232  39.4339323  26.7300224  24.7082114  39.7971153  25.9327674
  50.7096815   9.2342329  54.9614573  50.3005600   9.4348264  54.1196632
  51.3916111   8.5965276  54.7504187  19.2264396  98.1554913  36.0531354
  19.9896604  98.4459864  36.5524793  19.5876866  97.8431355  35.2235770
  85.4655331  30.6536318  78.1018432  85.8530300  29.9675394  77.5583752
  85.8979481  31.4583636  77.8160842  52.9822588  31.6420913  52.4278879
  53.7051201  31.5766978  53.0519247  52.3096991  32.1407461  52.8918314
  35.3857851   3.6159194  46.4676571  35.8998609   4.3043905  46.8895149
  35.4560804   2.8674012  47.0601225  44.5054150  22.6534653  24.1806149
  44.0591192  22.4881673  23.3501172  45.1363707  21.9380450  24.2599940
  65.2572107  33.9960814  50.8848333  65.3653049  34.4049454  51.7435408
  65.8183384  33.2212329  50.9161520  33.4518176 109.9386183  53.0792618
  34.0678578 110.1075351  52.3663855  32.6224786 110.3035663  52.7706528
  63.1107378   1.2682705  43.9783192  63.0651331   1.1888123  43.0255127
  62.2136927   1.1143266  44.2747068  54.2070436  22.4162984  15.6722879
  54.6599960  21.6916442  15.2410722  54.4431639  22.3306227  16.5959442
  61.1617136  10.2646649  49.0703297  61.5126181  10.6067204  49.8925781
  61.4001703   9.3376571  49.0753794  27.6721316  98.1398880  49.5247841
  27.7945882  97.3993908  48.9307308  26.7770797  98.0410885  49.8493671
  44.4470978  10.6633675  39.5521545  43.7985659  10.1263058  39.0969563
  45.1539469  10.7754397  38.9165163  32.3533678   9.4670928  17.6667893
  33.2930779   9.4557202  17.4849987  32.2858572   9.2365539  18.5933566
  60.6777716  19.1873312  51.2915611  61.1838961  19.9639559  51.0529613
  60.6577206  18.6598730  50.4930496  27.1599322 108.6873134  67.7762747
  27.3497039 107.7532247  67.6885414  26.2943154 108.7939358  67.3818445
  52.7556515  30.0999546  16.9039118  52.6904154  30.6292701  17.6987720
  53.6960936  29.9776793  16.7740905  37.1163845   1.3501899  55.3280449
  37.5774670   1.1472242  54.5141459  36.8186426   2.2529696  55.2159262
  21.6400605  69.4184410  57.5457096  21.0123378  68.9473449  58.0936718
  22.4114352  68.8520967  57.5240755  20.7975793  37.9594207  26.4402175
  20.3634334  37.2140861  26.8552160  21.1743069  38.4531403  27.1686053
   1.8357640  87.3650037  70.5302715   2.3183423  87.1128403  69.7430229
   2.4822122  87.3133384  71.2343073  58.6417055   0.9128111  67.8778505
  57.7418423   1.1040147  68.1422710  59.1647768   1.0963532  68.6581993
  70.0337267  24.5081162  21.3560939  69.6609163  23.6329865  21.2493420
  69.3346548  25.0179553  21.7654824  96.5466595  15.5558872  66.4999437
  97.3176575  15.2090311  66.0510683  96.4646435  15.0166273  67.2865200
  81.1955833  25.5142260  40.3721237  81.7561436  24.9761295  39.8131490
  81.6776371  25.5867147  41.1959028  33.8903642  19.7919369  11.2634099
  33.4825277  20.4248190  11.8544793  34.4881082  19.2940319  11.8211031
  98.8359737  41.3629389  27.5789881  98.0966759  41.8574572  27.2252584
  99.0013885  40.6809711  26.9279981  53.7350082  15.2091742  47.5691605
  53.6345720  15.3535628  46.6282606  53.1845903  15.8792830  47.9744101
  34.4247437  10.0223815  59.7941256  34.3413973   9.7529423  60.7088327
  34.8030162   9.2613095  59.3537712  84.0843868   8.9795858  25.6551051
  84.6777725   8.7284678  24.9472499  84.4788361   9.7668731  26.0303593
  72.9038525   5.3128952  41.7742014  72.3914003   5.0818878  42.5489664
  73.7334824   5.6379116  42.1239424  74.9000406  14.6927607  48.5872698
  74.8294115  13.7429011  48.6821890  75.5274200  14.8162925  47.8749752
  87.9690170  43.1970501  70.6650257  88.8441753  43.5632706  70.7923508
  87.3764515  43.8720942  70.9958124   0.3738671  94.2436599  30.9407234
   0.1742273  93.3169579  31.0733891   1.2766963  94.3399464  31.2438059
  78.7585831  20.4670691  36.0662317  79.6636391  20.2389002  36.2784696
  78.6703634  21.3791871  36.3427973  48.8168430  16.5659654  33.9559603
  48.4891129  17.3368168  33.4927011  48.1330204  16.3610446  34.5936346
  56.6529560  21.5770817  41.4338398  56.3278055  21.7451262  40.5493784
  55.9336281  21.1212373  41.8708849  74.3927288  25.9909272  30.7098866
  75.0372601  26.6827226  30.8589745  73.5707426  26.4577723  30.5594587
  76.7216587  38.0070448  40.2324009  77.4470425  38.4607673  40.6615686
  75.9355497  38.3941245  40.6176758  76.2047672  14.0747952  60.5863714
  76.3677645  15.0169885  60.5423832  76.6457558  13.7191558  59.8148298
  25.0672608  91.3890337  22.6188636  25.7498818  91.1365949  21.9971466
  25.5357057  91.5437376  23.4391427  33.9131862  75.7547604  51.1613750
  34.2215043  76.1376630  51.9826937  34.5341331  76.0673677  50.5034018
  34.8364049 107.7907798  84.2127705  34.3566114 108.3061463  84.8611736
  35.4298144 108.4180618  83.7997150  89.1528797   6.7091250  45.3031588
  89.6164608   5.9981638  44.8605967  89.1779327   7.4355900  44.6803761
  90.1398754   3.7134746  41.3105679  89.4339180   4.3544790  41.3940668
  89.6919918   2.8845474  41.1417103  23.0783158 109.7010397   7.4814403
  23.7987023 109.2391575   7.0525563  23.3442288 109.7600648   8.3990675
  93.4389496  40.5830812  44.4891930  92.6449871  40.5873537  45.0238323
  93.3333778  41.3281727  43.8976479  83.4490967  23.5811234  55.7864952
  82.9769802  24.4022393  55.6482840  83.6690998  23.2800245  54.9049234
  46.0444927  10.9912252  55.8056736  46.5818977  11.3112235  55.0810862
  45.5247211  11.7497563  56.0715628  66.6315794  32.9140329  38.0549169
  66.7672157  31.9733953  37.9407501  67.5122404  33.2706499  38.1710815
  57.6348305   2.1320455  48.9188862  57.8478050   2.6445845  48.1390285
  57.4154568   1.2633489  48.5820293  68.1893587  11.7923903  72.7091169
  68.4579086  11.8797624  73.6237097  67.3746443  11.2912476  72.7455473
  81.5468597   4.2501611  47.9477930  80.6301403   4.2031360  47.6764107
  81.8583870   5.0839877  47.5957727  31.5216380 109.8075549  17.4822819
  31.6600305 109.3060040  16.6788352  32.2596913 110.4162024  17.5148082
  69.7212982  16.7949581  57.1095514  70.2235508  16.6268659  56.3122320
  69.2273188  15.9882534  57.2559929  55.5211306   7.3830575  50.5603981
  55.6555605   6.7935044  49.8183823  55.2752733   6.8059218  51.2833786
 103.7207699   6.1220229  47.1139717 104.4088840   5.6842285  47.6150465
 103.4753227   6.8750781  47.6514578  42.0014763   4.8556331  50.2999115
  42.1031189   5.4861420  51.0129023  42.8342199   4.8900852  49.8291826
  65.2146292  29.4562864  58.8698483  65.1022291  29.5885587  59.8111773
  64.5963144  30.0657868  58.4668255  60.9436989  36.8760490  46.9241714
  61.3277912  37.3501348  47.6617002  60.3524303  37.5079298  46.5150738
  83.4926605  12.4712217  53.9507008  82.9107285  12.0118916  54.5561838
  83.2931614  13.3979547  54.0833616  74.9306393  41.7242432  48.6159325
  75.1975107  40.8370876  48.8566971  75.1558685  41.7987490  47.6885939
  34.3313199 104.8718720  21.0245085  34.7290641 105.1822232  21.8379664
  35.0723678 104.7223668  20.4373741  54.9666864 108.5971945  32.1016312
  54.2791444 108.6812422  32.7622795  54.9990064 107.6604616  31.9074202
  86.7133427   7.9216051  32.1235633  86.6992188   7.4229878  31.3066101
  87.1527290   8.7411022  31.8964267  75.2143812  14.7454894  63.2441378
  75.3382206  14.4708908  62.3355770  74.3985605  14.3230963  63.5129356
  75.7351398   4.3826321  19.6753287  76.4766073   3.8634706  19.9866664
  75.1338816   4.4118166  20.4195499  40.8920985 100.6248676  49.0905523
  40.7999831 100.0482630  49.8490191  41.1385804 101.4718681  49.4621277
  37.7012563   6.2281531  26.3033628  38.1537390   5.5076110  26.7418957
  38.3351398   6.5562165  25.6655550  49.9891376  21.0290289  39.2862010
  49.1818666  21.5286231  39.4084549  49.7173882  20.1138902  39.3562078
  39.6942544  33.4945226  11.8164349  39.2114520  34.1981077  12.2501433
  39.2044663  33.3291793  11.0108280  78.8786364   3.8646308  31.3035655
  78.2699585   3.4303713  30.7059360  78.4695911   3.7805581  32.1648741
  86.9985104   0.9472720  47.7619028  87.1603680   1.8294469  48.0962706
  87.3852730   0.3676785  48.4181929  14.0516996   0.7141976  35.5852842
  14.6013916   1.4543347  35.8427095  14.4711840  -0.0467546  35.9868002
  36.1574101  10.9375000  30.5075264  35.7150269  10.7977033  31.3447762
  35.9215069  10.1733994  29.9814725  76.3735104   0.1667203  48.9281797
  75.8039093   0.2641752  49.6912575  75.8355093   0.4520807  48.1896973
  60.1902390  29.7339964  49.2331791  60.0450468  30.3258944  49.9712896
  59.3243456  29.3742204  49.0407562  60.9202719  31.2840724  46.6799164
  59.9774456  31.3147354  46.5175343  61.0133314  30.7151151  47.4440289
  28.2752734  95.3193866  58.5534811  29.1862899  95.2405249  58.2705355
  28.0529052  96.2363254  58.3922100  11.9058782  89.0046202  71.6971493
  11.2067061  89.2841708  71.1061811  11.4905530  88.3622872  72.2726011
  72.1340275   6.9511056  49.4397545  72.4024153   6.3789016  50.1586342
  72.1700621   7.8332537  49.8095512  67.6567554  31.1146760  19.0025210
  67.5840473  31.9368434  18.5177672  68.1327581  30.5301261  18.4126413
  86.9594479   1.7152570  54.9270105  87.8463745   2.0726466  54.8837042
  86.7937660   1.3782474  54.0465546  81.7246151   7.5649023  31.7835236
  82.5861835   7.8753799  31.5050650  81.6914940   6.6546118  31.4894056
  41.3636255  49.3788481   0.0309862  41.0764027  49.6923304   0.8885774
  40.8588839  49.8979235  -0.5951349  50.5752897  11.2223136  35.9743309
  50.6893349  11.3099182  35.0279951  49.6441603  11.3897812  36.1198831
  62.5609541  38.4579444  66.4990425  63.3637571  38.9706683  66.4049673
  62.2119474  38.7139130  67.3528004  60.2904206 110.3292432  32.8587103
  59.9800378 109.4500157  33.0751705  61.2447053 110.2549962  32.8663397
  75.0684261   8.8866609  68.7469625  74.1135120   8.9072251  68.8098383
  75.2444077   8.7610114  67.8145075  61.3296366  25.3392291  61.8120098
  62.2809792  25.2744031  61.7285252  60.9938622  25.0332832  60.9694624
  74.7780800  23.6470985  51.3321495  75.2363634  24.1421890  52.0111895
  75.4765415  23.2881355  50.7848597  92.1071529   9.9803662  47.4142599
  92.3757267   9.1347867  47.7735567  92.2257900   9.8875189  46.4689875
  44.0814686  15.4482257  35.8877110  44.0571690  14.5398748  36.1886072
  43.6727858  15.4249287  35.0224543  93.6353302  28.1071901  65.7835007
  93.6905098  29.0627956  65.7851124  94.3558502  27.8266263  65.2192640
  48.5873175  12.7465057  44.7292233  48.7048626  12.4975920  45.6459856
  48.2146502  13.6274087  44.7661066  64.1192818  28.7651300  39.2166305
  64.5497561  27.9979515  38.8393259  64.1959476  29.4391227  38.5412884
  97.8235054   0.1982724  45.8712816  98.5770798  -0.1806040  46.3238525
  98.1159687   0.3036746  44.9659729  55.9836817  28.6589241  45.1341915
  55.6274605  28.7821531  46.0140467  55.2569294  28.2919955  44.6307755
  57.9865170  31.4338136  46.3083601  58.2608461  32.3295951  46.5047073
  57.2013807  31.5362191  45.7704878   5.8291942 103.9953302  44.6662331
   6.3106233 104.8223828  44.6452570   6.0273439 103.6245947  45.5261898
  96.6150570  21.7768550  65.4758310  95.8163929  21.2529755  65.5384111
  96.9923115  21.7443514  66.3549519  85.6998539  35.5406260  41.9756699
  85.7882500  35.4389453  41.0279989  85.2612877  36.3842392  42.0861626
  64.1933775  14.8541987  51.1817837  65.1376772  14.7392642  51.2881613
  63.8452864  14.8133969  52.0725155  53.6667013  35.1600599   2.2894403
  54.1355753  35.8849907   2.7028009  54.1454506  34.9976301   1.4766371
  63.9121580  22.2652650  25.6239247  63.0422211  22.6356769  25.4748034
  64.1820621  22.6210594  26.4705610  24.7077304 108.3969147  51.7952919
  24.0823155 107.9035335  52.3260117  25.0478345 109.0675662  52.3875618
  13.7947875  77.5868236  27.0481634  13.0260783  77.0988332  26.7528915
  14.5369702  77.1194660  26.6647935  63.4550142  27.1048045  52.1352386
  64.4082165  27.0500302  52.2033262  63.2997417  27.5584888  51.3068104
  72.1435595  16.4560366  25.1268935  71.3910246  16.6990685  24.5875764
  71.9587708  16.8412936  25.9834337 109.3896198   5.9277576  20.6073236
 109.7580814   6.8110013  20.5885625 109.9977303   5.4260427  21.1502051
  88.8536644   4.9095723  57.5859642  88.4260941   5.3403056  58.3261538
  88.4365273   4.0495074  57.5357628  61.8138981   6.1130607  42.4983215
  60.8678770   6.2080342  42.6090145  61.9135857   5.6805873  41.6502285
  46.0531282   5.0289363  76.4285135  45.4998302   5.8096719  76.4051056
  45.4413176   4.2988759  76.3339949  57.8284407  31.7188334  33.3109093
  58.1464863  31.7646670  32.4092555  57.7748680  32.6320457  33.5927010
  87.3659325  38.3329868  55.9176588  86.4367104  38.1274486  56.0203362
  87.6175690  38.7278175  56.7525339  54.5763397   6.6201824  31.4881492
  54.7906637   7.3218668  30.8733845  53.9441252   7.0135492  32.0896459
  77.5493717  23.5687232  94.3417835  77.2926474  23.2456326  95.2054596
  76.7220592  23.7823057  93.9103127  74.6164274  31.3457203  83.9754486
  75.2600431  30.8209801  83.4993935  75.0406885  31.5460801  84.8097706
  76.6974258  22.4507022  62.4322414  76.6589165  22.6950502  61.5075541
  76.5245676  21.5092611  62.4385977  55.8303213  35.6387281  29.9157548
  55.8713055  36.3150239  30.5919027  55.4215097  34.8901558  30.3502011
  81.3436127  26.7697072  23.8028264  80.6680679  27.4461079  23.8513708
  81.8011951  26.9467497  22.9809308  32.7105355  21.7634559  42.4590826
  32.6371789  22.5315070  41.8925571  33.6339664  21.7380929  42.7098083
  59.5179224  49.7389603  37.5756335  59.8432589  50.4511547  37.0250273
  60.0902557  48.9989567  37.3730040  69.3009853  32.9693413  49.5565033
  70.2465963  33.1131530  49.5935202  69.0442181  32.8288960  50.4678631
  48.6323911  93.2956575  16.6449952  48.5521012  92.7935766  17.4559832
  49.5047265  93.6869883  16.6909313  62.9341269  11.3777328  51.2892580
  63.4450769  11.6338980  50.5214453  62.4803400  12.1782219  51.5529346
  88.1796646  49.2604303  73.5312080  87.9343414  48.5301161  74.0992641
  87.5065994  49.2711258  72.8506947  62.2949553   6.7702001  35.8601999
  62.0567989   6.4996928  34.9734402  62.5874949   7.6764780  35.7637072
  34.3037301  95.5091428  57.8913784  34.4742757  95.8929824  57.0312548
  33.4890777  95.9205758  58.1800032  97.1167469   5.2965099  23.7383819
  97.2776222   4.4994605  24.2434192  96.2456608   5.5825615  24.0133572
  44.2706680  10.1014626  61.0758400  45.0261641  10.6818855  61.1684084
  43.5267401  10.6282020  61.3679790 102.1121502  24.1284513  43.3217239
 102.5651646  23.8208485  42.5366116 101.3316631  23.5773110  43.3793211
  81.1415005  36.3999677  15.3823698  81.0479927  36.6089249  14.4529474
  81.9799805  35.9420776  15.4417360  54.7527885  25.3192282  60.5805492
  54.5377254  24.4223523  60.8366632  55.3215790  25.2204275  59.8170376
  94.0151215  24.8009920  88.9735031  93.1982422  24.7265148  88.4801674
  94.0579224  23.9955544  89.4889355   4.6051007 105.8886241   3.5699177
   4.2886573 105.7894786   4.4678390   5.3508741 106.4841854   3.6431795
  43.1657887  12.6313245  45.3927469  43.4050989  13.4828472  45.7586288
  43.3510780  12.7120352  44.4571257  37.9469681  35.4846144  12.5718164
  37.5001359  35.2264643  11.7656338  37.2525787  35.5201554  13.2296860
  94.9020672  26.0467505  67.0457792  95.8094406  26.3072586  67.2040033
  94.5112991  26.7984152  66.6002131  15.0652921  31.0627294  29.4829226
  15.1679289  31.6581917  30.2252984  15.3422618  30.2104926  29.8193908
  49.3281126  23.6722875  73.4205103  49.5352364  24.4964933  73.8609838
  48.7955046  23.1899953  74.0529299  54.7863293  14.0091968  35.6108236
  54.7324562  14.0421009  34.6557069  54.0774965  13.4207046  35.8705664
  44.3253517  30.8515954  45.2783060  44.6187067  30.0149751  45.6392002
  45.1332998  31.3371634  45.1119423  18.0753881 106.2056517  33.8725662
  18.2136708 107.1159871  33.6110353  17.2603541 106.2217473  34.3742537
  62.2195339  16.3576055  46.7321539  62.0957661  16.9431782  47.4791574
  61.9067574  16.8598449  45.9797192  29.0044004  99.6010720  41.6961336
  29.9474126  99.4466149  41.7518425  28.9268571 100.5218231  41.4462614
  80.0165176   3.8660264  59.1030502  80.4515934   4.1671187  58.3053780
  80.2125454   4.5414704  59.7523403  60.2968121  36.0039401  73.5406494
  60.5009699  36.4904141  72.7419662  59.3527079  35.8530736  73.4944773
  30.7789260  97.6709806  39.6729994  30.6328469  96.7515801  39.8957014
  31.1561662  98.0524241  40.4657316  37.1179175  17.2992218  18.6711240
  36.7106819  17.0182645  17.8517008  37.3320055  16.4836431  19.1241479
  45.9780788  18.2630360  13.6991715  46.3495255  19.0986753  13.4163868
  46.7302990  17.6739407  13.7571669  76.7413950  18.5755730  67.9727793
  75.9679985  18.4035659  67.4356508  76.5153933  18.2290947  68.8359737
  61.1341667   0.4937081  30.2716756  61.1776495   0.6872381  29.3352532
  60.3774929  -0.0855856  30.3616405  84.2819595  61.9656324  64.9956226
  84.8617077  61.8159389  64.2488146  84.6191788  61.3878202  65.6802034
  69.5097351  23.6726856  46.4305019  70.2958727  23.2970762  46.0340977
  69.6302748  23.5426283  47.3711348  72.3126554  41.3450527  19.0166366
  72.9305744  40.6490231  18.7931395  71.4766502  40.8941889  19.1351664
  57.6429319  19.0871394  41.4711714  57.6670122  20.0425434  41.5246105
  57.8178453  18.8942885  40.5500603  54.2426443  14.7916341  72.6073217
  54.7571611  14.1046453  73.0310535  53.3940554  14.7623682  73.0492210
  52.4972582  11.1564004  12.7059293  52.0460367  10.7115424  11.9884801
  52.8259373  11.9666195  12.3163843  41.3452768  40.2748060  42.4229288
  41.0219002  40.6662273  41.6114807  40.8974504  40.7582808  43.1171417
  84.8348713  26.2651443  90.9714699  85.7884789  26.2383318  90.8931541
  84.6180248  25.5093002  91.5172863  65.9315634   9.7880989  55.2705002
  65.7403088  10.4169559  54.5746613  66.8205214   9.4866139  55.0831747
  81.7012787  17.9191542  49.6717787  82.4884319  18.3476615  49.3356133
  81.8670845  16.9842803  49.5503283  57.1915102   9.7777253  14.7017717
  56.5769577  10.1338530  14.0601099  58.0533838   9.9095392  14.3067622
  88.6204147  17.5276995  14.1637838  87.8582001  17.8648782  13.6930633
  89.0466499  16.9401705  13.5397959  74.1628885  11.3865805  34.5241451
  73.2190323  11.4902234  34.4031954  74.2643929  10.4984760  34.8664880
  68.5204792   7.5990725  45.1362705  68.5582209   8.5156900  45.4094362
  68.1078434   7.6232398  44.2729187  32.8548795  67.8844987  45.4875278
  33.0527335  68.7884628  45.2427292  32.7191955  67.9170238  46.4345074
  57.6696634  12.1598768  45.4372978  58.2829237  12.8921854  45.3751183
  57.7213240  11.8811786  46.3515663  37.6670051  28.9414787  13.1500661
  37.5389433  29.6971822  12.5767016  36.8548679  28.8822269  13.6532116
  65.1313591  21.5506124  53.7117004  65.1501846  20.5962825  53.7833357
  64.9015665  21.7177010  52.7976418  75.6233978  23.2996464  59.7950077
  75.1548862  23.9172935  59.2335463  75.4354334  22.4411225  59.4157457
   2.3016864 106.2940746  68.8747406   2.6917535 107.1646901  68.9528847
   1.7210704 106.3589360  68.1165123  88.1254864   3.0270725  65.2247620
  87.7382183   3.6455122  65.8442736  87.4166203   2.4171591  65.0204325
  70.4309368  37.9458785  53.3273029  69.7369766  38.6033392  53.3762932
  71.1758995  38.3503675  53.7718821  80.1656532  27.7097583  52.3945522
  79.5331764  27.8495693  53.0992889  79.9902153  28.4152174  51.7718315
  52.8401041  35.5662036  52.5721073  52.2038603  36.2466145  52.3519611
  52.3369694  34.9184442  53.0655670  74.1732788  38.2546878  41.2840271
  74.0203524  37.8357124  42.1309662  73.3242989  38.2206750  40.8432150
 114.5468199  88.4121119  27.8475022 113.6798155  88.6218750  27.5003219
 114.3777191  88.0786287  28.7286520  57.2658235 104.3169801  50.7611942
  56.5442544 104.9456929  50.7782555  58.0372029 104.8433380  50.5510759
  88.7739563  29.8022103  34.1234660  88.5413933  30.6329775  34.5381641
  88.0238438  29.2320418  34.2921829  64.4616938  17.0532775  43.5643244
  65.3293705  17.1711540  43.1777048  64.0200090  16.4384174  42.9785872
  39.2370176   0.3218237  41.5126228  39.1456246  -0.5780033  41.8259764
  40.1136589   0.3541978  41.1296368 111.5498673  93.0418288  41.5588474
 111.2912046  92.7839862  40.6740618 110.9434473  92.5727426  42.1319437
  51.1934233  15.5512464  31.1032486  50.7822943  14.7295427  31.3715887
  50.8462000  16.2028992  31.7123580  81.3280487  13.7495351  28.0190897
  80.9659481  14.5872045  28.3079123  80.5898762  13.2977343  27.6101851
  77.0111364  45.9493540   3.9103560  76.2627787  46.2490712   4.4264559
  77.7258200  46.5338401   4.1630129  92.8295422   4.2844331  46.6386509
  92.4539375   3.4077868  46.7201614  93.4316730   4.2190507  45.8974361
  95.8085632  33.5756350  42.8416777  95.7342434  33.1874681  43.7134790
  94.9188232  33.5465527  42.4899006  16.0065347 102.2955297  27.0182586
  16.5662318 102.1160506  27.7737427  15.7750159 101.4302432  26.6807532
  74.2523670   6.5203202  30.5912137  74.9160051   5.9952378  31.0385442
  74.5379305   7.4252003  30.7172203  55.1432800  30.1473475  58.3872557
  55.8971310  30.6570196  58.6842060  54.6362829  29.9840546  59.1825676
  27.1818524  90.5583321  64.4264984  27.6145392  91.0558735  63.7326193
  26.6354638  89.9245440  63.9617348  81.7681694  12.8909445  11.8248045
  81.3568497  13.6580133  12.2231233  82.3199749  12.5281477  12.5177097
   3.4425479  96.9425773  17.8554130   2.8264028  97.1147989  18.5674071
   3.4874898  95.9878563  17.8032422  59.3924093  27.8866792  55.7121849
  60.0705576  27.2123480  55.7525063  58.9166164  27.6997828  54.9029112
  47.4577236  17.6089060  49.4910622  47.5433636  16.6600609  49.5837498
  46.7438793  17.8440058  50.0838423  96.9988537  10.7297456  45.7101774
  96.9184303  11.3475966  44.9835253  97.1640873  11.2803328  46.4755392
  85.1566236  83.2642627  94.5707141  85.7878511  82.6156617  94.2591107
  84.8247497  82.9004193  95.3915128  96.8803406  57.5702620  56.3741970
  96.5662670  56.6819191  56.2055492  96.6920662  57.7189827  57.3008394
  58.3611298  27.0589662  59.9260044  58.5206890  27.5462675  60.7342815
  58.0402613  27.7167821  59.3091106  82.0426941  44.2498016  52.5088930
  82.0222569  45.1824188  52.7234745  82.2444916  43.8174677  53.3387089
  74.8762083  11.1925650  61.7146301  75.7066345  11.4327967  62.1256208
  75.1150084  10.5414641  61.0548782  74.0828085   1.7358071  37.6805067
  73.5227203   2.4811368  37.4636674  74.9671078   2.0286784  37.4603486
  77.7878237  35.6106305  49.3363047  78.3275604  35.0562596  48.7727547
  78.2510376  35.6237483  50.1738548  49.6937513  21.6074252  23.8098621
  50.4421329  22.0557952  23.4160161  50.0797558  20.8786869  24.2958355
  42.3531628   6.8069446  52.2588205  41.9044256   6.6399497  53.0876589
  42.8504944   7.6100856  52.4132872  83.9830017  11.3662314  58.4415770
  84.5035076  12.1636462  58.3444309  83.9875221  10.9696472  57.5704098
 100.2871323  29.5453143  75.1047564 101.1155796  29.8140836  74.7076845
 100.5406284  29.1250825  75.9265709  68.4560251  26.3691497  30.6271887
  68.5693693  25.4275465  30.7566953  69.3289471  26.6857457  30.3947973
  91.5198612  21.4982152  29.9624491  90.6402588  21.5055943  29.5849729
  91.6335678  22.3779917  30.3220296  46.1785775 103.6873352  15.8436203
  45.5466825 104.2378413  15.3811419  46.4147264 104.1944586  16.6203392
  59.0156460  38.5494208  46.4720774  58.4422112  38.1593513  45.8123446
  58.8297606  39.4872975  46.4266300  98.4735298   5.5213833  68.9159870
  98.3736801   4.5695913  68.8971567  98.0962086   5.7852340  69.7551775
 101.2814713  35.4840446  49.3381023 102.1160316  35.5389309  49.8036528
 100.6229401  35.4397559  50.0313616  81.8380737  59.5717955  46.9818974
  81.9827080  58.8708687  47.6175213  82.2002697  60.3528929  47.4001455
  81.1882687  34.6088982  44.2247486  81.0821915  33.7452745  44.6236658
  82.1328735  34.7007871  44.1001558 106.8493176   6.2324506  34.8466182
 106.8537140   7.1881747  34.8995757 105.9296036   5.9907454  34.9558139
  96.7165279  62.3722982  13.6298704  96.4874268  62.8031206  12.8063810
  96.0984516  62.7299023  14.2673147  98.7079239  41.7668104  64.5509911
  97.7965450  41.8638325  64.8270369  98.6799812  41.8526697  63.5980558
  68.1935549   7.1322292  37.3595262  68.4072590   6.2020868  37.4329925
  67.8362560   7.2268790  36.4765692  55.1753569  36.5396786  53.5651445
  55.1628065  37.0641637  54.3657637  54.2582893  36.3104200  53.4146070
  56.5225011 109.5265776  34.0253472  56.1554223 109.1060921  33.2477331
  56.4786798 108.8536947  34.7047138  86.8217087  27.7735710  68.0913448
  87.0376301  26.9438410  67.6657248  86.7112350  28.3917189  67.3689032
  75.1241970  53.3795691  84.3693066  75.2873421  54.3119097  84.2266178
  75.2872324  52.9747629  83.5173798 104.2939472  23.8586712  56.9193029
 104.6549225  23.3134151  57.6183224 104.9691772  24.5172668  56.7563629
  22.5822860 104.4817393  11.7731678  22.4699336 103.5669046  12.0314038
  23.4901124 104.5366048  11.4747190  64.3063021   6.0178071  43.4920645
  63.4149981   6.0715759  43.1472158  64.5004034   5.0806481  43.5090828
  71.0278654  39.3196440  75.5771017  70.8177376  39.9636984  76.2533236
  70.5419302  38.5358572  75.8335733  63.1693506   4.3223733  52.4962950
  62.5306749   4.4284216  53.2013369  63.2590818   5.1982081  52.1206713
  91.7576504  52.3285627  46.4271832  92.0162487  52.3191595  45.5056238
  92.1662903  53.1178236  46.7825794   0.1418824  63.1308889  58.9242315
   0.6454701  62.3225880  58.8278675  -0.5805736  62.8950357  59.5061731
  70.0900698  26.8586993  19.2175877  70.2523422  26.3849831  20.0333643
  70.8700705  26.6962647  18.6870694  74.4973755  62.9498100  19.5091116
  74.4580841  62.2038126  20.1075912  75.1628828  63.5249567  19.8866451
  20.8928805 109.7043536  41.0193586  20.4269153 110.4692172  40.6815815
  20.2907544 109.3188605  41.6558123  85.8084106  27.2214174  49.4626284
  85.0691986  27.8240705  49.3813038  85.4196167  26.3516331  49.3701696
  46.6690302  39.4970322  28.6797595  47.3440886  39.5274758  28.0018210
  45.9479237  39.0123391  28.2781267  99.5774269  19.7121799  60.7838011
  99.6622276  19.1611814  60.0056982 100.3227043  20.3109145  60.7356834
  78.9891624  26.0026026  42.1798706  78.1922722  26.3384438  41.7695045
  79.5020962  25.6490564  41.4531422  72.7975750  30.3175640  54.3106270
  72.3916960  30.3110266  55.1774836  72.5110531  31.1422753  53.9182138
  74.9276543  40.4789114  73.2053280  75.7630825  40.0393915  73.3638096
  74.2780590  39.9191809  73.6307144  75.0376844  20.9032393  74.9158764
  75.2317476  21.7589545  75.2983999  75.1836348  21.0217762  73.9773273
  90.5566597  37.5729012  32.6948810  89.6683884  37.2499633  32.5434947
  90.7416058  37.3468137  33.6064243  70.6298208  39.0585637  56.1520147
  71.4272022  38.8638759  55.6595564  70.4025984  39.9525285  55.8962250
  81.7293835  39.7477961  52.8023434  81.2045097  38.9554214  52.9158401
  81.1056232  40.4657793  52.9103136 108.5709000   5.4721296  48.4124279
 107.7190208   5.6988406  48.7854385 108.5056305   5.7289428  47.4926376
 110.4092884  35.2206397  44.9485397 110.6843758  35.8875895  44.3194675
 110.2251244  35.7094288  45.7506657  60.9506369  41.8271828  79.1839886
  60.7937288  41.7976284  80.1277828  61.5663719  41.1126471  79.0210676
 103.1628799  48.2560873  84.1206932 104.1087532  48.3537531  84.2303181
 102.7852249  48.7475061  84.8501587  98.3129120  19.5313680  47.5440550
  98.8170719  19.1137826  48.2423925  98.6747456  19.1666055  46.7364264
  75.1809549  26.5661478  35.2841902  75.4604959  25.6558585  35.3814602
  74.2718410  26.5708303  35.5837297  54.3784809  40.0847054  52.3332644
  54.9825001  39.8954678  53.0513000  54.6640873  40.9344339  51.9976664
  70.1132345  27.2531462  60.3085470  70.0832367  27.3639917  61.2588310
  69.4445229  26.5938568  60.1230860  99.0524292  12.2314453  17.0958292
  98.1806564  12.0892322  16.7270374  99.5793915  11.5113020  16.7495108
  72.9185820  57.9197216  47.1822214  73.5526085  58.3788013  46.6313219
  72.3291302  58.6070108  47.4927139  81.6313648  37.1721506  47.0948696
  81.2130451  38.0210209  47.2385931  82.1999550  37.3105264  46.3373756
  75.1427317  42.4211788  53.6797905  75.9985876  42.0652628  53.4409142
  75.2966309  43.3590508  53.7935448  99.1292381  59.1990185  81.4507103
  99.3231964  59.8129082  82.1590614  99.5860291  58.3952045  81.6986084
  55.2335072  43.1073141  38.4236932  55.7536888  42.4459314  37.9673910
  54.7647476  43.5662031  37.7266145  54.0403271  30.4711580  61.4560843
  53.8293886  31.4038754  61.4139557  54.0519047  30.2702475  62.3918915
  64.2962503  81.2198067  34.4276476  63.6070395  81.8260956  34.6990108
  64.6846151  80.9159470  35.2480602  91.5082550  18.3634245  57.4477482
  91.8897820  17.7701032  56.8007231  90.6729984  17.9582834  57.6810789
  53.2327032  31.5298462   2.2319502  53.1695318  30.9520435   1.4714324
  53.7950563  31.0573053   2.8457046  73.7284708  55.7142687  38.3949208
  73.8481140  55.0459623  39.0696645  72.8375292  55.5741024  38.0742931
  75.3829050   7.5792569  27.1071959  75.8849955   7.0539820  27.7302718
  75.9335136   7.6141810  26.3249946  73.3608723  41.7480898  55.7034349
  74.1468096  41.8314552  55.1634502  72.6453018  42.0191479  55.1283550
  46.2167597  12.2375953  66.0810709  46.3138103  11.3065743  65.8810425
  46.1781836  12.2744858  67.0367813  88.3394146  37.2939587  48.2710028
  88.1393719  38.2297850  48.2919788  87.7110195  36.9286084  47.6482153
  83.7227821  37.4218893  34.6458435  82.9622746  37.8242517  35.0653362
  83.4527588  36.5195370  34.4753122  65.2093077  82.9400539  22.0363069
  64.5317316  82.2658825  22.0874619  65.9747076  82.4842739  21.6860747
  44.8038751  91.4786695  20.4235554  45.2152616  90.8097421  20.9708405
  45.3070050  92.2739588  20.5984974  74.9039459  23.2133436  28.3742523
  75.8078432  23.0479503  28.1062174  74.9371386  23.2308626  29.3307161
  84.1128445  24.7625995  23.9136958  84.7581100  25.3413725  23.5076380
  84.3656445  24.7319961  24.8364019  89.8183060  33.2773185  31.9520307
  89.9483204  33.6159897  32.8378248  89.0492249  33.7454677  31.6270995
  72.3981190  12.6356184  52.5146294  72.1940994  12.7556729  53.4420967
  73.3285475  12.4112403  52.5011539  79.5315599  22.7253652  15.2734482
  79.9320650  23.3987474  15.8233416  80.0137424  21.9258475  15.4844105
  68.5476685  28.9411902  20.7392693  68.7395811  28.2505608  20.1048923
  67.9090834  29.5011735  20.2978396  77.4222660  38.1862402  51.4276981
  78.1218386  38.1642199  52.0806456  76.6933823  37.7243233  51.8419313
  83.4751129  30.6103492  75.6485176  84.2467403  30.9223914  76.1212254
  82.7786541  31.2169170  75.8999968  85.8559036  31.9865680  80.9000587
  86.6591358  32.0649123  80.3853703  85.5733013  31.0818100  80.7667351
  70.8515978  29.4211888  21.9371486  70.8057022  28.7471318  22.6152134
  70.0880337  29.2567039  21.3838434  37.1650868  95.4318463  64.9198151
  36.8498927  96.2571084  65.2883625  36.4684993  94.8033201  65.1094151
 112.8160381   3.6842883  39.5506859 112.1169186   3.2563046  40.0449562
 113.5950375   3.5780069  40.0966692  56.9211340  32.2612333  58.5728264
  57.4450827  32.7604485  59.1993189  56.3740873  32.9175997  58.1413746
  71.6131496  26.1923099   7.4431753  71.8534994  25.3988147   6.9648129
  70.6893015  26.0697269   7.6615936  84.3721199  25.1314616  48.6642313
  83.4756947  25.4260635  48.5034323  84.6456146  24.7341728  47.8374338
  65.9572458  59.6782303  47.9925013  65.5339479  60.4756832  48.3104944
  66.8645239  59.9368668  47.8306675  46.1895847  13.5208929  47.9595709
  45.4856205  14.1136146  47.6962328  45.7618237  12.8766990  48.5237217
  84.8259449  13.6343992  70.9975100  85.5184555  12.9776728  70.9241772
  84.1623783  13.2220209  71.5505505  53.1288385  33.5073423  32.2778344
  52.2739363  33.5032344  31.8473101  53.5410976  32.6895308  31.9995189
  75.5300426  45.3605461  53.5306406  75.2753115  45.7495308  52.6939583
  75.7904959  46.1058474  54.0718603  90.1599979  10.9835577  72.8877783
  90.4034424  11.8707287  73.1521559  89.2113495  11.0217524  72.7659655
  66.2084150  11.7706990  42.9958344  65.9051228  11.0140860  42.4940586
  67.1473885  11.8167615  42.8157282  94.4024086  23.1507969  44.9721003
  93.9135170  22.3278689  44.9743652  95.0730610  23.0328083  45.6448078
  87.4777889  36.0416722  51.9405222  87.0284462  36.7118764  52.4554539
  87.4205494  36.3548040  51.0378027  79.0158749  40.0142193  50.0320816
  79.2449045  40.7192898  50.6375980  78.5841608  39.3587422  50.5799913
  67.1279144  33.9328194  27.3352575  67.3099709  34.7904658  26.9511604
  67.8379726  33.3736181  27.0200610 105.3745174  22.2697735  61.5960264
 104.9440670  22.3706937  60.7470560 105.3890896  21.3245583  61.7463303
 100.2158928  56.3331604  33.9175820 100.1301384  56.1352730  34.8501706
  99.8962021  55.5466700  33.4754705  79.1199970   1.2914710  37.3781157
  78.3526993   0.7202973  37.4133372  79.1756010   1.6722120  38.2545710
  71.6974211  12.4655569  18.3772433  72.5400305  12.0634258  18.5882747
  71.9200993  13.3503306  18.0877244  81.9386673  49.7932005  47.9332972
  81.4916325  49.9927616  47.1107578  81.7425251  48.8703251  48.0947208
  84.9703693  34.5199323  68.4359741  85.1836872  33.9007759  67.7378559
  84.5515633  35.2535272  67.9857826  74.2847013  10.8693993  22.9683232
  75.2256489  10.9258091  23.1346440  73.9409113  10.3653038  23.7058377
  86.9095039  31.4723063  18.0078149  87.4464226  32.0612621  18.5379922
  86.6699505  31.9920969  17.2405732  69.4085121  50.2894402  38.5232115
  68.9446592  51.1240959  38.4567571  70.1746655  50.4835367  39.0631819
  71.5838623  61.3927269  92.6059151  72.3797894  61.6519070  93.0701923
  71.5097952  62.0215416  91.8880463 106.3191414  35.0400567  69.4358253
 106.1015892  34.2969155  68.8731098 105.5304813  35.1832652  69.9590206
  73.2636595  17.0564675  55.7084990  72.3331976  17.0403349  55.4844046
  73.3491230  16.4243615  56.4222002  96.1470795  38.7034869  48.5765123
  95.2022076  38.5543704  48.6113262  96.4820671  37.9911613  48.0318928
  79.3495321  26.9103074  38.6101222  80.0854874  26.4627171  39.0275741
  78.6111259  26.7585373  39.1999960  67.6486683  31.4610338  24.1436577
  67.1703100  32.1326280  23.6574817  68.5503197  31.5356112  23.8310885
  61.5347338  31.4512753  66.0546303  62.2533798  31.6494560  65.4542112
  61.9644070  31.2667298  66.8898296  97.3211765  38.4079480  14.8849440
  98.0716038  38.9348984  14.6103406  97.1479607  38.6879277  15.7837427
  69.5601702   3.5092050  60.6377077  69.7362852   2.5683475  60.6392574
  69.8425722   3.8071617  61.5024042  61.5158987  12.9835320  37.6000452
  61.5300608  12.4331760  36.8170118  60.5982780  12.9890120  37.8723860
  74.9540472  51.3377428  65.7815456  75.8239889  51.6376162  66.0451841
  75.1220036  50.5887890  65.2096272  47.3139524  36.4002299  25.4888153
  47.8117132  37.1275997  25.1154518  47.4697351  35.6706095  24.8891306
  91.7488384  23.8932395  31.0381055  91.9137001  24.4158626  30.2533031
  91.0565948  24.3663311  31.4998627  74.0937567  55.1954556  89.8398399
  74.2764139  54.9397612  88.9356899  73.8798094  56.1269283  89.7867584
  76.6740990  27.5327802  13.5901678  76.0019207  26.8617320  13.4714150
  77.4772358  27.1279001  13.2626307  96.2232304  15.6943464  50.1159334
  97.0509529  15.9661067  49.7193861  95.6296921  15.5763316  49.3742943
  68.2184887  30.0668550  58.1603098  67.6465273  29.4017148  58.5432911
  67.6313639  30.7905555  57.9417324  34.8677683  49.4799900  17.4027824
  34.0211773  49.5633554  17.8416061  34.8223686  50.1000309  16.6749620
  59.3336487  37.3572206  83.3949375  58.6967039  36.7840552  83.8215733
  59.5587587  36.9027781  82.5831223  60.0246382  13.4730601  42.6834965
  60.7755041  12.9374802  42.4274111  59.2860889  13.0932939  42.2075129
  82.1327686   4.5624813  81.7398739  81.9801331   4.8921776  82.6254463
  81.6260338   3.7516296  81.6955280  88.4887314  37.1678209  62.0307016
  88.7611675  36.7656112  61.2059402  89.0523815  36.7650867  62.6912594
  79.8579311   4.1239229  50.6589699  80.5454159   4.6843272  51.0188961
  80.2992058   3.2963079  50.4677439  73.5933399  47.0742750  56.4872265
  73.3439541  46.6454268  57.3058414  73.1353998  46.5789127  55.8081532
  63.0787992  55.6088400  34.8775363  63.5809088  55.3582001  34.1021013
  62.7289295  56.4745331  34.6668291  85.5421352  37.5382423  30.3171682
  84.6018219  37.3789406  30.3988719  85.9423923  36.9368815  30.9451723
  77.3836184  12.1314919  61.9451427  78.2876205  12.1475828  61.6308928
  76.9348001  12.7920079  61.4174032  80.0190449  60.5818844  60.0520182
  79.5406628  60.5870390  59.2229509  80.9043503  60.3048325  59.8159885
  10.2922959  49.5855427  80.9182739   9.7541470  49.8633003  80.1770020
  10.1138443  48.6492538  81.0062695  81.5918255  49.8553896  66.3278198
  80.6472492  49.7025061  66.3531780  81.9291115  49.3989086  67.0985985
  64.5211363  28.9649320  65.7457495  65.2646208  29.0678549  66.3397789
  64.7253561  28.1779671  65.2405643 115.1444244  16.9873500  47.4485302
 115.6310368  17.4012268  48.1613731 115.5444908  17.3354936  46.6516781
  84.7146606  29.5299315  17.5101578  84.6928883  28.8255286  18.1579030
  85.3902149  30.1281667  17.8294873  80.0428486  38.1569576  61.8800020
  80.9819889  37.9724407  61.8657637  79.9825382  39.0710640  62.1574974
  76.5878963  61.7189550  37.7912855  76.3546658  62.2815514  38.5297441
  75.8772707  61.0794497  37.7435899  58.7086105  43.0072975  37.8430891
  59.0356636  42.8820324  38.7339163  58.1702709  43.7970972  37.8944325
  84.3981934  17.3409760  34.4070816  85.2394104  16.9141686  34.2445731
  83.7956047  16.9252717  33.7903810  21.8606722  39.1798151  91.3594015
  21.3742983  39.7479606  91.9567992  22.4095213  39.7786117  90.8530073
  73.3060789  13.6921394  59.8106766  74.1886139  14.0489519  59.9109125
  72.8601551  13.9236879  60.6253958  77.4242640  37.4853635  27.9206491
  77.0259285  37.3096728  27.0681858  78.1632948  38.0615449  27.7255058
  60.9442854  42.6163244  36.2805223  60.0740004  42.7664804  36.6496897
  61.4025450  42.1053028  36.9476700   5.7917733  52.5614738  55.9476328
   6.3994259  52.0464277  55.4168558   6.1605019  52.5318193  56.8304682
  95.6567764  24.1230440  72.9946661  95.6661415  24.7005582  72.2313690
  95.5683327  24.7148991  73.7417364  87.2446823  56.0138512  67.2255182
  86.7708588  55.1955843  67.0766735  86.7397404  56.6730404  66.7493534
  98.3493423  37.2580242  31.2458634  98.7432003  37.7635098  30.5348110
  98.8974762  37.4483037  32.0071650  80.5072975  99.2133999  40.9075594
  79.6483660  98.9825821  41.2613773  81.1301136  98.7607002  41.4762402
  85.5191422   9.6882463  39.4915485  85.7849121   8.7691981  39.4607997
  86.1589527  10.1033783  40.0699329  82.7716351  21.6099310  44.0075397
  82.9176521  21.6597390  43.0628538  81.8430614  21.3948250  44.0953588
 107.8872871  84.2952728  41.4024878 108.3835602  84.1292763  42.2039843
 107.0831394  83.7871361  41.5091181  88.4477901  18.6770737  10.3659403
  88.2535839  19.5008504  10.8130527  89.0978813  18.2494617  10.9233975
  74.2756510   3.4184203  34.6982646  73.7388611   4.1668850  34.9588108
  74.4633961   2.9613751  35.5180788  83.6427689  50.8401728  74.2598248
  84.3825245  50.2454233  74.3833876  82.9970264  50.3225422  73.7788773
  54.6744919  34.5651650  17.6466322  54.8892021  34.0517449  16.8678331
  54.7290325  35.4755116  17.3559034  66.4055443  28.7982273  46.7961788
  66.9809961  29.4657397  46.4226675  66.7928076  28.5977149  47.6482677
  35.0207782   4.4640842  33.3576035  34.4387913   5.1911479  33.5787416
  35.9021688   4.8225537  33.4619117  63.9311743  31.4862943  64.7410345
  64.1886950  30.5953240  64.9778557  64.5950413  32.0434785  65.1473093
  58.4992695  36.9749141  87.7867126  59.3624973  37.2484016  88.0970097
  57.9589415  37.7618504  87.8574467  58.8285017  44.4486094  30.1769042
  58.9806795  44.3035316  29.2430806  57.8935623  44.2814779  30.2960157
  58.3927631  25.6254601  37.1718383  58.0958843  24.7671986  36.8693757
  58.6987305  25.4717374  38.0656981  65.1840639   4.0438679  41.3862848
  64.5355272   3.5250986  40.9103489  64.9583197   4.9521548  41.1855698
  82.4560165  57.0982933  45.1026154  83.0899906  56.6460609  45.6592083
  81.8467808  57.5074911  45.7171297  62.2916317  20.0370407  18.1324971
  61.9709110  19.5728672  17.3592496  62.7786112  19.3756282  18.6240423
  83.5307884  40.9113932  50.4764795  82.8220463  40.3838968  50.8447933
  83.9282513  40.3482389  49.8123169  68.7075806  22.7603340  25.1767230
  67.8573465  22.6409864  24.7535348  68.7767792  23.7052608  25.3129530
  79.7608376  50.2830648  17.6802301  79.8000097  49.7501183  18.4743726
  80.5308247  50.8492041  17.7334929 114.1418266  42.1701813  47.0729208
 113.3065033  41.9868994  47.5028896 114.4545650  42.9731941  47.4895716
  45.6041861  36.2969017  41.8107224  46.0268211  36.7221975  42.5568676
  46.1903477  36.4684176  41.0736847  97.1478081  29.1214442  43.6698341
  98.0855560  28.9377379  43.7255955  96.9445610  29.0488458  42.7372837
 105.0912952  36.8395162  43.5814095 106.0297394  36.7175007  43.4376621
 104.8315430  36.0898256  44.1168737  73.4225655  28.1676388  77.4744034
  74.0429592  28.5025001  76.8269348  72.9538584  27.4688983  77.0179987
  35.5122733  33.4836483  29.2027760  35.7207727  33.3907080  30.1323557
  34.6152139  33.1589198  29.1248846  10.0481934  45.8047199  26.9514346
  10.4421753  46.3147688  26.2437201   9.2877907  45.3847408  26.5493894
  95.3019333  47.2987795   7.1638352  95.1113605  48.0522108   6.6050357
  94.5310688  46.7375278   7.0802814  14.7239060  40.9282684   1.0540122
  14.7000355  40.1157236   1.5594201  15.5664295  41.3242149   1.2767546
  80.8733463  55.2814007  54.3926764  81.4313126  55.7843161  54.9859524
  81.4845085  54.7529221  53.8794374  90.9267235  71.9504404  18.3830273
  91.7097664  71.6573524  17.9170179  90.1980209  71.6438341  17.8433776
  76.8433809  78.1123447  14.1332006  77.5124645  78.4724569  13.5510719
  76.1461210  77.8212643  13.5455513  87.2389412  51.2623882  53.8955975
  87.0475769  51.6598415  53.0461025  87.4462032  50.3503323  53.6920595
  77.5959110  47.5379229  65.6406927  78.2240343  48.1346798  66.0475922
  77.8496361  47.5158215  64.7179985  59.3037939  83.3994102  36.5446663
  59.0108585  83.9541912  37.2675991  59.2295313  83.9565659  35.7698822
  89.4267941  39.8441911  27.7740097  88.6040211  39.5099640  28.1311822
  90.0138187  39.0881348  27.7769136  98.9393139  64.3288136  61.0075903
  98.4887981  64.7979069  61.7098856  99.6235466  63.8296080  61.4535189
  76.6688061  63.4308720  27.6072216  75.9483004  62.8119993  27.4884844
  77.4590826  62.9043341  27.4869800  81.1235332  66.5588713  41.3072109
  81.3007927  65.6593037  41.0322905  80.9035778  66.4865398  42.2359848
  76.8227291  54.8080397  51.3981533  77.0909882  54.6027279  50.5025434
  76.1856556  55.5158138  51.3010645  73.1399298  29.6490049  37.0183778
  72.5808144  29.8242712  36.2614751  73.9439678  30.1369119  36.8403125
  87.8952122  42.9266310  52.8581476  88.4179592  43.6995220  52.6445723
  87.0510006  43.0841589  52.4353838  96.2607861  27.3580122  45.2224112
  96.9181728  26.7502427  44.8837662  96.5298462  28.2131767  44.8869610
 110.2729988  72.0147324  26.9282341 110.2933311  72.9673529  27.0195270
 109.5115376  71.7413044  27.4397469 102.6586437  66.8712044  26.6777372
 102.5825691  66.1303282  27.2790241 103.5607624  66.8304014  26.3603139
  97.0497322  53.0975389  29.2374253  96.8964005  53.6237860  30.0221467
  97.2881508  52.2328758  29.5717120  97.4629974  57.0302057   6.7974311
  97.9446316  57.5995731   6.1973625  96.8713379  57.6202011   7.2644186
  85.3931618  52.9797125  33.5628462  85.4673195  53.5578060  34.3221474
  84.8651600  52.2438908  33.8726950 103.9612579  46.0769653  62.5739431
 103.2828045  46.1978817  63.2382536 104.4979763  45.3581572  62.9078197
  89.2533398  35.0841928  65.5459595  89.4087696  35.1371503  64.6029472
  89.2268848  34.1456199  65.7320070  25.1237721  49.9193907  13.7053168
  25.5384774  49.2978907  14.3036389  24.3487496  49.4599438  13.3820713
  59.6254396  25.9018350  73.2059908  60.3883934  25.3411674  73.3466721
  58.8917923  25.2922750  73.1257868  86.4589977  35.9665465  39.3187189
  85.7612038  36.4678073  38.8967538  87.2259331  36.1100411  38.7642360
  84.8264694  42.6839161  60.0211811  83.9900589  42.4142838  60.4006004
  85.4791451  42.1547556  60.4796934  67.7862310  59.6877480  26.8676138
  68.3774471  60.4114437  27.0748711  67.2352839  59.5983458  27.6452351
  61.9709301  56.2691212  45.6637192  61.8178988  56.9376183  46.3314962
  61.5238523  55.4910564  45.9968472  58.0062056  63.3013105  28.5352969
  57.5219679  64.1254568  28.5855794  58.9042187  63.5365295  28.7687087
  81.6994286  33.9935160  70.2463722  82.0437717  34.8426771  70.5231047
  81.7232513  34.0255380  69.2900038  80.6983566  50.5818605  40.5346060
  81.0139942  49.9225044  41.1525488  79.8931360  50.9151554  40.9305286
  77.2345209  47.7684069  18.6655903  76.3605833  48.0710697  18.9122832
  77.2367525  47.7971983  17.7088261  65.0709963  50.6016970  34.2693019
  64.5066452  51.3527632  34.0859032  65.3531075  50.7295847  35.1750016
  69.9252319  56.8812943  45.2548218  69.4239235  56.0732698  45.1452017
  70.6095314  56.6550255  45.8847189  98.5421371  49.4597101  53.9877272
  98.9853859  50.2919292  53.8228941  98.6997509  48.9436865  53.1970882
  84.9201584  63.7053823  44.5478058  84.5824623  64.4821215  44.9937534
  84.3289375  63.0008793  44.8130846  69.9571609  62.7614832  47.9477501
  70.5694199  63.0610228  47.2757053  69.4043159  63.5226393  48.1244850
  98.8819027  75.3380203  32.9521894  99.6390820  75.9203482  32.8905082
  99.2556286  74.4569063  32.9382396  92.1885300  33.7108994  57.3877335
  91.8604469  34.5874071  57.5885487  92.8291130  33.5314250  58.0759811
  88.1656265  44.5219946  64.5642853  88.9880276  44.0368605  64.4969749
  88.4323883  45.4186630  64.7669220  74.2760086  43.5168266  39.7445822
  74.5006371  42.6238680  40.0061178  73.3257532  43.5011387  39.6305776
 115.6459808  36.2945509  40.1949024 115.4315281  36.1722112  39.2700934
 115.9238148  35.4284048  40.4929543  95.7957077  46.1441469  11.9696546
  95.5076408  46.6115141  11.1855507  95.7252884  46.7898273  12.6727700
  90.5164623  26.0297322  31.9140983  90.7142067  26.2879014  32.8143644
  90.0071526  26.7596984  31.5619779  83.8241386  58.7382460  43.0807638
  83.1929111  59.0983677  42.4577856  83.3435440  58.0469084  43.5360813
  65.3134441  76.6817331  19.2128527  65.1743650  77.5081110  19.6754432
  66.2197208  76.7273664  18.9082026  99.2744255  36.3861370  74.3932104
  98.9545631  35.4964876  74.5430279  99.1475010  36.8306184  75.2313948
  96.3839531  46.8284607  49.8952055  96.9591522  46.4844179  50.5785847
  95.7070827  47.3092985  50.3715229  75.3182983  36.0465813  38.8617349
  75.8700848  36.6077232  39.4066048  74.5569849  36.5883255  38.6540294
  71.6175747  99.3455410  33.2890296  72.4303579  99.5341110  33.7581348
  71.2695503  98.5636044  33.7176204   3.8707680  75.1880074  10.3508842
   4.4894642  75.8904076  10.1506770   3.2185215  75.2369404   9.6520263
  82.0332241  70.4075480  74.7002792  82.5669765  69.9855328  74.0270519
  82.1220684  69.8408031  75.4665279 107.7718353  35.2913880  60.1883841
 106.8203640  35.3799701  60.1328087 107.9874992  34.6161747  59.5451021
 115.8611298  52.0596075  40.5179691 116.6612053  52.5697947  40.3921509
 115.2616692  52.3846531  39.8462415  94.1229153  81.0766506  16.4172733
  93.5169506  80.3359699  16.4381933  94.7477531  80.8554840  15.7266951
  60.7064533  43.3589268  40.2737951  60.9839916  42.6316071  39.7168326
  61.2560940  44.0933132  40.0002956  86.7829609  47.9902506  32.3989940
  86.3300991  47.2233725  32.0482326  86.2836361  48.7361479  32.0665073
  93.0981922  37.4468398  71.0556984  93.9158058  37.2314548  71.5044260
  92.4884319  37.6650500  71.7605448   0.5063576  41.7747307  47.7686787
   1.3317246  41.5221596  47.3549128  -0.1695114  41.4207172  47.1906519
 108.9780617  24.5681024  39.3190765 109.9249077  24.7084498  39.3235373
 108.6211205  25.3280711  39.7787189 107.5462627  55.2918291  37.1190071
 106.8492126  54.6789312  36.8850994 107.1446323  55.8778381  37.7605057
 104.6777439   2.0850478  42.4915361 105.3385639   2.7615607  42.3436165
 103.8661289   2.4655211  42.1557426  84.8400402  50.9040928  37.2213554
  84.4263363  50.3428411  36.5655518  84.2440033  50.8773184  37.9698563
  90.5152321  52.0801020  31.1479211  91.4235401  52.1248388  31.4465952
  90.4426289  51.2222052  30.7296181  93.1055927  46.7315769  48.3011866
  93.4726524  47.0983124  49.1055489  93.8680840  46.4418173  47.8003168
 102.8155804  55.9864950  72.3251963 101.9647217  56.0744333  71.8956184
 103.0961895  56.8871403  72.4874449   2.0415444  54.6967506  28.1937480
   1.5958733  55.2274132  28.8540578   2.8731007  54.4553804  28.6017728
 101.7302322  64.6440363  24.8246241 101.9151688  65.5294752  25.1377273
 100.9034538  64.7258854  24.3492699   1.8117345  84.4859253  10.0178484
   2.2204936  84.5326887   9.1535811   2.4206985  84.9454461  10.5959849
 102.1884060  52.9979897  35.6340456 102.9544544  52.9836512  36.2078071
 102.4302006  52.4363708  34.8976016 116.4222717  53.6403799  56.8851280
 116.8714809  53.3699703  56.0842991 116.8715096  54.4421482  57.1526766
  88.9037037  51.3165331  62.4642229  89.7482967  50.9006691  62.6373196
  89.0152740  51.7401552  61.6131449  85.6658268  45.7926941  26.9902754
  85.0781536  45.0739336  27.2231913  86.5392399  45.4689741  27.2107244
  88.3636475  71.8838453  17.5181925  88.0447960  71.2541819  18.1647933
  87.6751232  72.5470448  17.4699259  95.8660221  41.1453819  41.8364573
  95.9891796  42.0384979  42.1580362  95.7468033  41.2451982  40.8919716
  90.3908920  47.6399326  46.9335556  91.1989689  47.3650122  47.3667669
  90.2873611  48.5588789  47.1806288 102.7581596  20.4744887  32.3166680
 103.3278847  20.5800009  33.0785799 102.8077030  19.5416462  32.1079040
  61.2324476  49.5392990  39.7859669  61.2298203  50.2373457  40.4409122
  60.7299852  49.8961544  39.0535641  71.5047264  68.1482506  52.1242809
  71.9161940  68.9436483  51.7862558  72.2376060  67.5659943  52.3245335
  72.9526949  26.8255854  37.3088551  73.4551048  27.6033854  37.5514364
  72.3475599  26.6940665  38.0387521  82.1376991  59.5317507  41.0070896
  82.3560238  60.1707077  40.3286362  81.5468216  58.9154053  40.5744028
  78.8874865  49.5677328  66.8630505  78.9653158  49.0362310  67.6553154
  78.2975864  50.2801180  67.1095371  89.5072651  47.9380417  39.1847944
  88.9251900  48.6338615  38.8794208  88.9244747  47.3052311  39.6044946
  82.4441433  57.0746326  68.0445671  82.4462414  56.2208271  67.6118517
  81.6302299  57.4874640  67.7558565  78.6596966  45.6038237  45.0654078
  78.4051800  46.3536835  44.5276737  79.5385027  45.8199596  45.3772020
  75.4213953  51.2627506  60.7274246  74.5948887  50.8325005  60.9465218
  75.9012747  51.2951994  61.5550041 102.8120518  54.5228386  55.9360933
 103.5570431  53.9221334  55.9169865 102.2227764  54.1952896  55.2566051
  48.4061432  49.5386696  37.0864105  48.1305742  49.1650867  36.2493181
  48.3117151  50.4839993  36.9694853 115.5830860  45.2375984  65.0759506
 115.4103374  44.3494463  64.7635746 115.3714466  45.7991743  64.3302488
  85.4467201  59.0122986  45.1096964  86.3040829  59.3254423  44.8214245
  84.9323273  58.9477968  44.3050385  19.7402424  65.6388044  22.1431661
  19.4224972  64.7906208  22.4527669  20.4105992  65.8899260  22.7786183
  72.8002739  51.9863176  30.7816267  71.8482113  52.0819283  30.7557321
  73.0810356  52.1398401  29.8794985  81.7540932  57.0921516  51.6328669
  81.2936401  56.3766384  51.1943960  82.6626205  56.7954826  51.6857719
 104.2051601  79.5967436  51.5566397 104.5458221  79.3415213  52.4139833
 103.8255405  78.7932730  51.2008858  66.7230129  43.1662846  35.5436826
  66.2144423  42.3691988  35.6928277  66.7513990  43.5957718  36.3986468
  89.1802025  44.2341518  48.7277889  89.8651886  44.4651175  49.3552303
  88.5825348  44.9817371  48.7397003  94.4894695  53.3539009  45.9483862
  95.3604317  53.0332899  46.1825943  94.3147755  54.0539169  46.5774298
 103.6542130  39.2790794  42.5017691 104.2702484  38.6787200  42.9216576
 103.3932400  38.8306046  41.6974115  22.2826618  22.5559211  36.0357165
  21.6597027  23.2811618  36.0824966  22.9775757  22.8738880  35.4593277
   9.9026341  33.6184335  55.9199667   9.5834584  34.0845203  55.1472330
  10.3148693  32.8286171  55.5699968 114.5163822  57.9383516  32.4037051
 114.2047596  57.2508860  32.9923558 115.4114628  57.6789665  32.1851516
  97.0402050  51.2387514  26.7243290  96.9478130  51.5960121  27.6075363
  97.9813862  51.0992861  26.6196203   7.4092717  69.1694069  11.5584826
   8.0028481  69.5681906  10.9221840   7.8913636  68.4140968  11.8951309
  84.1173267  34.8404884  44.1291618  84.5186234  35.0321102  43.2815361
  84.1606808  33.8872552  44.2046642  97.1099472  69.6100426  24.6862912
  97.2094345  68.7033987  24.3958879  97.8042412  70.0852919  24.2298603
 102.2820091  63.6634016  50.7735252 102.6803398  63.0326605  51.3733053
 101.6491318  63.1498671  50.2715492  99.5091820  70.5160236  15.6057703
  98.8125420  70.3772545  14.9641538 100.1677513  69.8554564  15.3909087
  79.8026133  57.8852463  67.2956371  79.4671202  58.4930754  67.9545879
  80.0134659  58.4392357  66.5440607  84.8370266  56.9226170  52.1276188
  85.5164051  57.3770189  51.6294241  85.2962685  56.1991930  52.5542212
  83.6181545  61.7248774  45.7507372  84.2501068  61.0336971  45.9485960
  83.2924461  62.0037556  46.6065264  42.1687203 100.8478700  30.2610779
  42.8068524 100.4847621  29.6469331  41.3279992 100.7620149  29.8115802
  64.0843964  41.4533949  77.3470688  63.6290026  40.6737661  77.0292234
  63.7639809  41.5699863  78.2414770  65.8337545  34.7351646  64.1918087
  65.6703377  35.1513195  63.3454370  66.7759705  34.5665646  64.1978598
  95.7478714  17.9169440  51.4142561  95.0626373  18.2454455  50.8322191
  96.0742664  17.1292162  50.9792948  66.5307665  11.0909069  33.1296778
  66.7642593  10.5338132  32.3871422  65.7163334  11.5170562  32.8626108
  64.0667963  15.1030517  25.0012374  63.3312654  15.0500357  24.3909764
  64.1466475  16.0360587  25.1996136  79.5584822  41.7583656  53.5498905
  79.6976471  42.0407009  54.4538546  78.8432407  42.3104811  53.2339430
  68.6390591  51.1722994  23.1734157  68.2300043  50.5435467  22.5787902
  69.2517948  51.6593552  22.6224494  77.8081560  47.1227074  57.8883362
  77.3410988  47.6339817  58.5491562  78.4413099  46.6070938  58.3878326
  67.9460412  98.8639294  59.6060038  68.5533410  98.2233941  59.2356920
  68.2156163  99.6987831  59.2231417  86.8230534  22.1749306  46.5887165
  87.2809601  22.2627497  45.7527542  86.8897247  21.2441134  46.8017054
  79.5095205  34.3367171  34.6944332  79.1618586  33.5746980  35.1577783
  78.7875891  34.6284342  34.1377068  68.7636566   6.9651604  49.4249153
  69.0128183   7.7854276  48.9991093  68.2884121   6.4799058  48.7504530
 112.6608658  58.2765007  29.9816823 113.0690575  58.3337069  30.8455896
 112.3396015  57.3764372  29.9276996  64.8613214  56.6233587  39.5882058
  64.7215891  57.1804667  38.8224792  64.8992252  55.7348204  39.2342377
  64.8288679  28.3239126  26.8187666  64.7236300  27.3726702  26.8016410
  63.9494705  28.6590695  26.9935751  97.0644188  49.0950155  33.1942105
  97.2305489  48.7915802  34.0867090  97.7570438  49.7338152  33.0255866
  15.8622784  29.5443511  44.6941185  15.1461739  29.9441433  45.1876640
  16.3598007  30.2863598  44.3504143 109.4503689  93.8686848  15.6740344
 109.0977478  94.5212555  16.2790513 110.2663326  93.5795784  16.0825074
  93.2876873  58.5396719  30.1104927  92.3679161  58.7460279  29.9441242
  93.3593941  58.5176563  31.0647488 103.9572144  39.3336129  27.1690631
 104.1948986  38.5363626  27.6424885 104.3338203  40.0428247  27.6900434
  82.4973297  28.3019090  41.9953823  82.2322941  29.2212510  41.9671154
  82.4931049  28.0231595  41.0796785  35.2924037  38.0939817  26.2715554
  35.9829021  38.5833049  26.7187762  35.7573700  37.4108434  25.7884812
 106.6831684  61.8547297  69.5867872 105.7698536  62.1391296  69.6214008
 107.0409489  62.2916412  68.8139105  87.0215225  32.6694703  45.7227755
  86.9528866  31.7681599  45.4078817  87.1207237  33.1938887  44.9281836
 112.1165848  88.9392376  81.8395710 111.3225174  88.7354755  81.3454437
 112.6058006  88.1166649  81.8565559  87.0449924  60.5261612  58.2777929
  87.0730305  61.2041998  57.6027298  87.2637939  60.9859514  59.0883160
 109.2017078  26.6836429  30.2466130 109.0933037  26.8079734  29.3037343
 108.7820435  27.4492645  30.6389666  95.2254772  54.6916914  53.0812550
  95.3533363  55.4715490  52.5411606  95.8947182  54.0780973  52.7781868
  88.5232353  39.9312258  61.7942286  89.2253780  40.2977419  62.3317099
  88.5419750  38.9930081  61.9829798  10.3977055  69.0182114  26.1867809
  11.1215920  69.5666361  25.8843827   9.6120495  69.5276165  25.9880567
  75.5542278  48.7543583  64.2937994  75.8896017  48.2319260  65.0223732
  75.0158262  48.1443596  63.7895584  90.4344273  61.5905905  41.4979124
  89.7955132  61.7840099  40.8119059  90.9228516  60.8377266  41.1649466
  88.6979389  86.9177151  41.4945507  87.8459644  87.2458649  41.2069798
  88.5199547  86.4918137  42.3330975  73.2412148  54.8879719  44.3492746
  73.8745308  55.5236006  44.6826172  73.3792210  54.1079664  44.8866510
  87.6968956  59.6217871  43.5997391  88.2337570  59.0581083  43.0427122
  88.2044315  60.4290056  43.6836243  78.0539656  41.7133904  34.8578048
  77.2161341  41.9776440  34.4777489  77.8886175  40.8431053  35.2204275
  81.1768055  56.7771578  42.6919699  80.3868008  57.2635746  42.9276085
  81.7279148  56.8224001  43.4732914  82.1591759   7.3586339  56.4020872
  82.6636600   6.7401201  55.8737230  82.6848698   8.1585568  56.4015198
  75.9224558  35.8327675  79.0223503  75.6458139  36.5112019  79.6383286
  75.2730608  35.8677340  78.3199978  91.5966892  64.4636250  39.9573827
  91.8829441  65.3767538  39.9354458  91.8931675  64.1400528  40.8080530
 113.4895802  55.3669071  62.9088068 112.6865768  55.2438736  62.4025774
 113.1891918  55.4809856  63.8104630 108.1126881  54.4522142  45.5791616
 108.9507484  54.8785830  45.4000139 108.2577229  53.5338306  45.3516388
  91.3490963  59.3031120  42.9318285  90.7607651  58.5660362  43.0955935
  91.0603523  59.9805069  43.5433769  75.5492640   6.5632063  35.0749779
  75.2227545   6.4727712  35.9702110  76.4199209   6.9480729  35.1753139
  82.1539021  57.6842642  56.2791586  82.8115845  57.0071363  56.4378214
  81.7487240  57.8296232  57.1341085 110.1782608  46.9904184  36.4285541
 111.0530853  47.0575047  36.0458994 109.5969486  47.3588467  35.7632947
  97.2490692  35.2438521   9.5360583  97.7861023  34.7379661  10.1458955
  97.7190685  36.0712743   9.4326055  68.0656576  41.5507317  84.1461372
  67.4537849  42.0032597  84.7267056  67.7220440  40.6595135  84.0837765
  35.6542837  63.6699618  79.2636939  35.4269182  62.8148694  78.8985153
  34.8116076  64.0723223  79.4739981  59.8838139  51.6596127  35.7072210
  59.9218988  52.5209045  35.2913356  58.9691782  51.3913965  35.6192493
 108.2234955  47.1029139  49.1181993 109.0391064  47.5865984  48.9875793
 108.5001183  46.2587261  49.4746542 100.2022552  44.0759563  30.5492210
 100.6601048  43.6239147  29.8405170  99.3557167  44.3162441  30.1725578
  88.1335068  44.9062538  61.5340519  87.7616215  44.8567438  62.4146652
  88.9462852  44.4036245  61.5886879  93.0835819  21.3211298  47.1281290
  93.5056686  20.4638505  47.1841574  92.6196194  21.3054085  46.2910366
  81.8917561  40.0317574  58.1392336  82.0468712  39.1491652  58.4756899
  82.6737595  40.2330160  57.6252365  70.1162529  53.2948780  48.1413364
  69.9121761  52.8806114  47.3029041  71.0442495  53.5206175  48.0773640
 101.5575409  24.4528580  30.0958872 101.4867020  23.5787344  30.4794526
 100.8890057  24.9676418  30.5478621  90.5351734  39.8315763  59.5516062
  90.1426792  39.8176837  60.4245281  91.1969948  39.1404605  59.5755434
  70.8244324  51.9680595  35.6569123  70.0715876  51.9955492  36.2474179
  70.5996227  51.2961292  35.0133300  87.8593540  56.9844103  52.2740412
  87.7969456  57.4118090  51.4198351  88.7620640  56.6692257  52.3187876
 105.4945087  35.0525618  61.5760374 104.7974491  34.9561024  62.2249031
 105.9788704  34.2281508  61.6204929  71.9423866  67.1940804  38.6273813
  71.9705296  67.7392435  37.8411007  71.8419600  67.8169489  39.3472266
  78.7547016  51.9741011  68.8241529  79.0780020  52.6581287  69.4105053
  78.0584812  52.3980951  68.3224154  66.6946888  23.3900857  21.2161517
  67.4583244  22.9431820  20.8509588  67.0595837  24.0128851  21.8448019
  95.2251530  45.5160522  20.2235866  94.5176411  44.8735476  20.1702547
  94.8318386  46.2694311  20.6639886 110.4102516 100.6703186  61.3848257
 109.6182823 100.8018398  61.9060946 110.6277466  99.7464085  61.5085554
 103.5406971  30.9891772  32.3561311 103.3261681  30.5092525  31.5562034
 104.1587162  31.6629529  32.0727491  99.8692513  51.1481810   3.8192672
 100.6282043  51.3097477   4.3797255  99.5684052  52.0208740   3.5660258
 115.6002712  85.9033012  47.0651388 115.5237770  85.4933262  46.2035704
 115.8305454  85.1839352  47.6531076  13.5172886  38.4112406   6.6735727
  14.1008705  38.4509921   5.9158850  14.0747971  38.6392379   7.4175072
  83.6235809  59.2828035  33.7098742  83.7145710  60.0870705  33.1988907
  82.8783512  58.8307285  33.3142948  78.2485580  48.2323360  43.7659454
  77.6992559  48.9477730  43.4455538  78.3382320  47.6447392  43.0156660
  22.8555929 102.4364377  79.6307941  22.7715552 102.4430037  80.5842753
  23.1488382 101.5494395  79.4223030  80.5011654  63.7825441  47.0625353
  80.9408760  64.1930819  46.3179922  80.7775021  64.2999506  47.8189468
  95.0950146  40.0264835  55.5619192  95.4751587  39.1780663  55.7897615
  94.1942501  39.8250294  55.3083897  95.9943771  62.6067162  57.8637505
  96.6906548  62.2875929  58.4378576  95.6190968  61.8145514  57.4792147
  97.0993328  55.8139610  67.5431728  97.2216892  56.7622042  67.4974346
  97.8641129  55.4966640  68.0234528 113.3107376  56.2527847  53.2077312
 112.8120613  56.3590908  54.0178251 114.1390705  56.7020988  53.3756685
 115.6322670  72.3377609  51.1735201 116.0909176  73.1775951  51.1500454
 116.3261700  71.6835356  51.0915422 105.2911568  76.1288071  41.5248156
 105.8672428  75.7001543  42.1577597 105.7459259  76.0383272  40.6874180
  87.4486160  69.3808222  23.3243179  87.1429729  69.7909784  22.5152540
  86.9334126  69.7988844  24.0142560  95.2842617  93.9414310  14.9242842
  95.5102825  94.8426723  15.1542830  94.3271637  93.9282703  14.9196136
 101.5069199  65.4686165  16.9374263 100.9077358  65.5404854  16.1944258
 101.2892056  64.6280432  17.3402536  82.7250385  41.6081047  43.9575720
  83.1557178  41.4470100  44.7970867  83.4449100  41.7287922  43.3383369
 112.7801323  65.4880095   7.4366802 113.7246990  65.3892088   7.3172355
 112.3995399  64.7552681   6.9524521  87.0922565  55.8978987  44.2346907
  87.1409321  55.6728745  45.1637936  86.1565399  55.8837366  44.0335274
  89.1824722  68.2219791  35.3112960  89.4092178  68.6559725  34.4888186
  89.5212460  68.8047123  35.9909201 108.7729263  55.5138969  73.0300140
 109.6492577  55.1328468  72.9746675 108.4268188  55.4488659  72.1399498
   0.5013985  33.7710381  20.8812594  -0.0710064  33.2326555  21.4278173
   1.3258309  33.8122988  21.3658643  83.4909821  58.9715385  24.9178314
  83.5775089  59.7823143  25.4192233  84.0128803  59.1206503  24.1294003
   6.4314122  58.4414673  29.2560458   6.8464035  59.0204287  29.8954368
   6.9151635  57.6186895  29.3285275  22.4310440  55.6131649  14.6244884
  23.2390065  56.0196638  14.3111444  22.3930497  55.8407784  15.5534565
 107.4794769  67.5293350  23.7805986 107.2879887  67.6231194  22.8474474
 108.1016731  66.8033361  23.8256383 106.5039349  59.3406868  37.0111585
 107.3370075  58.9043713  36.8326926 106.7444706  60.1212502  37.5102520
  77.2278881  43.0069828  39.8374319  76.8165541  43.2632923  40.6628656
  76.9788551  43.6961508  39.2215872  13.1557888  51.9856024  32.6750326
  13.5888237  51.1719799  32.4167132  13.8142819  52.6645565  32.5279427
  17.2393364  50.0953674  59.4033337  17.6080078  49.3302298  59.8447847
  16.7327923  49.7318840  58.6770248 101.4945984  60.8082867  42.7180195
 102.2773170  61.3079023  42.4856949 101.1322689  61.2689686  43.4748030
  86.6667652  64.2920685  35.3732634  87.1390343  63.5642576  35.7776093
  87.3426533  64.7904015  34.9138403 112.2284698  63.1178522  70.1608658
 113.0908394  63.5331202  70.1514626 112.2381020  62.5286770  69.4065380
 101.1410141  73.7458181  39.1297579 100.5379677  74.4828081  39.0327311
 101.3645267  73.4994602  38.2322168  20.7357258  77.2853661  17.4247706
  21.2471527  78.0591583  17.6612556  21.3703770  76.6927195  17.0220017
  93.0172729  59.8319435  22.9562068  92.1081924  60.0023842  22.7097368
  93.3405304  60.6740761  23.2764482  88.7165451  59.2482805  13.5104358
  88.8291073  60.0574112  13.0115664  89.1461182  59.4216251  14.3480802
  14.8475594  74.2299366  55.9282255  14.4978756  73.5005665  56.4400578
  15.5714077  74.5674562  56.4558172   8.6449856  65.9083843  62.5809336
   7.9401726  66.3409996  62.0989370   9.3772835  66.5232849  62.5376654
  93.5647392  84.1772652  30.2052546  93.0648613  84.9391079  29.9120784
  93.2105541  83.9773846  31.0717607  33.7303811   9.3675317  86.7158874
  34.0872365   9.9586810  87.3787798  34.5007783   9.0063180  86.2774320
  79.1662598  80.0901699  29.4407201  78.6503077  79.3993235  29.0250802
  78.6934710  80.8973026  29.2376494  96.2484455  33.2951546  72.7226305
  96.8672752  32.9658437  72.0708370  95.4277706  33.4013629  72.2415447
  91.6818905  75.3632116  41.2376738  92.3392868  74.7040987  41.4604855
  91.7103291  75.4164743  40.2823830   5.2370227  -0.2662908  19.6259177
   4.4505656   0.1406516  19.2624450   5.6864703   0.4456557  20.0812984
 100.8867550  95.3958130  23.5937953 100.6900406  94.8910713  22.8046346
 100.1495838  95.2221394  24.1791487 101.5542030  68.9234543  21.7129350
 101.3464832  68.0135345  21.9253874 101.8983364  69.2873096  22.5286603
  87.3119164  82.0322227  12.8178978  87.2706413  81.7888927  11.8930662
  88.1863022  82.4056625  12.9285097  95.2851486  63.0358648  42.5864553
  95.1430035  62.4702787  41.8274164  94.4432735  63.4706688  42.7221680
 107.8809357  54.7556925  54.4859266 107.2221184  55.0533295  53.8585567
 107.3814964  54.5399666  55.2734900  95.0940037  60.3842258  51.1406898
  95.9740543  60.1875257  50.8196831  94.5523453  60.4134178  50.3520298
  89.5193863  78.3197117  37.3923898  90.2457047  77.7658463  37.1061730
  89.5156479  78.2359982  38.3459163 113.8195229  91.4566708  49.6638203
 114.1679478  91.8256950  50.4753971 114.5934868  91.1673260  49.1806221
 112.2882557  40.8729458  78.8576126 112.2492695  40.5405903  79.7544146
 112.9701138  40.3488255  78.4373713 105.1844215  67.7242088  29.1194725
 104.6428680  67.0557833  29.5391917 105.9420681  67.2437906  28.7857127
  72.9027033  83.6702442  25.9678960  72.7720499  84.2126369  25.1900983
  73.5547876  83.0222416  25.7012343  86.2045956  88.9468288  36.1329246
  86.2735558  89.7013760  35.5479956  87.0813560  88.8512421  36.5049338
 100.0975037  51.6277552  43.3554268 100.4839230  51.8156099  44.2107725
 100.8253384  51.2917471  42.8323746   0.8062310  83.7004185   7.1424127
   1.7095036  83.7705612   7.4513018   0.7723946  84.2657852   6.3707596
  82.9778957  14.6307039  80.9040356  82.9775143  14.5601904  81.8586349
  83.7507629  14.1381657  80.6277943  92.6736546  68.9732933  35.5154872
  92.6893139  68.9553118  34.5585847  92.5353622  68.0609608  35.7699585
  95.6103516  70.9802532  38.7196565  96.1646175  70.6979227  39.4471931
  95.1446438  70.1880074  38.4518933 100.6698704  73.4463501  24.5943427
 100.5807018  74.3973017  24.6573281 100.7062054  73.1484699  25.5032873
  30.1296676  12.3258914  68.2285976  29.8433173  12.8399123  67.4736023
  30.9185565  11.8757094  67.9265547  98.5689068  72.2718811  17.7416861
  98.7426853  71.6317844  17.0515311  99.4351578  72.5867796  17.9999220
   1.9090885  64.1044140  17.6572502   2.1426338  63.3916903  17.0625091
   1.3705296  63.6880684  18.3301842 109.0952492  65.4274750  47.1871471
 108.7959099  66.1315870  47.7623463 108.3452606  64.8363018  47.1219301
 102.2305965  61.7927456  37.6348066 101.7775345  61.3366652  36.9256115
 101.8064880  61.4763689  38.4324718 109.0478897  40.7511330  54.2880058
 108.9129829  41.6171551  54.6727705 109.3678474  40.2141714  55.0129366
  79.7586393  53.8234758  26.3274407  79.4592953  54.3978500  25.6226587
  79.7839737  54.3866968  27.1009851   1.5181202  88.9085579  58.4968853
   1.0210366  88.3255768  57.9230690   2.3779244  88.9771938  58.0818558
 100.8046818  88.0976391  25.1700544 101.1653805  87.3707771  25.6777978
 100.4098892  88.6741447  25.8242774  94.9553204  51.7841244  15.7777417
  94.0109444  51.8919086  15.6646883  95.0414562  51.0510635  16.3871968
 100.1005745  49.7596073  63.1700373 100.1793766  50.6917381  62.9671812
  99.2225170  49.5228863  62.8713655  99.2749119  72.5879192  32.5375557
  99.5266438  72.1234798  31.7393374  99.2841721  71.9156361  33.2188630
  62.9204542   1.0787534   5.3690104  63.2840330   0.2416705   5.6576876
  63.5113032   1.7360257   5.7365946  92.7172661  85.9412861  25.5813146
  93.5569572  85.6866932  25.9638500  92.8916168  86.0059929  24.6423531
   9.8776287  62.4680948   4.3857959   9.7109074  61.9599915   5.1796901
   9.0543980  62.9265881   4.2175740 101.8395901  90.0687695  44.0163612
 101.5543461  89.8425007  43.1311131 102.1249866  90.9800529  43.9504528
 103.4237576  51.8749714  65.2384615 103.2280922  51.0590172  64.7778463
 102.5937653  52.3517370  65.2442026  12.5443787  94.4084167  41.8815851
  11.8584866  94.9512863  42.2702789  13.3230061  94.5940590  42.4064636
 105.5161858  26.6394854  42.7392054 105.3662491  26.6722798  43.6840200
 105.2439976  25.7580113  42.4839592 108.5435772  99.2225361  45.3258610
 108.7027168 100.1265049  45.0542736 109.2401600  98.7195396  44.9039555
 105.2920246  64.2669439  34.2767835 104.7445583  65.0513506  34.3116403
 105.7885838  64.3573761  33.4634662  97.4271774  94.7920227  45.9885645
  97.6284790  94.5089817  46.8805265  96.7067432  95.4138088  46.0914278
  57.3579979  75.9514952  32.5682402  57.8575850  76.5455484  32.0081139
  57.0568085  75.2615023  31.9771147 105.8916759  39.8253083  39.1034055
 106.8195915  40.0433731  39.1908526 105.4918671  40.6183767  38.7464333
  94.5347881  67.9433823  45.4739380  94.8837280  68.7074661  45.0149727
  94.2088509  67.3736763  44.7772074   3.2121701  56.2000751  26.2303615
   2.6644558  55.8232832  26.9190311   2.6740975  56.8938684  25.8491063
  26.7154182   6.1871756  45.5486441  26.1568320   5.5000437  45.9120560
  27.4491943   6.2478198  46.1603069 103.6205578  73.7912703  26.5396166
 103.0359936  74.4970655  26.8159723 103.4872818  73.1014967  27.1897554
  11.4328045  51.0469532  74.9336672  11.0505528  50.1722479  74.8628902
  11.9306320  51.0253668  75.7509327  91.4875889  46.7481756  59.8636627
  91.7197990  45.9923887  59.3241310  92.1147156  46.7281580  60.5865335
  88.0291843  22.9731822  31.4728642  88.0178642  23.8203692  31.0274673
  88.3763409  22.3644185  30.8208489 100.9012413  56.2149286  48.4379053
 100.1934528  56.0639334  47.8114319 100.4630947  56.5607262  49.2155218
  81.0227776  51.9536066  15.0676453  80.9807301  52.3206186  15.9506893
  80.1246834  51.6820765  14.8781025  99.3464947  52.9482031  45.7890463
  98.8526440  53.7666750  45.7395649 100.2242279  53.2142639  46.0629654
  82.0774555  49.6675110  13.8288307  81.8574715  50.2554989  14.5513999
  81.7308235  50.1041174  13.0507231   2.3589081  84.6192646  24.5570135
   2.1785588  83.7459850  24.9049783   1.5540356  85.1119137  24.7173905
 104.0245056  32.9006410   0.1285455 103.2823563  33.4551406   0.3693202
 103.8193703  32.0470119   0.5099465 113.0918217  91.5007305  77.1314335
 112.9591751  90.5613613  77.2588205 113.6643505  91.5602398  76.3666487
  94.7282124  59.5801210  77.7942181  94.3728733  58.7740946  78.1687689
  94.2375851  59.7032356  76.9815922 107.7505398  89.0305901  30.2486658
 107.4303436  89.5680904  29.5242333 107.2738075  89.3516731  31.0140800
  91.6412640  82.1662235  41.8754578  90.7576561  82.3687267  42.1827936
  91.5062237  81.6717434  41.0670757 109.0479565  68.6350584  47.8406429
 108.5985756  69.3228579  48.3317804 108.3447838  68.0667067  47.5263882
  64.1117716  66.9003201  37.3940706  64.3321276  66.6103458  38.2792783
  64.3638325  66.1674643  36.8322682  85.1388264  76.1078119  32.7543235
  86.0734081  76.2700796  32.6259875  84.7056675  76.8304348  32.2999954
  12.2682614  67.0445156  79.2280579  12.5841374  67.8514147  78.8214064
  12.4082989  66.3704300  78.5630465  98.4338284  61.9109154  37.5683999
  98.9197350  62.6492834  37.9357409  98.1991673  61.3771677  38.3275318
  90.5815220  54.7131968  29.7259665  90.3906441  53.8048315  29.9597883
  91.1962700  55.0092173  30.3972936   9.8548836  61.3965225  57.4073696
  10.6769413  61.8640852  57.5551796   9.9811787  60.5491781  57.8343248
  97.7717876  23.8031292  29.4206142  96.9595718  24.0157676  29.8803163
  97.4849033  23.4478211  28.5793734 113.0759716  73.9959383  35.1897597
 112.2233295  74.4109344  35.3201771 113.6890507  74.7270775  35.1135826
  85.9966755  59.8304224  41.2548304  85.5127239  59.0745401  41.5874863
  86.5299702  60.1183510  41.9957256 103.9745331  82.2202015  67.2606516
 103.2364464  82.8237247  67.1756935 104.6897984  82.7620029  67.5939369
 102.6517868  50.3359175  54.0703630 102.5124931  49.6770525  54.7506046
 103.0714130  51.0656404  54.5260429 105.2121830  48.4904528  52.9903793
 104.3153191  48.5584784  52.6628971 105.7166290  49.0818501  52.4317884
   2.5908512  76.6503286  58.5699558   2.8624386  77.4624681  58.1422853
   1.8607468  76.9084692  59.1325760 105.3312874  87.4022388  12.2545469
 105.0626564  88.1666183  12.7642477 106.2084293  87.1954346  12.5771761
 114.6887493  67.3044157  66.7342091 115.3289318  67.9864931  66.9371271
 114.4647884  66.9256067  67.5842571   4.4546742  44.4204760  47.0376968
   5.0975842  45.1083040  46.8650818   3.7205452  44.6282911  46.4596796
  90.8008671  87.1429729  33.9867520  91.4386749  87.2296238  34.6952248
  90.3343296  87.9787636  33.9809418  98.7463665  82.8162384  60.3557634
  97.9873943  82.8621483  60.9372234  99.0015602  81.8937588  60.3674221
 111.4149475  55.6922865  55.4105377 110.4843235  55.9001350  55.3270292
 111.4853954  54.7852039  55.1130962  69.2199659  60.9052134  41.0820484
  69.7056770  61.7198610  40.9529591  68.4033871  61.1770439  41.5010309
  92.3511410  24.5524859  61.3768482  91.4881992  24.8094344  61.7017078
  92.6230526  23.8407969  61.9563293  84.9288177  52.1027708   7.1419579
  84.0297031  51.7751312   7.1637261  84.9115753  52.8863239   7.6914871
  88.0619144  62.1272373  36.7498088  87.6890278  61.3145208  36.4082289
  89.0056229  62.0297718  36.6226959  90.1605225  59.9647474  10.2594233
  90.5800056  59.5403481  11.0078514  89.9931049  60.8598137  10.5544877
  99.2224121  48.2171822  51.6526175  98.8485813  47.3427105  51.7611885
 100.1419735  48.0596733  51.4385605  91.4351082  27.9235148  46.1789179
  92.2908401  27.5483608  46.3868046  90.8058834  27.3053479  46.5506411
   9.6701760  69.4697952  52.3918200   9.0810818  69.7203064  51.6801739
  10.1833004  68.7452221  52.0341587 112.2138977  71.5707922  63.2571507
 112.7202225  70.9199572  63.7432289 112.8731060  72.1472406  62.8706503
 102.0800209  47.8409338  59.2491961 102.2181129  47.0992517  59.8383188
 102.7998829  47.7849436  58.6208010 115.9787750  45.2841043  30.3182173
 116.1148643  44.3615341  30.1023912 115.0391674  45.3545713  30.4867554
 111.4453030  91.3204670  20.0456977 111.0128593  91.5622902  20.8646894
 111.5363407  90.3688812  20.0948095  43.9771122  88.2895851  34.6233654
  44.4970364  89.0909672  34.5626330  43.0979389  88.5533142  34.3518710
  91.7823410  14.4395900  25.0904346  91.7509270  13.6475217  25.6269717
  92.2772980  14.1824627  24.3125319 112.6697922  37.6893902  47.1021318
 113.0361366  38.2959127  46.4585781 113.3549881  37.0333767  47.2301483
  94.4495296  85.2490044  45.1996803  95.1915741  84.8858452  45.6831169
  93.7613773  85.3497219  45.8573627   4.9817128  68.5666323  70.2263069
   5.2848477  68.9723539  71.0385418   5.3072781  67.6676369  70.2716017
  89.9679547  52.5777902  94.0910204  90.7996350  52.2894563  94.4670518
  89.3087464  52.3021020  94.7279455  81.5074539  43.6948490   3.8618517
  81.8396091  42.8102970   3.7086397  82.2930717  44.2278671   3.9840454
 115.4159927  46.1040211  10.2862000 114.6704674  45.8747339  10.8410430
 115.0803566  46.0328436   9.3926042  24.2700428  79.5281887  44.8007917
  24.2652840  80.2035809  45.4790592  24.6230740  78.7528896  45.2372694
 111.4035320  65.7542372  41.4821959 112.0514011  66.1396408  42.0720816
 110.6712723  65.5184889  42.0518064  75.9682560  90.7309818  25.7139897
  75.9471989  91.6091347  26.0943079  76.6917753  90.2930927  26.1623192
  91.7568302  48.2823086  68.9998102  92.4800587  48.8595676  69.2446470
  92.1829414  47.4947548  68.6615562  90.3543758  77.3083639  33.7613010
  89.9149609  78.0563784  33.3568072  91.2586021  77.5982904  33.8819385
  16.8467755  64.6323824  33.2059479  17.3059220  65.4656267  33.3114243
  15.9989495  64.7709799  33.6280990   1.7296261 101.0985565  39.8524928
   1.4020485 101.2032509  38.9592075   1.4279694 100.2297783  40.1179409
 102.5469494  69.8999691  54.3095016 103.0805206  70.6938601  54.2739630
 103.1354618  69.2026901  54.0202284 105.4072380 104.5184231  40.7825136
 105.3521538 104.0258312  41.6013861 104.7480965 105.2066898  40.8722305
  93.8508892  54.6631336  30.3005171  94.6983719  55.1076889  30.2810884
  93.4712124  54.8335552  29.4385219  99.9242210  79.1164255  67.6886845
  99.9004650  78.5883808  68.4867048 100.7963562  79.5109081  67.6883936
 112.5647068 105.3226948  29.3164468 113.4468079 105.2241611  29.6747923
 112.6667404 105.1554489  28.3795094  12.8835720  99.2176056  30.8844423
  12.1644921  99.1919327  30.2531767  13.0877060  98.2976532  31.0524940
  96.4585876 102.8553295  28.2993746  96.7270184 102.4989891  29.1462517
  95.6307888 103.3012390  28.4786701  96.8825912  77.6274061  46.2978554
  96.7453480  76.6911936  46.4424324  96.0018826  78.0022955  46.3036776
  77.9684973  34.4609952  63.5071421  78.3284903  33.6246991  63.8025141
  78.6853743  34.8735595  63.0253649  83.0870438  53.4656477  48.6859465
  82.8234005  53.0444241  47.8678417  83.5696697  52.7881145  49.1594934
   4.5781464  89.6045113  68.5017824   3.9650769  90.1913452  68.9444923
   4.0262551  88.9133263  68.1358385  21.1380810  84.6866226  44.3088150
  21.9858021  84.8856258  43.9113188  21.1932606  83.7591362  44.5389175
  10.0669045  69.0100193  74.3270445   9.8835320  68.3100796  73.7003899
   9.8411030  69.8146152  73.8602734 104.7374344  94.2893791  62.2415876
 105.1233196  93.6432838  61.6500807 103.8048172  94.0743065  62.2556686
 116.2355709  90.5215359  48.9338112 116.4018440  89.7913170  48.3376789
 117.0953655  90.7355881  49.2959929  84.0069389  69.4143057  19.5003676
  84.2764282  70.2517939  19.1232431  83.3880234  69.0537739  18.8653851
  11.0079331  67.0468998  31.1633539  10.1025910  66.9742870  30.8611870
  11.4757008  67.4394274  30.4262328  91.7567158  73.9980125  29.4776535
  91.6309643  74.9091053  29.2124581  92.5368881  73.7152004  29.0006018
 105.4306984  57.3065519  58.9217758 104.9053860  58.0640078  58.6638451
 106.1960316  57.3392105  58.3478069  14.0524525  97.9455376  33.4415913
  14.0635151  98.8760567  33.6657715  14.8993439  97.6165199  33.7428427
 115.2847004  90.6416130  57.9899549 115.3820419  90.6832886  57.0386314
 114.4014454  90.9715176  58.1550264   8.8160462  66.3429737  18.3883131
   8.1815953  65.7500267  18.7909389   8.2991642  67.1048594  18.1264198
 102.6576328 108.9527607  37.3522139 102.7886772 109.9001598  37.3910642
 102.8688622 108.7186146  36.4484501  94.9055862  84.3691826  27.3800087
  95.8322048  84.5894241  27.2846222  94.6684456  84.7010040  28.2459664
  18.7492317  67.3134804  52.3353529  19.3274063  66.7701340  51.7998838
  18.0753464  67.6175308  51.7273521 100.0608158  95.3018093  53.7973070
 100.8655071  95.2591801  54.3139124 100.1595688  94.6105099  53.1426477
  18.0442852  86.9978714  19.7071183  18.9939350  86.8827152  19.7408164
  17.7938217  86.6704464  18.8432348 108.6364174  92.4347687  42.4861479
 108.7911320  91.6253662  41.9991541 107.6910973  92.5729656  42.4269104
   7.3404354  60.0809669  57.1756935   7.0571179  59.9763918  56.2673855
   8.0078835  60.7662058  57.1410131 101.2908363  73.2221222  15.8777440
 102.0483780  72.8296423  15.4437900 100.6322384  73.2984257  15.1873398
  98.9615536 100.5748558  38.3647799  98.8542175 100.6607437  39.3120575
  99.4809341  99.7785187  38.2538128 107.1896744  91.3613987  57.1610451
 106.3194370  91.6822147  57.3976564 107.0282555  90.7175827  56.4713478
 116.3804626  65.0176620  33.0933905 115.6687737  64.5559454  33.5367179
 116.3076210  65.9213352  33.4004688  95.8192062  89.3175888  30.0425148
  95.4973793  88.4599400  30.3201699  95.0526237  89.8886490  30.0922108
  96.8288040  56.1000633  34.3368411  96.6632938  56.8071413  33.7132359
  95.9574509  55.7983828  34.5936847 107.6031017  67.8561449  16.6467428
 107.8286934  67.2252989  15.9630954 108.4013939  67.9399061  17.1682250
  97.2645855  89.7712898  23.3326769  96.4802456  89.4137383  23.7488484
  97.7591515  89.0012074  23.0522871  62.6471329  97.0183945  43.9639950
  62.1610308  97.7949238  44.2413712  62.4684000  96.3685036  44.6436501
   5.1443142 107.8686523  51.6020060   5.8369774 107.3715782  52.0371771
   5.2243847 107.6324081  50.6778812  12.6612992  63.9730072  43.5745430
  12.3693032  64.6978712  44.1273069  11.8934101  63.7480068  43.0492210
 107.7283096  89.1211128  52.8279877 108.1636524  89.8874760  52.4546289
 107.1319580  88.8255787  52.1400547  98.5173607  94.4894695  50.9382534
  98.7371635  95.3921509  51.1686707  99.2362022  93.9689350  51.2967825
  20.0379700  99.5450687  55.5109358  19.9705929  99.4484329  54.5610094
  19.2208905  99.1773224  55.8476496  18.4930081 101.7488480  44.9427509
  19.4147343 101.4910698  44.9573421  18.5119957 102.7003193  44.8398972
  95.4332066  75.0802374  69.7898388  96.0536289  75.2172041  70.5057621
  95.8415031  74.4079161  69.2443991  56.1111815  37.6608705   9.1508536
  55.5565245  38.2331418   8.6206584  56.9999201  37.8339719   8.8403563
   1.5399021  88.6342049  20.1322341   0.9364647  89.3765163  20.1650286
   2.4060768  89.0242863  20.2497363 115.8165169  63.9210224  42.5486994
 116.5796852  64.3989229  42.8733587 115.7345486  63.1715441  43.1384373
 112.6136398  86.6672516  44.9021769 111.8844509  86.7880440  44.2939663
 113.2997417  86.2576294  44.3751907   6.3623852  72.9624271  23.5266256
   6.8369622  73.3337736  24.2703390   5.5868954  72.5577259  23.9152884
 105.5726528 105.1631069  44.1735458 105.8592319 104.2760277  43.9563131
 104.7067356 105.0461006  44.5643663  97.6523685 103.8567543  61.1903334
  98.1160831 104.5142937  61.7088318  96.7451668 104.1615582  61.1729860
 106.4561844  91.5650272  40.2149725 106.9277000  92.3597813  39.9654531
 105.7381725  91.8756962  40.7664919  12.1909851  93.6828995  71.5230036
  11.9492764  94.5921707  71.6991520  13.1169838  93.6310482  71.7597961
  92.5168896  91.5478230  39.2846894  92.0199108  91.1165047  38.5895634
  91.9949055  92.3179340  39.5098424  86.4051437  71.7938900  21.2945986
  85.6930637  72.0080996  20.6918645  86.6147709  72.6241302  21.7223740
   1.3519902  99.2641258  44.8982525   0.5689186  99.0119553  45.3875923
   1.9644684  99.5697308  45.5673599  24.8532624  76.2751055  61.9264412
  24.4042820  75.6684875  61.3376570  25.4790253  76.7339039  61.3659525
  12.4863667 100.7920551  34.2307329  13.3862728 100.6927967  34.5414495
  12.0882267  99.9330616  34.3715739 107.8706741  46.6133070  78.6785412
 108.3723545  47.3409176  79.0461397 106.9875240  46.9645500  78.5649109
 114.9217510  75.4394054  86.7006779 114.1139030  74.9700212  86.9087219
 115.6208706  74.8501444  86.9839382 111.2777901  86.3467693  18.5197091
 110.9560585  85.6068325  18.0047190 112.1605587  86.0883904  18.7846458
  87.0290184  76.7656565  39.9377871  86.2125874  76.2673044  39.9740982
  87.0397377  77.1440792  39.0586329  83.4063911  61.3693953  26.5934944
  83.7069225  61.6806078  27.4473453  82.5618553  60.9561110  26.7728758
  18.8466895  15.7527007  54.1933441  19.2337192  16.5536536  54.5467710
  18.7658656  15.9198702  53.2543278  31.2135757   7.6879729  58.9154005
  30.9771598   7.6831377  59.8429346  31.9210590   7.0470561  58.8452196
 104.1909027  77.3853445  25.9861732 103.9161587  77.5091887  26.8946958
 104.5842934  76.5128374  25.9717274 100.6376934  77.4336290  20.7290220
 100.3714180  78.3381796  20.8936834 101.5198708  77.3731470  21.0955358
 107.2118205   0.0930918  37.3267269 107.7712315   0.5246104  37.9725432
 107.7884358  -0.0679266  36.5798521  83.8651562  67.5819206  25.4432654
  84.2750740  67.4874020  24.5834589  84.3640232  68.2777596  25.8712530
  94.9534607  96.6246510  43.1958866  94.6154308  96.9207096  42.3507118
  95.4025555  95.8024693  42.9995298  12.9650063  89.2390442  55.6503105
  13.5586209  89.9842644  55.7425022  13.5258717  88.5208893  55.3571939
  99.6045208 103.5678005  65.5027533 100.0322437 103.3661175  66.3349867
  98.9682579 102.8627014  65.3834200  90.1912975 100.9541321  31.5206099
  89.6709251 101.6576576  31.9085503  90.6325245 100.5443287  32.2646594
  12.1515698  76.4319801  22.8416324  11.2363476  76.5527678  23.0946398
  12.5562996  77.2863245  22.9916859 113.0448055  76.0433531  30.4324412
 113.1805229  76.7670441  29.8208189 112.9359436  75.2742529  29.8730993
  98.9094925  85.0582981  34.3439102  99.0629864  84.1760635  34.6820664
  98.5492897  85.5407238  35.0880527  69.8002529 107.3718071  70.9855175
  69.9606514 106.4294815  71.0356522  70.2665091 107.6525784  70.1981163
 116.4240551  74.3775177  22.3216844 117.3711395  74.3396425  22.1881747
 116.0663319  73.7709284  21.6733646  97.1094131  53.1851816  33.3413863
  97.0534897  54.0084219  33.8265514  97.9746628  53.2064009  32.9325700
  80.8802128  74.9392319  29.0805721  81.7158890  75.3545713  28.8675404
  80.3928185  75.6118727  29.5562077  33.9554257 102.6801491  18.0635893
  34.5339817 102.4518490  17.3360026  34.2956490 102.1807194  18.8059235
 115.9446526  59.3473721  36.6597295 115.4892349  58.5432100  36.4104486
 116.8410206  59.0673685  36.8450928  70.9908485  96.9713593  35.0817680
  70.7763243  96.1581993  34.6246147  71.4458036  96.6875076  35.8746600
 112.2132301 102.1852779  49.7888327 111.5800190 102.5958538  50.3776407
 112.2112656 101.2619400  50.0411940  81.9893456  89.6673775  77.1292925
  82.2643375  89.9372673  76.2530661  81.3133907  90.2995777  77.3735237
   7.4673981  69.3509483  62.9163742   8.3105606  69.4320488  62.4705744
   6.8274349  69.6644115  62.2772932   6.1612458  74.4298792  36.6433501
   6.8314976  74.8789072  36.1282086   5.6844849  75.1344013  37.0821810
   3.7341637  68.7308359  33.4515095   3.7048477  68.4000301  32.5537682
   3.7677903  69.6825743  33.3550835  53.6764604  29.9910440  87.0747157
  53.6747151  30.2633466  86.1570682  53.2949811  29.1132058  87.0647814
 106.5365982 108.5088921  57.6786757 106.5378094 108.3166981  58.6163807
 106.1257267 107.7429581  57.2777271 101.4919186  75.8351374  51.6863775
 101.2294674  74.9148941  51.6639709 100.7622242  76.2819195  52.1155167
   9.6685929  53.0291700  40.8158398  10.3179020  52.3914337  40.5193281
   8.8253254  52.6262569  40.6090069 116.3864136 110.2475834  32.3268270
 115.6727886 110.8853340  32.3116040 115.9905624 109.4374752  32.0054960
 115.7194346   2.6515234  36.7080402 116.3620395   1.9615019  36.8728328
 115.7777089   3.2212199  37.4750352   0.7193798 107.3057747  47.0307302
   0.1780552 107.6623535  47.7350378   0.9701485 108.0696201  46.5112305
  93.8126087  86.0672951  35.1204133  93.9813328  85.1309013  35.0158000
  94.0780735  86.2594891  36.0197568 112.0545197  68.6210632  21.8543220
 112.8501034  68.7923431  21.3503957 111.4982986  68.1174946  21.2599611
 112.6346684  61.5754557   6.7984498 113.4601498  62.0594931   6.8210858
 111.9809818  62.2283316   6.5480953  20.4128212 104.9111748  46.9397259
  19.9345249 105.5496597  46.4107656  21.3184494 105.2209187  46.9281340
 110.0090981  95.4012299  33.6535645 109.5225811  96.2232971  33.5924292
 110.8871078  95.6186867  33.3404493  98.6495018  93.9085388  31.4304018
  98.1632519  93.0866432  31.3648987  99.4573307  93.7484264  30.9425378
 109.1180134  65.9231329  26.0037971 109.2783356  66.8664169  25.9765005
 109.6841049  65.6042147  26.7066956  87.2394562  77.3340273  37.3650527
  86.7452240  77.7684498  36.6698956  88.1561661  77.5096560  37.1528578
 116.1111355  82.7072525  40.0282478 116.9518471  82.8427792  40.4653788
 115.9595490  81.7640114  40.0877523 108.1563187  77.2606039  77.3890495
 107.4518108  77.5977039  76.8356419 107.8562546  76.3917542  77.6560640
  14.1543812  75.6217194  82.0770741  14.6830410  74.8256063  82.0226097
  13.7931485  75.7300138  81.1973000   3.1413025  81.3084507  82.3832512
   3.2682938  80.3933525  82.1328735   2.8361458  81.7356300  81.5828609
  93.8400555  81.7553043  53.7549734  94.7248268  81.4976311  54.0138721
  93.2961082  80.9993172  53.9759541  77.0577288 103.8620186  31.9329810
  77.8305912 103.5898399  32.4277902  76.4159107 104.0989208  32.6024437
 110.4386520 103.7129021  70.8044100 110.9083366 104.4557095  70.4251099
 109.5915699 103.7122726  70.3586817  80.3994751  95.7242680  39.5567775
  79.9645376  96.4285851  39.0761518  79.7600603  95.4534912  40.2156115
  71.0764360 101.6921902  23.0945158  71.2711096 101.7552090  24.0295911
  71.6136456 102.3742771  22.6915336 106.0156441  77.0890999  36.2237549
 106.9138050  76.8480158  36.4505148 105.8895779  76.7403698  35.3413010
  89.9169540  88.1373024  67.4774361  89.7418594  88.9688587  67.0368862
  90.8238602  87.9321384  67.2501421  88.3791161  85.8010864  50.1933193
  87.6904297  86.0048580  50.8261013  88.2229233  84.8872089  49.9553013
  23.5289330  99.3004131  58.5375214  22.7086682  99.6380520  58.8972521
  23.4319634  98.3487701  58.5723209   6.8193955  70.4753160  40.0720978
   7.1794457  69.6781969  39.6832514   6.3419956  70.8960915  39.3570709
  26.2676186  78.2211924  40.6134176  26.4524216  78.9821482  40.0629377
  27.0248837  77.6483870  40.4922962   8.3785004  50.1923513  14.8525476
   7.5860638  50.6779528  15.0816131   8.3033985  50.0422001  13.9101863
   3.8765854 107.4921799  63.6900139   3.1575436 107.2922325  63.0906487
   3.5265965 108.1722736  64.2655134 114.9178314  77.4527788  71.6351795
 114.3308926  77.8306818  72.2901011 114.3907928  76.7831850  71.1991644
  88.7489414 102.2843838  51.1457586  89.4940758 102.4916458  51.7097187
  88.6284256 103.0685806  50.6102705 110.4123974  86.5386677  43.3838749
 109.6348953  87.0776272  43.2381535 110.0669384  85.6669712  43.5763216
 106.5949249  58.7809610  53.0905151 106.0890388  59.2248678  52.4098873
 107.0772648  59.4832277  53.5268736  16.8052143  92.9765034  16.8359470
  15.8543438  92.8695297  16.8611956  17.0428891  92.7924824  15.9271681
  94.9828720  89.3293285  49.9789190  94.3808365  89.3894482  49.2371893
  94.5074749  88.8161564  50.6322861  91.8526936  48.3691263  74.6022558
  92.2316837  47.5600100  74.2588425  91.3918114  48.0994272  75.3966570
  13.8132996  69.7727203  43.9561224  13.5520310  69.2872047  43.1736612
  12.9987377  70.1526260  44.2853689 111.5470695  77.4412823  33.8701630
 110.9775639  76.8410826  33.3888602 111.3784695  77.2443485  34.7915864
  93.5626411  98.6557007  68.0396986  93.0546570  99.4483852  68.2124329
  93.1742001  98.2908154  67.2445869   5.4680294 105.3030872  56.3803387
   6.1077065 105.4309464  57.0808411   4.6689553 105.7163525  56.7073107
  99.1673660  61.0708857  48.7130451  99.9245930  60.6399965  49.1094875
  99.4357586  61.9844389  48.6150169 110.5616570 108.5936356  13.6026132
 110.4481030 108.8478470  14.5184267 111.4450645 108.8875198  13.3802414
  89.1913509  82.7663708  43.1781960  88.2935619  82.4530506  43.2878971
  89.5767593  82.6996040  44.0518284  85.0294113  66.8499660  22.8318453
  85.8110428  66.4161301  23.1740046  84.8802280  66.4383221  21.9806552
  99.1460228  68.0869341  38.7920713  99.6898174  67.3774433  38.4498119
  98.3058643  67.9814482  38.3457160  31.9940609  94.7004604  16.3934851
  32.3551602  95.0505638  15.5790734  32.6326508  94.9450493  17.0632732
  38.1211436   1.5048541  52.8940392  37.5769389   1.3692797  52.1183538
  38.8517535   0.8964289  52.7833605  13.1102223  89.9752903  34.0441489
  13.6221833  90.6729221  34.4533324  13.7222142  89.2434597  33.9658809
   4.9151367  66.1324692  42.4938631   4.4192452  66.2860394  41.6896629
   5.8058495  66.4126110  42.2832060   6.1469025  67.7520180  25.8950424
   5.5060810  67.1825838  25.4692125   6.9806809  67.2932625  25.7921529
   9.8319763  94.3944168  53.3558130   9.2575020  95.0639153  52.9843712
   9.3529743  94.0621758  54.1150236  90.1812935  87.7431011  50.0637865
  89.5725346  87.0045662  50.0783491  90.2675056  87.9641724  49.1364622
  50.9899092 100.0517464  34.0950322  50.6067753 100.1263618  34.9690318
  50.8692408 100.9179020  33.7058806 107.5237942  92.6820183  30.5242133
 107.0809364  92.0795727  31.1218452 107.8796387  93.3649540  31.0927248
   7.4030251  96.4212322  42.7173662   6.9939846  97.0103931  42.0834875
   7.8921074  97.0004368  43.3017921   7.0968766  83.5124683  81.3154602
   6.6019005  84.0310764  80.6812096   7.0238537  84.0023994  82.1345234
  37.2359050  11.1744917  58.8107681  37.8010619  10.5787219  58.3189440
  36.4444316  10.6650008  58.9845896   0.1738972 106.6959667  34.4919944
   0.4952950 106.9089031  33.6158705   0.9664006 106.5764046  35.0153303
  44.6559585   6.8943442  25.1436234  44.1084827   7.6640166  25.2989244
  45.3194011   6.9293536  25.8327150  30.6763441  63.5745668  10.6424670
  31.4483387  64.0836286  10.8896689  30.9780867  63.0135583   9.9280028
 114.4731426  83.4858513  38.1887245 113.8749313  82.7418709  38.1189036
 115.0523853  83.2599449  38.9165115 104.3356419 106.4324284  29.2029428
 103.8037872 105.6982708  28.8957405 105.0055885 106.0285568  29.7545624
  33.5119498   4.4465102  37.4354839  33.7670196   4.5543040  36.5192103
  34.1112102   5.0148142  37.9193711  13.4834141  86.6979408  51.5839386
  13.2199711  86.5558243  52.4931335  12.8875775  86.1496735  51.0734415
 100.9889793  99.4287109  26.9360924 101.3815212  98.5603428  27.0259500
 100.0838566  99.3134975  27.2254324  10.4527420  69.7627449  13.9323604
  11.1181874  70.4161453  13.7167585  10.7136292  69.4294691  14.7909045
 102.3657894  73.4576988  42.0397377 101.6087914  73.2073593  41.5101051
 102.4274349  74.4072247  41.9356871  15.8910794  80.4590034  66.9712877
  15.3087849  80.8251762  66.3056421  15.5303044  79.5914364  67.1540594
  14.1720528 102.8210068  53.2164860  14.1879219 103.6418056  53.7086916
  14.4300885 102.1547413  53.8534594 106.4571095  42.8782845  57.2843456
 105.8278465  42.6026058  56.6178226 107.2748566  43.0059481  56.8034840
  10.1988072  89.1583061  29.8242831  10.0277657  89.3806458  30.7394552
   9.7643036  89.8495293  29.3246341   3.3652825  65.1087046  12.2160804
   3.8557476  65.0053835  13.0315590   3.9137692  64.6909046  11.5521264
  89.8003197  60.1002359  15.8678222  89.1363716  60.1767445  16.5530586
  90.6338024  60.1287413  16.3376498 110.3305817  86.0974216  30.7245350
 110.1078510  86.5209103  31.5535569 109.5109749  86.0928917  30.2301073
 100.8490944  74.4677877  76.9503069 100.0638199  74.7543716  76.4839983
 101.5725899  74.7092533  76.3719702 100.1275253  81.9341469  46.4676189
  99.7688770  82.8113079  46.6024733 100.1513100  81.8287182  45.5165386
  87.8010368  72.7472115  31.2092018  86.9678497  72.3364925  30.9782314
  88.2801247  72.7986336  30.3821230  79.4428682  76.9148064  24.3340039
  78.9840460  77.6719093  24.6980143  79.8936033  76.5249968  25.0830841
   4.1813797  76.6548872  55.6326580   3.4281487  76.0814476  55.7742357
   4.5303959  76.8128204  56.5098524 116.2436104  43.6268616  32.8833485
 117.0367241  43.2071781  33.2165956 116.5623283  44.2850828  32.2657752
 106.0980797  74.9513578  62.4280405 105.3032398  74.8139000  61.9127083
 106.3957787  74.0689039  62.6491356  20.5380977  24.7177161  37.3085690
  21.0784019  25.1287592  36.6337776  19.8838485  24.2180956  36.8201280
 105.5922604  46.9111395  23.0179381 105.5556107  47.6496077  22.4100327
 105.2301502  46.1757851  22.5236082 107.0864105  77.0676327  29.9956441
 107.3143291  77.5290108  30.8027482 107.7470398  76.3792515  29.9185514
   6.6270489  79.9196482  65.2951956   5.8767647  80.0475025  65.8756685
   6.4011139  79.1461706  64.7785568 115.5824184  46.1774397  41.8199825
 114.9873066  46.8667936  42.1146965 115.6344604  46.2952948  40.8714914
  97.8911591  86.9584084  53.1718874  97.6117706  86.0450459  53.1092310
  97.7534962  87.3118210  52.2930384   4.3751759  99.7260189  28.9433265
   4.7937817  99.0119743  29.4240999   4.1295285  99.3377018  28.1036258
  22.1222348  60.2440262  46.0979462  22.3221154  59.3229342  46.2648821
  21.9346470  60.6089544  46.9627428  87.4105358  89.6629906  41.0727930
  87.6653385  89.9643230  41.9448614  87.4230957  90.4534340  40.5330992
   4.9507374 104.3114758  26.0924268   4.9513668 103.4075356  26.4072776
   4.9510330 104.8424911  26.8888235  90.0620365  70.8230352  38.1631780
  90.7775593  70.2591848  38.4570003  90.3704166  71.1889791  37.3341918
  11.7682690  58.9760876  49.0191650  12.1045059  58.4693480  48.2799864
  10.9712643  59.3874359  48.6847830 116.0932446  79.6210241  21.6296077
 116.5361691  78.9574337  21.1007404 116.8039227  80.1286793  22.0213246
  10.7029671  47.6550627  28.8297772  10.2484745  47.6928186  29.6713448
  10.2292389  46.9891691  28.3313847 108.7623405  79.0095186  26.7613578
 108.7098408  78.3301401  26.0891056 108.8267040  79.8283577  26.2698412
 113.3118534  45.9399462  28.6511922 112.4957466  45.5962086  28.2878113
 113.1362438  46.8695068  28.7971735  27.6598609  27.4012030  59.2049694
  28.5050643  27.7908267  59.4287014  27.8822959  26.6281737  58.6861515
 113.7895775 105.8388996  43.5716438 114.0138721 106.6495609  44.0285397
 114.2514896 105.1549911  44.0565586 107.6754570  65.4464960  39.2898154
 108.5422897  65.7501411  39.0203309 107.8515244  64.7295237  39.8990560
 101.6952991  71.1611986  64.2358875 101.0067654  70.5080938  64.3608379
 101.2325573  71.9418049  63.9313269  88.1760120  61.5197706  76.6429281
  89.0458107  61.2138653  76.3858175  88.3415127  62.1518326  77.3424530
  91.2479687  79.9500799  34.9089861  90.7875156  80.6701374  34.4780135
  90.5565643  79.4472504  35.3395295  97.9729462  80.6648922  12.4571466
  97.8006363  81.3507938  13.1021857  97.1471405  80.1854229  12.3909664
  86.2292767  40.3881693  10.6992722  86.7399406  39.9480295  10.0197625
  86.8075943  41.0781765  11.0243380 113.0127716 109.3655777  40.4620314
 112.5876141 108.5098934  40.4047585 113.4232998 109.4868279  39.6058798
  59.8005337 108.8656425  81.4379311  59.2891163 108.6279964  80.6645012
  60.0147671 108.0286026  81.8498898   4.1093219  13.3838023  39.7418022
   4.9201549  12.8801383  39.6703196   4.2999137  14.0524424  40.3996992
  19.7706932  65.6878138  58.9790964  20.2310414  65.2345467  59.6853924
  20.4495186  65.8709049  58.3295536  35.0803531   7.3022784  78.0205011
  35.7130683   8.0185164  77.9665518  34.6774924   7.4030341  78.8829279
  14.0239585   1.6869582  22.2043180  13.0756343   1.7221678  22.3295069
  14.2290176   0.7520998  22.1892738  10.7496018  92.3787117  27.9167080
   9.9526829  92.2942162  28.4401703  11.3949436  92.7463245  28.5205507
  82.9987049  77.0177746  21.5917397  82.9238319  76.2224102  21.0644627
  82.1566963  77.4591732  21.4802814  99.1915226 102.5133896  74.7635078
  99.7966671 102.4720192  74.0230179  98.3425236 102.2726345  74.3927431
 103.5515499  98.3905697  63.5156107 102.6201439  98.2633972  63.3351898
 103.6579514  98.1201267  64.4276237  91.8172073  90.0946712  37.1774530
  92.4711990  90.0963688  36.4785028  91.2309456  89.3714046  36.9551563
  93.2811642  99.1392899  37.7609086  93.6742401  98.2796192  37.6102901
  93.1749153  99.1909695  38.7107897 105.0212669 106.2259960  57.1342230
 104.5750713 105.8103657  56.3963985 104.4349957 106.0867310  57.8779459
  99.0222740  94.9246979  16.1470687  98.9632702  95.8771038  16.2224627
  98.9014721  94.7503853  15.2136600  34.5871586 108.9271545  22.8357744
  33.6615223 109.0975189  22.6613879  34.6012444 108.0500317  23.2187724
  15.4269851  55.6251944  41.3885641  15.6222308  56.5570677  41.4871740
  14.8925174  55.5750311  40.5960655  30.7626880  23.6650885  55.5062771
  29.9120296  23.8156832  55.0940418  31.3710941  24.2084349  55.0054359
  10.5366368 104.3381500  56.0681581   9.9265522 103.6005878  56.0733747
  11.1745781 104.1165066  55.3898191  -0.1679092 102.1532536  50.6874609
   0.2141804 102.5613785  49.9104929   0.1299042 102.6986980  51.4154911
 107.8086376  68.5444546  52.5674963 107.3178482  68.7817574  53.3542919
 107.9256344  69.3713236  52.0997000   2.2675556  82.9369259  51.1998129
   2.7133698  82.1151638  50.9944105   2.1816773  83.3802700  50.3558350
  33.0873454  13.0715693  39.1811204  33.7212623  13.6902846  39.5438457
  32.5060333  12.8671969  39.9136114  64.8366130   5.5555094  26.8760490
  63.9476073   5.7160033  26.5595937  65.3370059   6.3160933  26.5804982
 102.0986366  72.1593952  51.8164158 102.3390865  71.4713001  51.1959743
 102.9193115  72.6187229  51.9945669  31.8735356  66.4044428  73.1825066
  32.8201145  66.2907696  73.2678843  31.5854782  66.6769600  74.0537071
 100.4883194 100.3083229  63.4852123 101.0189152 100.6991959  62.7910089
  99.6762276 100.8149910  63.4800386  81.2062168 102.6392174  47.7464008
  82.0668221 102.7342892  47.3383045  80.7432938 102.0157528  47.1867275
  88.0751801 107.1878815  27.9924273  88.2552242 106.7690849  27.1507478
  88.8338280 106.9717503  28.5346270  93.4118557  97.9590797  33.6241984
  94.3058491  97.7845383  33.9183903  93.3014679  98.9027882  33.7402582
   7.0687718  94.3559456  26.3029647   6.9554943  93.4116840  26.4115000
   6.1860604  94.6851635  26.1336350  98.9874363  81.0051632  24.9633861
  98.7288475  80.3738403  25.6347966  98.2201672  81.0790348  24.3958712
  26.7808384  86.6000652  30.8951688  26.8277115  86.4881229  29.9456930
  27.4346203  87.2715950  31.0897303 100.4946041  68.4545135   4.8162085
 101.0064983  68.0277729   5.5032909  99.6033287  68.4827948   5.1641315
 111.9636154  87.5628471  25.5575371 112.2324657  88.1039715  26.2999177
 111.1308193  87.1780968  25.8307648 103.4915066  62.8231430  42.2839832
 104.2348957  63.2441950  42.7156258 103.4115791  63.2788181  41.4460087
 112.9783344  80.0764465  51.0155678 113.8450050  79.8011780  51.3144636
 112.8456020  80.9328175  51.4220762  47.4366058   8.0482234  34.9657559
  47.5161136   8.2217349  35.9037352  47.7910770   7.1660746  34.8544669
 110.5267239  90.1484203  40.7730246 111.2681198  89.8534679  41.3017511
 110.8601761  90.1555634  39.8758125 107.4406052  87.3199177  49.2126131
 107.5721836  87.4585056  48.2746840 108.0308151  87.9458046  49.6323252
  89.0812588  79.4861937  32.5823140  89.0853405  80.1606274  33.2615423
  88.6660004  79.9069548  31.8294835 107.3516083  94.0198803  38.6021137
 108.1311417  94.4909191  38.3077121 106.8045425  93.9495754  37.8198028
  37.0783103  23.5835970  13.6513686  36.7568839  23.8859786  12.8019667
  36.3881362  23.8260020  14.2687368 107.6241016  87.6081657  46.5583372
 107.5702858  88.1402493  45.7644749 107.1850109  86.7893696  46.3281059
  67.7869034  89.3905830  21.2376976  68.0256557  88.4674549  21.1537099
  68.6161566  89.8611164  21.1529970 100.7961178  97.5409031  63.1157827
 100.3749466  98.3873844  63.2651472 100.3945255  96.9567490  63.7590027
  96.8904495  76.3997555   5.5308598  97.6627541  76.7139816   5.0607157
  97.0341682  76.6726875   6.4369977 109.6791744  56.7392349   6.8999583
 109.0702629  57.4486685   7.1052992 109.2540169  55.9524155   7.2411227
 104.7176361  98.0501270  46.9098473 104.5279789  97.8832436  47.8331089
 103.9076519  97.8216457  46.4538383  38.3518470   5.4286993  38.2762885
  38.4406245   5.7779158  37.3894978  37.4429095   5.6101931  38.5152960
 109.4812679  98.7299919  80.1503468 110.1501656  98.0522633  80.0528240
 108.8167572  98.5061741  79.4987583  92.8619385  79.6380329  38.6955237
  93.4573460  79.4937038  39.4309759  92.7482414  78.7712145  38.3057308
  15.8579201  99.7640038  64.0130281  15.8845658  99.1075897  63.3168745
  16.4456696  99.4224453  64.6869135  96.5855026  95.1905918  73.4622383
  96.0404587  95.0450611  72.6889515  96.1238194  94.7394753  74.1690397
  15.0649590  73.4320164  23.2211375  14.9580044  74.2532539  23.7010956
  15.6257958  72.8974199  23.7831807  17.8614849  55.1351118  78.6047173
  18.1733841  54.3628740  78.1329155  17.8737110  55.8354855  77.9523659
 106.8959522  54.1782856  41.4386940 106.7208195  54.7697306  42.1706486
 106.0883713  54.1873646  40.9249163  36.4128155  95.0672913  14.3560815
  36.8899864  94.6561337  13.6353266  36.4277977  96.0021019  14.1508198
  24.7486366   1.6954459  59.3013859  25.4294074   1.3983191  58.6976480
  23.9361633   1.3425005  58.9386940  47.5311053   1.0523356  60.9325981
  46.7978347   0.5873240  61.3354683  47.1331466   1.5604819  60.2257395
   6.0023922  99.4418430  55.8315945   5.8427758 100.0035095  55.0731277
   6.3801903 100.0272942  56.4879036  85.7139111  91.3336086   1.4134261
  85.4746151  91.7011452   0.5626069  85.5317974  92.0361233   2.0375666
  92.4276543  89.2577076  68.9548159  93.3225632  89.4910049  69.2016554
  92.5097847  88.3990574  68.5398245  90.4439831  85.7555485  39.6400285
  89.7257423  85.8436489  40.2666140  91.2347221  85.8961868  40.1607752
   7.3074192  92.7031517   2.8700459   7.4556679  92.5560379   3.8041818
   6.8009228  93.5145187   2.8327838  34.6645034   0.8470000  35.6969810
  34.1485751   1.1468161  34.9485350  34.0136493   0.6218184  36.3617468
  19.8270649 105.4958344  25.1404524  20.5166287 105.8699512  24.5920229
  20.2970547 105.0055599  25.8149719  49.5548118   2.3144568  45.3468323
  49.3682254   1.3799990  45.2562809  48.7054980   2.7104796  45.5419111
  13.3050198  81.1143303  36.8666196  12.6485104  80.5363274  37.2553968
  13.9174599  81.2949944  37.5797129   0.8811868   2.8767432  45.6345081
   0.8348859   3.7237395  46.0780048   0.1179755   2.3963393  45.9553671
   1.1157936  97.9806519  77.4346733   1.5028137  97.3661709  78.0582666
   0.6050629  98.5820484  77.9766130 105.1961136  96.5053749   7.6753443
 105.1769638  95.9426117   6.9012880 105.4359436  97.3684883   7.3380828
 100.6018508   0.4551733  41.1763954  99.7330344   0.7343997  40.8875465
 100.7124389  -0.4159318  40.7953835  16.3232196   8.3454836  31.1710000
  16.5378631   8.7450732  32.0139027  16.1546481   9.0874327  30.5902052
 109.7478390  46.3316774  17.0139706 108.8673592  45.9783649  16.8868601
 110.1098251  45.8185482  17.7363944  46.8529762   5.4961527  28.1757116
  47.3704875   4.6923769  28.1271100  47.2358382   5.9837855  28.9050055
  96.7813015  84.5413589  48.0608034  96.3193798  83.7263870  47.8641653
  97.2274494  84.3697071  48.8900900   9.0494103  92.8388977  50.5502319
   8.5699219  93.2727146  51.2560129   8.6419815  91.9756603  50.4791927
 115.8729553  94.2049789  54.5434141 116.7250538  94.4264793  54.1677856
 115.9412766  93.2752228  54.7604799   3.3734841  69.5119429  64.3888044
   3.4697766  70.1112795  65.1289082   4.1723007  68.9847231  64.4020510
  44.8681683 106.5608692  33.0845928  44.8499531 107.3994255  33.5458064
  44.3778080 106.7203712  32.2781539  14.3996567  91.1454296  65.8825684
  13.5301060  90.9760857  66.2451220  14.4759888  92.0995712  65.8789539
  45.2236617   1.9621027  68.3594751  44.3368114   1.6480673  68.1831169
  45.1598132   2.9142703  68.2849932 112.7570629  91.8566513  64.1230488
 112.6673412  92.6994514  63.6782408 112.2819614  91.2400436  63.5659933
 109.4731617  93.0755711  61.7874050 109.3197060  93.2941532  62.7065945
 108.6573982  92.6660633  61.4991808   0.2639908 100.8399105  77.4043941
   0.6117768 101.3837719  78.1111383   0.7584805 101.1084175  76.6300440
   7.9173512  70.5645037  42.4787474   7.4935955  70.4249668  41.6318703
   7.4474186  71.3047981  42.8626251  10.7512230  54.5582151  26.1672497
  10.9781117  55.0612783  26.9493484  10.0153107  55.0336885  25.7817721
 106.9584942  63.5250902  26.5652251 106.3168907  64.1950750  26.3292217
 107.4361801  63.9008427  27.3047209  20.0345069 107.1641924  52.7916241
  19.8734599 107.8209900  52.1141958  20.2549964 106.3689618  52.3066235
  31.3410974  13.4917188  25.7912159  32.0632124  12.8721321  25.6868434
  30.7172799  13.0390763  26.3588381  21.9921780   0.5135556  37.4517083
  22.7904367   0.8368911  37.0340109  21.7204261  -0.2262741  36.9085360
  63.5740519  18.1869721   9.2412901  63.3331585  17.6639032  10.0058830
  63.2342196  17.6920354   8.4957820  18.9715987 102.4007319  58.9781475
  18.7984449 103.2972484  58.6909056  19.1107398 102.4743926  59.9223137
  28.0695295   2.6452494  64.2486620  28.0079794   2.7782053  63.3027411
  28.0470133   3.5285985  64.6166563  13.6084252  86.4374625   3.5896719
  13.4809047  85.5010044   3.7413728  13.5067731  86.5428864   2.6437417
  54.9267483  30.6192708  22.5676441  54.5606375  29.9129176  22.0354223
  55.1838446  30.1941180  23.3858013 115.3340041 107.8791804  31.5588236
 114.4917142 108.2601096  31.3104844 115.1082217 107.1721821  32.1633124
  60.8852863  10.5871952  36.4514542  61.6626167  10.0286460  36.4492249
  60.7966805  10.8779645  35.5437994  23.9168435  84.4204961  55.6002283
  23.6021691  85.2551185  55.9475279  24.5590764  84.6651875  54.9339724
 115.0787293 105.1048481  30.7563090 115.6834327 104.3728148  30.8775234
 114.6747577 105.2265959  31.6155028  34.1291886  83.7126838  40.9038877
  33.3536511  84.2058717  41.1713552  34.6013290  83.5476552  41.7200232
  11.1452657  95.7190417  13.2909477  11.8043214  95.4249000  12.6621723
  11.4879304  96.5470706  13.6273730  82.8648567   6.7414874  11.2917197
  83.6897564   6.3486344  11.0063374  82.4756813   7.0904064  10.4898310
 104.7007465  12.9899859  38.6195230 104.0113258  13.6397433  38.7564492
 105.1239586  12.9061353  39.4739747  53.6090261  92.8851830  35.8253384
  53.1761342  92.2583710  35.2457309  53.0019456  93.6235129  35.8758330
  54.3533307  77.3833882  11.0694337  54.7787458  76.7098295  10.5388010
  53.4512788  77.4056684  10.7500076  38.4417802 101.8861478  23.4838605
  38.6621362 100.9548669  23.4640956  37.6871377 101.9413214  24.0701222
  48.5963136  86.4071094  19.2589593  47.8512460  86.9929587  19.3926847
  48.2447988  85.5316960  19.4211960  74.4248295   3.2151967  31.5524220
  75.1988173   3.3095738  30.9972072  74.7414303   3.3960825  32.4374485
  37.0900470  99.3646645  65.6681156  36.4080411  99.0225052  66.2460661
  37.2927838 100.2301871  66.0230780 115.5165493  92.0621561  10.4760122
 114.6027171  91.7870473  10.5498958 116.0210048  91.2763130  10.6862676
  74.5206451   1.1982150  54.4503641  74.2191839   2.1033652  54.3725395
  73.7365437   0.6707039  54.2982244  30.0167399  94.9018251  39.5870090
  29.9136716  93.9791190  39.8198700  29.1575128  95.1625799  39.2553949
  77.5162261  68.3448613  93.8634911  78.4059756  68.6977792  93.8583367
  77.6295512  67.4072624  93.7076105  56.6958761   2.9534125   6.5163010
  56.9449997   2.1271738   6.1021769  57.3043489   3.5966328   6.1526227
  27.4297887  90.4061376  19.9413812  27.5499326  90.8263980  20.7929564
  27.6386815  91.0900973  19.3051481  87.1717930  11.4969635  25.1437640
  87.3181248  12.3617959  24.7605109  86.6421604  11.6667175  25.9228039
  90.2941721  65.3401459  86.3163038  89.6568792  64.8345239  85.8118834
  90.4663151  66.1130727  85.7785471  27.8419763 100.0837540  61.3687515
  27.4621421 100.3763407  60.5402851  27.4853355 100.6860065  62.0216894
  61.2905294 109.1661385  16.9170749  61.2334138 109.4934699  17.8147519
  60.4049092 108.8640374  16.7154896  86.2034607  23.0584359  21.8189025
  86.4325428  23.9614296  22.0388126  85.2817726  23.1004381  21.5640378
  16.9557309  15.5956411   9.6076947  17.7923989  15.2148128   9.8745060
  16.8146110  16.3171041  10.2207255 111.4262068  66.1328947  27.7828765
 111.8994557  65.4109918  28.1965470 111.9057619  66.2998973  26.9714785
  77.3110788   4.5205785  87.7653112  78.0843037   4.8861933  88.1950553
  77.6568954   3.8376570  87.1906276  68.6397886   1.5213087  35.3142500
  69.0575171   1.5828578  34.4552135  69.3066072   1.1280318  35.8772111
  61.0528803   8.6686474  14.9382162  60.4831743   9.0087545  14.2482948
  60.5145693   8.6973566  15.7291842  34.4978124  75.6291186   7.0311093
  33.9828521  75.3750955   6.2652618  35.2675372  75.0609027   7.0013672
  95.9827900  16.3056076  28.3812451  96.5446377  15.6172562  28.0252504
  95.1154423  16.1156225  28.0237055  89.5751654 109.4280955  33.1523561
  90.1087045 108.7904859  33.6267209  89.8531603 110.2767107  33.4970355
  57.6756620   3.6418360  46.6630125  58.5233545   4.0605450  46.5135908
  57.0401955   4.2410952  46.2714672  20.0403720  95.1553165  12.9735065
  19.3068105  94.5649003  12.8016841  20.1885158  95.0851118  13.9165640
  55.5583906   2.3310660  26.2737060  56.0314083   2.7683273  25.5656886
  54.8891449   1.8108094  25.8290958  49.7741872  61.7900096  48.2933903
  49.6709424  61.2397300  47.5170088  49.9358445  62.6670085  47.9455900
  38.9894843  14.0527964  50.9661150  39.7526932  14.4987988  50.5989313
  39.3174362  13.6317456  51.7607212  22.4608499 103.6849694  49.0482283
  22.8459674 104.5160924  48.7704754  22.9160482 103.0238997  48.5266829
  13.7838775 105.2372395  54.5055914  14.5837051 105.7207229  54.2988253
  13.5343009 105.5480995  55.3758287 115.2818268  31.4826799  83.2323583
 115.8192604  30.7625843  83.5622998 114.9758642  31.1808205  82.3770817
 112.8295504 104.0682571  57.0058727 113.3096706 104.7895276  56.5990734
 113.5083043 103.5226654  57.4031782  84.0004063  26.5069294   4.8485523
  84.3278313  26.0280347   5.6099236  83.2917213  27.0499253   5.1937389
  17.3822677  17.8193355  76.4246273  17.1639729  16.8948758  76.3065004
  16.5406978  18.2725513  76.3737726  27.6248008 107.3043927  39.4630766
  28.2612067 107.3079704  40.1780653  26.8669826 106.8406420  39.8192763
  23.0672294 106.4731034  53.5413504  23.3763248 105.6353491  53.8861084
  22.1630460 106.3041647  53.2764959  48.8516027  99.9691879  58.3433437
  48.3912164 100.1792919  59.1558313  49.2928487 100.7832270  58.1006908
  40.5612403  99.7577309  18.2852376  40.6478005 100.2242147  19.1165805
  40.0555020  98.9743935  18.5016716  61.4129335 103.4530704  42.9074955
  61.9694882 103.3240365  42.1394968  60.7727033 102.7429937  42.8613472
  76.9945860   5.0543743  15.7820129  77.4380779   4.5385543  15.1086068
  76.3126659   4.4730756  16.1186314  97.0560967 104.7859525  35.4944968
  96.7046892 105.5628734  35.0595975  97.9823601 104.7748428  35.2533674
   8.9755469 106.4215525  82.1244907   8.2412988 106.4632635  82.7371597
   8.5914594 106.0908352  81.3124943  26.7803985  75.4136144  18.4194648
  26.5064698  75.9208714  19.1835904  27.4837953  74.8517047  18.7446094
  13.0797988  89.8887908  59.2546368  13.4973270  90.6907128  58.9402771
  12.1573335  89.9914657  59.0206575  84.4761086   4.2721024  20.1597738
  84.1601562   4.3267092  19.2578745  84.3328571   3.3590528  20.4088736
  52.8022718  31.1178517  13.4854579  53.2915878  30.4925704  14.0200830
  53.1656885  31.0167146  12.6057255  64.0359545  10.6741929   0.9367196
  64.7253704  11.0865760   1.4571810  64.0242100   9.7640520   1.2329231
  73.6539936  12.3629117  38.0795097  73.9972734  12.9792643  37.4325967
  72.8798342  11.9845855  37.6626420  53.1326437  52.7935934  29.6902728
  52.6570940  52.4348736  30.4395390  53.6976290  53.4687090  30.0661039
  11.8776256  82.8505074  31.4251208  10.9749347  83.0820047  31.6437268
  11.7975741  82.0836388  30.8579016  99.1119862  13.4460390  59.1470194
  99.6815968  12.8748858  59.6623516  98.9783478  14.2146170  59.7016907
  46.9382286  20.1239681  45.3612566  46.5432262  19.3637013  44.9344110
  47.5629044  19.7515535  45.9836054  44.3348580  90.6301247  14.6884561
  43.5074502  91.1106335  14.7155786  44.7032910  90.7379209  15.5653095
  72.8472996   5.7802910  52.3409367  72.4902153   6.3296813  53.0387163
  72.1011877   5.2628416  52.0379639  32.3839217  61.8907224  17.4790347
  31.6944772  61.2809669  17.2161710  32.4486810  62.5077306  16.7501056
  51.2198621  97.2310435  14.3330598  50.8804017  98.0794727  14.0481663
  51.8733293  97.4458014  14.9987090 108.8673603 107.2360443  20.4922271
 108.7786710 108.1120809  20.1168251 109.3976175 106.7555814  19.8564482
  16.7466050 109.1512600  29.8642182  16.0645991 108.7515241  29.3244863
  16.6114884 110.0933457  29.7619939 101.6108721  28.2939864  61.0360618
 101.7997330  27.3743892  61.2228914 101.5736263  28.7105656  61.8970533
  64.7370911   0.4428032  15.3295159  63.9294720   0.1790656  14.8885787
  64.5235062   1.2810910  15.7392561  67.6409483  13.8821054  37.5945640
  67.4465561  13.3074164  36.8541741  68.5709333  13.7395227  37.7707100
  58.3073664  35.0627542  15.2393591  58.6512613  34.7867012  16.0889244
  57.4314547  34.6788216  15.1993084  85.4727364   7.1059960  34.6000195
  84.6280956   7.5562805  34.6072960  85.9753609   7.5507021  33.9174962
  86.7895126  39.9220228  29.1621995  85.9430695  40.3533840  29.2792559
  86.7122173  39.1051269  29.6550870  63.9818525  53.0627728  42.4447823
  63.9607239  52.6764584  41.5692568  63.7747288  53.9866304  42.3039961
  43.3016759 108.1202226  19.3638623  44.1621190 108.2999945  19.7427416
  43.4025746 107.2718873  18.9321458  19.4206458 110.5103824  55.8416986
  20.1461917 110.2737317  55.2639341  18.7158948 109.9096129  55.5995607
  30.3698569  87.8968989  15.1351857  29.7504550  88.4918462  15.5578101
  30.5475503  88.3001601  14.2854583  80.6869125  14.3901896   3.2077020
  80.4784870  13.6535585   3.7823033  80.8844185  13.9863503   2.3626369
  60.9463930   2.8665933   3.7713179  61.8147612   3.0222568   4.1427118
  60.8361530   1.9165480   3.8099638  89.0381908   3.9612111   2.1150446
  88.6668777   3.4567302   1.3912642  88.2777786   4.2586276   2.6146001
 116.6758888  81.1789156  94.3791488 116.0941046  80.8731271  93.6832680
 116.1519926  81.8138934  94.8675794  72.5482273  25.7202888  25.3789568
  73.0194902  24.8871374  25.3782082  73.0701303  26.2901640  25.9438396
  38.7800455  20.4685068  37.7270126  38.3933711  19.6073115  37.5687170
  38.5414934  20.6757498  38.6305499  35.2133179   6.6992348  13.5126162
  34.8438144   7.5291365  13.2110178  36.1466074   6.8794918  13.6253619
  47.5614053  78.0502497  61.6729975  47.0072537  78.1866681  62.4414682
  48.3766728  78.5063802  61.8815851  32.4220353  96.6720342  68.6405039
  33.3042794  96.3136326  68.7375975  31.9453937  96.3450967  69.4034958
  18.6487418  93.6893903   0.3735065  18.5442811  94.4525467   0.9417592
  18.0047971  93.0596148   0.6974620  89.5741051  60.4961760  94.3728175
  89.6534746  59.7482405  93.7807663  88.9639871  60.2024234  95.0493506
  63.9608479  29.9361038  47.3308706  63.5600615  29.3410015  47.9644775
  64.7810078  29.5078421  47.0855904  64.2128181  55.6235027  21.9919086
  65.1139402  55.3609800  21.8040490  64.0110302  55.2052164  22.8288984
  65.5104702  53.4860004  92.0982938  65.5296104  54.2663778  91.5443294
  65.4809754  53.8273949  92.9920566  59.9266034  91.7434930  42.3420620
  59.4027787  91.6226315  41.5500879  60.8266717  91.5780508  42.0614672
 101.4301955 104.8267930  56.9592333 101.8124329 104.1312187  57.4943066
 100.7739817 105.2319395  57.5262165  56.4437181  87.2926580  10.1436496
  56.8256360  86.5781938  10.6534612  56.2892419  87.9875719  10.7835460
   4.1968757 104.3472528  20.4149127   4.0165168 104.7538309  21.2624955
   5.0706941 104.6598124  20.1804352  76.0171032  30.6878018  29.2177629
  76.9174910  30.4932237  28.9576173  75.5454254  30.7887864  28.3909893
 116.8376219  91.9222783  23.5774803 117.1242105  91.0155593  23.6868405
 115.9011876  91.8565785  23.3903790 106.9311428  13.7483680  30.4986477
 106.1875534  13.3341300  30.9365034 106.9642544  14.6313739  30.8666635
  77.5125122  39.6780753  37.5665045  78.1769180  40.2467537  37.9556084
  77.4030304  38.9691782  38.2003093  36.3511830 104.3123280  19.1196954
  36.7118150 103.4311401  19.2180979  36.8934327 104.7189408  18.4437799
  44.9198055   2.4217558   8.7074041  45.0326443   2.7962825   7.8337741
  45.6575537   1.8200891   8.8071799  56.7743188 104.7405087  34.7817802
  56.9763166 105.1994853  33.9664459  56.3845426 105.4104107  35.3435063
  47.7739811  48.2332850  34.5185900  48.1785870  47.3759031  34.3866062
  46.8710756  48.1203175  34.2215538  96.6378498  31.4514375  36.2744117
  97.1584225  31.3257003  35.4810476  96.4855862  32.3956275  36.3138318
  28.9406711 105.7113676  14.2275846  28.2534963 105.6572111  14.8917317
  29.3157226 104.8311793  14.1986704  47.4418020  42.1047354  40.1520205
  47.5491667  42.4037218  39.2490745  48.1926298  41.5311480  40.3052711
  65.0655270   6.8348080  40.2847910  65.3468084   7.7478600  40.3435373
  65.1600075   6.6142255  39.3581605 110.2021896  66.5814649  39.1350651
 110.9635364  66.4142906  38.5795116 110.4389059  66.2086736  39.9843144
  85.5739671 108.4691470  18.9457893  84.8257428 109.0661122  18.9513552
  86.3350564 109.0400120  18.8404810  91.1277485  17.4600089  48.4998322
  91.2757111  18.1823099  49.1102600  91.1647892  16.6741860  49.0451193
  52.4859506 108.1413775  29.5552397  52.1039659 108.2132221  30.4299712
  53.0602628 108.9035692  29.4813466  66.8470460  99.9757372  19.4392645
  66.3221341  99.6461677  20.1687026  67.1462041  99.1883801  18.9845085
  40.2494317  81.7183768  19.4040310  40.0774985  80.8048021  19.1758776
  39.3808538  82.1054398  19.5135307  66.7282182 102.4512558  33.4046626
  67.3631841 102.8178846  34.0200019  67.1381646 101.6459977  33.0888534
  70.3209764 102.8174471  32.6118660  71.0469037 102.3209368  32.2340465
  70.2030355 103.5587363  32.0178866   0.5754149  44.9839831  90.5520754
   0.6004297  45.4425282  89.7122283  -0.3538502  44.8108781  90.7028650
  81.9515896   5.4371363  24.8082352  82.4515533   5.6922793  24.0328836
  82.4946499   5.7154810  25.5456924  88.0575657  16.7054904  23.2139039
  88.7401485  16.3685775  23.7942481  87.9777908  17.6298571  23.4493136
  75.9893465  53.0615759  19.2983878  76.5915680  53.1620646  18.5611916
  76.4830589  53.3763647  20.0556087  50.4018545  33.2151198  39.1845512
  50.8609581  32.4665380  39.5654440  50.5110168  33.1075692  38.2396960
  -0.0514400  70.1509655  89.5378192   0.6345427  69.6109880  89.9303498
  -0.0877750  69.8656989  88.6248376  16.7316943 106.3804924  66.4496040
  16.0947066 105.9924599  67.0495272  16.6305333 107.3245980  66.5706921
  66.8319559  15.3286493  51.5069342  67.3670530  15.5626893  50.7485628
  66.6141415  16.1670160  51.9142818  93.9288235  33.3691621  32.5813365
  94.7223282  32.9322171  32.2720456  93.2791901  33.1964564  31.8998861
  51.9868374  25.0915217  23.9974570  51.8995905  25.7310057  23.2905793
  52.5775480  25.5076027  24.6252894  69.0265036  17.5283885  39.8712945
  68.1590414  17.1979678  40.1048851  69.0946007  17.3770201  38.9285946
  90.6323051  22.0630336  39.3017530  89.9473286  21.5050864  39.6701741
  91.4307690  21.7933416  39.7555733  11.7693466  17.6465774   0.6900888
  12.5221485  17.0599270   0.6169069  11.2479538  17.4658775  -0.0920431
  38.9560252  96.5002452   0.2900189  39.1875201  97.0397603  -0.4660009
  39.6648866  96.6483044   0.9159794  76.3339853   1.1459500   2.9511350
  76.2234354   1.2272222   2.0038201  75.6185436   1.6632167   3.3210143
  75.3339100   6.7038602  37.7135396  76.2012768   7.1058208  37.7618384
  75.2473974   6.2213945  38.5357165  73.4165764  12.8322744  14.0475845
  74.1656971  12.7105820  14.6308875  73.5457897  12.1856928  13.3537054
  64.9031878  29.6134496  71.8821669  64.6970797  29.0324473  71.1499166
  64.7535896  29.0785766  72.6617575  22.5633412  89.2773067   8.1769818
  22.1122056  89.1801058   7.3383749  22.3936540  90.1828395   8.4366906
 115.6361931  59.2675865  87.9586412 116.0806101  59.0221665  87.1471657
 114.7264784  59.0024663  87.8231253  27.7667838 106.3265883  27.4453664
  27.3980647 105.5451720  27.8572726  28.6098558 106.4518036  27.8810024
  61.3920832  35.9039903  67.0148849  61.2339306  36.4157701  67.8081703
  61.7770481  36.5283132  66.3998556  22.3252851 101.7365854  11.6556144
  22.5001460 101.3460117  10.7993972  22.2459918 100.9890490  12.2481787
  78.7817955  21.5018678  22.2305202  79.4646740  21.1052275  22.7714300
  78.7573195  22.4173665  22.5089002 102.0530891  11.2748277  32.1827126
 101.9718933  12.1455801  32.5718498 101.4164448  11.2715995  31.4679360
  36.7494994  89.2685782  87.0120239  36.9138986  89.0661441  87.9330158
  35.7954103  89.2781984  86.9355202  63.4284449  10.8759725  38.8778067
  63.8523102  10.1578999  38.4077597  62.6335907  11.0549283  38.3754015
  67.8462934   9.4125158  24.9712634  68.7460899   9.5875436  25.2468729
  67.9300213   8.7460172  24.2893529  41.3698274 107.7855705  33.7661791
  41.6280252 107.0007258  33.2828689  42.1404058 108.3523624  33.7317801
  46.8380451  27.8136325  20.8106565  47.7530146  27.5587583  20.6919146
  46.8160343  28.2335019  21.6705728  30.5901652 103.6557679  78.6669302
  31.4706355 103.5124390  78.3198547  30.4841357 102.9807579  79.3372679
  34.6423226 102.2009670  61.1146545  35.5571014 102.1512436  60.8372784
  34.6267062 101.7667197  61.9675398  43.0468988  10.5464613  75.0465250
  42.3883200   9.8535007  74.9984169  43.5460854  10.4592609  74.2344666
  69.8892164   1.7137545  24.8756766  69.5155144   2.0435596  25.6928706
  70.6549120   1.2086239  25.1491404  74.3334198  49.7646046  57.5641775
  74.0942144  49.7790480  58.4908962  73.9001894  48.9847994  57.2171211
  74.5917559  48.3694744  23.5957122  73.9233303  48.6210489  22.9584146
  74.6777105  47.4218845  23.4912372  71.4173460   1.8283270  14.1179264
  71.3328552   2.5168717  13.4583807  72.3494530   1.6106030  14.1188252
  79.2149544  11.4237845  17.8075707  78.7463093  11.4060760  18.6420107
  79.3084145  12.3546386  17.6050663  55.5288982   5.5072027  26.7135501
  56.1440897   5.5283689  27.4465728  55.9151411   6.0900098  26.0598040
  61.2994957  15.4375303   1.7030898  62.1843147  15.7985950   1.7574890
  61.4197254  14.5640934   1.3304169  27.3173839  93.4898495  24.3759441
  26.6493589  94.0998076  24.0630102  27.7684146  93.9657389  25.0733185
  76.1442327  33.0769730  50.8989573  75.8528280  33.9633107  51.1127853
  76.1154079  33.0394769  49.9429274   9.0790444 100.6743037  53.4130049
   9.9242478 100.7624035  52.9724360   8.6555224  99.9369811  52.9734421
   4.0988505  53.1741025  89.6598704   3.9723837  53.5325048  90.5383851
   4.0440619  52.2257883  89.7778984  58.3352452 110.1875883  55.0309277
  57.6324731 109.5436454  54.9433422  58.1089669 110.6835496  55.8177280
  83.0149937  19.5737767  27.3844361  83.1005001  19.0153384  28.1571388
  82.4480915  20.2907705  27.6686454  66.2003994  11.8456578  35.7639813
  66.6252089  11.2155497  36.3459897  66.4632750  11.5743649  34.8844790
   2.7628165  97.3013245  23.9389086   2.6450616  97.3768150  24.8858356
   3.7054854  97.1817349  23.8235569  31.8059093  69.9790489   8.2961273
  31.5067416  69.3473016   8.9500588  31.6054183  69.5669948   7.4557424
  52.6278734  23.2583809  47.5283623  52.2072649  24.0518975  47.8595018
  51.9792128  22.5681114  47.6662159  62.5301075  35.2032256  36.3137555
  62.7194548  35.5439210  37.1880007  62.7541590  35.9221387  35.7228279
  33.7299996 101.8073373  34.0844226  33.3076459 100.9495371  34.0393806
  33.0362683 102.4010979  34.3715096  45.9315968   0.2768498   0.7779740
  46.7841625  -0.0222353   0.4618831  46.0912228   1.1670459   1.0915076
  81.0528374  10.4554069  37.1106195  81.0999870  10.0066614  36.2664413
  81.9536304  10.4519498  37.4343467  73.3485794  16.0173607  38.4273791
  72.6147747  15.6356597  38.9091110  73.9451933  16.3295984  39.1076660
  23.5085374  90.7612895  38.0583477  22.9379111  91.3924657  38.4967899
  23.4031468  89.9535738  38.5610604 110.4123020  37.2760868  64.5222855
 110.4010773  37.4678659  63.5845613 110.7090282  38.0898666  64.9296474
  51.5441227  14.3655550  49.7478342  50.6276655  14.1550958  49.5688248
  51.6692019  15.2345669  49.3665123  58.4058905   9.3747818  20.2628374
  58.8812876   8.6471856  20.6638718  59.0845060  10.0145781  20.0474930
  47.2336721  28.2157707  34.3149757  46.7058134  27.9076123  35.0516129
  48.1384897  28.1218147  34.6128201  36.3345605  93.8087260  34.4790483
  35.7443982  94.3506991  35.0026894  36.5590411  94.3567335  33.7270331
  94.3958950  56.9336271  12.9481268  94.1460037  57.2552299  12.0818973
  95.1209068  56.3316488  12.7801418 101.8949223  41.4567757  39.8158073
 102.4486065  41.6221714  40.5788946 102.3534203  40.7701492  39.3315053
  73.6501122  41.6983032  23.1354594  73.9064741  40.8378553  22.8035855
  74.0575027  41.7527008  23.9999270  70.0413227  24.1902351  40.9453297
  70.6257820  24.1581059  40.1879644  70.4334307  23.5865474  41.5762377
 109.2315960  16.8572879  17.6785088 109.7635651  17.6379144  17.5240064
 109.7275162  16.3533604  18.3237612  13.2802164  51.2656981  93.4810575
  12.4206888  51.2755451  93.0599393  13.6028540  50.3746761  93.3460985
  97.2648239   3.1261420  13.2931590  96.8342972   2.2718441  13.3256161
  97.8829670   3.0553508  12.5657547  27.3035651  89.8438512  27.7247500
  26.7529279  90.4954432  28.1588626  27.3088819  90.1092087  26.8050814
  31.4769149  54.6173477   1.6628829  30.5798697  54.5282888   1.3410008
  31.3790488  54.7994280   2.5974953  36.4083272  68.4019720  42.0076227
  37.1731788  68.9127409  41.7423964  36.7562038  67.5305902  42.1971226
  57.2991800  23.9227724  27.2639084  57.1314383  23.5274506  26.4084458
  58.2254124  23.7483168  27.4309087  53.1767368   7.1582627   5.4922509
  53.9401722   6.9757915   6.0400712  53.2615662   8.0839384   5.2638650
  73.4976912  22.3771214  78.0136824  73.3280277  21.6599941  78.6245632
  74.2848110  22.8014660  78.3551455  33.2290822  87.2344767  10.5730724
  33.4789163  86.4857518  11.1145782  32.5799018  87.7033173  11.0974586
  51.1588287  14.2824221  52.6501179  51.3980579  14.3113017  51.7237425
  51.6192389  15.0257266  53.0396700 116.4544773  35.0250268  62.3633242
 116.8229961  35.5852056  61.6802263 117.2174931  34.6484423  62.8017569
  86.1590958   3.7002885  11.1277640  86.9828510   3.5550705  10.6623816
  85.9002590   4.5892364  10.8848512  50.5269414  71.7138635  26.2329149
  49.6493608  72.0935904  26.1895204  51.1025029  72.4021660  25.8994365
  86.9974899   0.7304452  45.0786638  86.9635010   0.8765294  46.0240412
  86.5624237  -0.1125196  44.9507713  78.8348007  32.8740358  24.3559289
  78.5353708  32.5337648  25.1990128  78.0415392  33.2079482  23.9370322
  71.6724825  45.8693695  28.2259130  70.9439039  45.5856466  28.7781000
  72.2002029  45.0805044  28.1016874   0.9957165   5.4656261  67.5783014
   0.3334469   5.6097692  68.2542086   1.0742134   6.3107640  67.1357965
  23.7791425 109.3893163  23.0961347  24.5975715 109.8354198  22.8784204
  23.8616019 109.1779496  24.0260577  10.3470641 102.1502100  47.8858709
  10.9565002 101.4718073  47.5950384   9.9860602 101.8124568  48.7055254
  75.0208187  40.8650208  38.7744260  75.2068281  40.9198332  39.7117782
  75.8803129  40.7651806  38.3651209  72.6528168  13.9045966  25.4265976
  72.5719070  14.8575950  25.3881335  71.8774414  13.6176670  25.9089875
  83.8884514  61.6319550  91.1626606  84.1924303  61.1641736  91.9404857
  83.2495563  62.2617812  91.4963709  72.7696800   0.6794016  59.1108942
  73.2034159  -0.0582801  58.6820269  72.8861952   1.4110564  58.5048103
  60.3124619  19.9895740  27.4104095  60.1130867  19.0702796  27.5875521
  61.0379744  19.9614191  26.7866564  91.5906620  10.1077366  13.3598816
  90.9062767  10.7317650  13.1181300  91.2104321   9.2499626  13.1704652
  38.8164806  15.8360195  27.5915456  39.5455360  16.3410509  27.9516220
  38.2540226  15.6568015  28.3450389  67.2480297  35.3437328  41.6089010
  66.3191700  35.1126432  41.6023350  67.2957897  36.1283207  42.1551371
  19.3288559   0.2464759  45.1652431  18.6537880  -0.0808364  45.7597065
  18.8973564   0.9461381  44.6748161  70.0490665   4.5038277  22.5848341
  69.2333364   4.6395129  22.1027446  70.6588840   5.1374602  22.2068667
 106.7881786  93.3005678  45.4172182 107.0265209  93.2046806  44.4951391
 106.3827168  94.1659783  45.4710531  96.6358948  29.4333577  53.7390327
  95.9126854  29.9137902  53.3360624  96.2280464  28.9379549  54.4492912
   1.8949824 107.5825562  32.3748279   2.7268296 107.5812258  32.8483915
   1.9237929 108.3774494  31.8423367  67.5021362   1.5701218  48.0123711
  68.0764675   1.3155046  48.7345505  67.3419046   0.7559111  47.5352764
  58.7915277   9.4537425  84.7506905  57.9034758   9.7179794  84.9910545
  58.7182856   8.5201293  84.5526123  56.3281393   4.3398711  22.0109415
  55.6590223   3.7289262  21.7023039  56.8897915   4.4846711  21.2494874
 107.2756975  53.7933911  94.7815186 107.2045915  53.1385516  94.0869962
 107.9978721  54.3577776  94.5055433  87.3981857  24.9848485  32.9785800
  87.5660801  25.3727508  32.1197581  87.7543068  24.0986466  32.9148769
  35.0049048 105.2851998  58.9187241  35.2032500 105.0774794  59.8318195
  35.7968265 105.7129209  58.5929203  64.6426249  44.6359205  21.7281842
  65.3107595  44.4377041  21.0720277  64.4158363  45.5522823  21.5698314
  58.6756563  48.6512566  89.1339397  58.8989830  47.7804613  88.8051891
  59.0107393  49.2518187  88.4681511  95.3180790  39.3508291  35.6416130
  95.8369064  39.2213368  36.4355135  95.7301807  40.0964069  35.2051306
  77.2847939   4.9029568   4.0323922  76.9184732   4.6676379   4.8848388
  78.2207823   4.7205365   4.1153136  54.7187215  96.1517977  30.0171804
  54.5760804  96.0826599  30.9611630  55.5471688  95.6967091  29.8661661
  58.9306211  34.1771150  12.1407723  58.9762211  34.2308521  13.0953741
  59.8181343  33.9403367  11.8715405  62.3311520   3.0767930  35.0239944
  62.3828936   3.6137679  34.2332911  62.2203112   2.1830380  34.6997285
  85.6374359  29.1464520  83.9084530  85.2262974  30.0051403  83.8092232
  85.4698277  28.9044690  84.8192692  58.1684113  17.8521419  21.1704922
  58.8541842  18.5199165  21.1750197  57.4628878  18.2298005  21.6957021
  86.1445045   7.2454244  26.6998363  87.0104980   7.2829467  26.2937832
  85.6090641   7.8428525  26.1777139  54.3817884 105.5277379  57.6876402
  54.6583634 104.8828476  58.3386803  55.1961022 105.8166551  57.2757435
  45.8108312 101.5413844  29.6676183  45.5137998 101.8333911  28.8057947
  46.6526967 101.9796001  29.7919655  66.3112259  33.1128955  82.3143673
  66.4824486  33.3838320  81.4124203  67.1719694  33.1166816  82.7330875
   8.6346561 103.2200520  33.6472988   9.4744760 102.9269045  33.2937479
   7.9905587 102.6312940  33.2539368  49.5667344 108.1327114  61.8175650
  49.3963796 107.5362082  62.5465345  48.8805085 108.7965286  61.8858957
  86.4510155  36.5917349  11.9960988  86.4893436  36.4830804  11.0458589
  85.5271626  36.7609358  12.1807504  14.8162633  90.6673538  20.4961777
  15.4989368  90.4350566  21.1256409  14.0500241  90.1680719  20.7787180
   5.3516370  97.5015604  38.2239270   4.4086343  97.3441147  38.2707119
   5.7416564  96.6276526  38.2439590  48.9844972  71.7671668  46.2857533
  48.9301854  71.3125597  47.1263552  49.4197446  72.5951277  46.4889145
  63.2823753  16.7501163  18.6310720  63.6324787  17.3568511  19.2833972
  62.3723078  16.6139948  18.8946664  79.2430162   6.3843882  69.3912697
  79.8039150   6.5264577  68.6287451  78.3667564   6.2647802  69.0250826
  44.9032021  35.5026674  20.6748819  45.3398371  34.6509314  20.6861162
  44.0225840  35.3161025  20.3494072  80.5286694  21.0255933  31.5617633
  80.6115532  20.3359628  32.2203779  80.4903221  21.8369961  32.0681071
  57.1607447  13.3339763  60.9986925  57.6543236  13.9124501  60.4173279
  56.6453934  13.9269447  61.5455294  15.0754958 104.5138906  45.2115965
  15.8987218 104.5019143  45.6998396  14.4680244 104.0108322  45.7539511
  59.4331723 103.9826827  46.1436415  60.3362828 103.7642269  46.3736629
  59.1996556 103.3507710  45.4636526  33.0521184  81.9650375  12.1472728
  32.1763211  81.9207846  12.5310004  33.0917293  81.2151252  11.5537298
 105.2441406  20.4709721   6.8718785 104.3171406  20.5930495   7.0768493
 105.5878258  21.3594556   6.7785686  24.0324575  97.5276386  51.9995451
  24.7624141  97.5763511  52.6168108  23.3043939  97.9494916  52.4558210
 113.8840771  28.8318038  24.7379756 114.5612812  28.2713366  25.1167893
 114.1414452  29.7196794  24.9863029  34.7685480  25.1315284  20.8420205
  34.4655943  25.2533531  21.7418051  34.3364549  24.3287182  20.5504370
  81.4146900  47.5305367  34.5576930  81.4336205  47.5955772  35.5124950
  80.4836369  47.4936628  34.3385601  47.5009108   5.9001720  25.3197026
  47.3885727   5.6252980  26.2296772  47.9988861   5.1900631  24.9147344
  71.6778165  82.1377312  31.8640947  71.6641313  81.9313156  30.9295154
  71.2173730  82.9742061  31.9313979  99.8675840  84.3672991  86.9880857
  99.0045135  84.5196510  86.6032000  99.6828812  84.0424777  87.8693398
   1.6545087 107.3174824  43.7412405   2.5584537 107.5365644  43.5151386
   1.7327815 106.6867380  44.4569683  30.6369907 109.5944632  20.1851130
  30.9050876 109.7335595  19.2768121  29.7449475 109.9390540  20.2269912
 105.1811141  38.7757145   2.2639708 105.1093978  39.7053633   2.4803977
 105.7296342  38.4098719   2.9578833  58.9924192  26.5915871  11.1690533
  58.0906487  26.2738848  11.1231971  58.9642191  27.3005199  11.8115902
  54.9758387   0.9578489  42.3361969  55.0255919   0.4676389  43.1568384
  55.3000593   0.3483964  41.6731167   2.1313840  84.1433131  28.7726903
   2.9168206  84.5350491  28.3907795   1.4145499  84.4588434  28.2223964
  58.7971002 103.3348053  60.6395006  59.3975335 104.0073811  60.3180122
  58.3491021 103.7469660  61.3781834  26.5493184  95.9502815  45.9482956
  26.8195849  96.7445098  45.4874372  27.0812589  95.9423458  46.7440367
  65.9263277  27.5312281  30.0900650  66.0227966  28.4271312  29.7671366
  66.7833233  27.1305323  29.9443579  59.3317652  22.1952701  34.1901183
  59.4949913  21.8762779  33.3025193  58.3796310  22.1657467  34.2839265
  35.5936891  70.3480159  88.8241959  36.0224038  70.3124677  89.6792793
  36.1379319  69.7983657  88.2603550  18.6573726  95.7896422  28.6643791
  18.7328034  95.1757835  29.3949413  18.4427529  95.2398705  27.9107738
  53.8020945  24.3181682  37.0864177  53.2010508  24.0563440  36.3889742
  54.5163679  24.7647953  36.6319180 100.4447651  44.1805983  17.2026432
 100.2745342  44.9570656  17.7358866 100.0922394  43.4545994  17.7173078
  63.2433176  14.8183787  53.9280605  63.4745216  15.1869655  54.7806597
  62.3899508  14.4079936  54.0679884  52.8745937  17.2220588  40.7085657
  52.0679903  17.7225947  40.5857563  53.2545519  17.1612740  39.8321152
  75.2928972  36.4925051  21.7562890  75.3421879  35.5677795  21.9985366
  76.0587215  36.6355586  21.2001538   3.2430786  35.6638288  50.2295780
   3.9482350  35.0937319  50.5361366   3.2141632  36.3746071  50.8700371
  77.1094656  40.9586000   0.3706381  77.4243164  40.0553322   0.4053636
  77.7761555  41.4627314   0.8371260  76.6490793   0.8093622  57.8318787
  77.4746037   0.4225456  58.1236172  76.3506937   1.3284919  58.5786724
 103.6156082   9.1107869  33.4630871 103.1322098   8.2859600  33.5101962
 103.1088734   9.6510875  32.8568459  64.1123056  28.6171007  95.1077938
  63.9886236  29.5595169  95.2208710  63.8283300  28.2368255  95.9390450
  64.4795704  23.0356932  64.8291159  63.9682674  22.9731631  65.6358910
  65.3894091  22.9549575  65.1153088 115.1973598  36.8341077  81.4140888
 114.4404333  36.5022112  81.8969377 114.8607414  37.5880373  80.9298249
  65.9284687   3.3744663  78.0211210  66.2727499   2.6899827  77.4473763
  66.1066198   3.0569687  78.9063835  61.8638849  28.1853151  15.7644093
  61.8336105  28.7691331  16.5223479  62.3499346  28.6771297  15.1025140
 105.3602123   2.6640156  34.5208669 105.1117325   3.2447442  35.2400637
 105.3235340   3.2186344  33.7415814 116.5064161  37.9676116  89.2836924
 116.7195289  37.1769369  89.7793223 115.5573957  37.9276312  89.1654112
  33.0461007 106.8916421  35.7592392  32.4285346 106.8865066  36.4905524
  33.0736905 107.8053928  35.4754615  11.9714385 104.2024814  60.1924944
  11.6446239 104.8483442  59.5661640  11.3178235 103.5033189  60.1786137
  57.7795124  36.7678905  33.9199328  57.9447603  35.8294177  33.8294029
  58.6482620  37.1683788  33.8865137  84.9328232  48.5423565  42.2694492
  85.3996658  49.2821646  41.8809032  85.5670261  48.1460476  42.8669119
  30.5980617  71.0073887  22.8207040  31.3272887  71.6267764  22.7920794
  29.8568183  71.5245115  23.1359363  55.3847361   3.7129644  41.6914129
  55.1473236   2.8098869  41.9019318  55.8758974   3.6468095  40.8725023
  43.6192942  34.1507864  35.7632780  43.6085463  34.4236875  36.6806889
  43.6763382  34.9694276  35.2705264  32.9986840 104.6082394  27.6986384
  33.3309108 104.1576104  26.9222426  32.0995408 104.2934709  27.7918696
  47.7168923  90.5943393   9.6417320  48.0625516  89.7036206   9.6998167
  48.3722478  91.1348175  10.0829017  77.8617764  36.6348171  30.6158376
  78.8159609  36.5974331  30.5497861  77.5961685  37.2286749  29.9136829
  82.2409630  34.1375303   7.4383789  81.3415241  33.9064980   7.6704848
  82.1651554  34.5709372   6.5882933 113.6462402  37.7214956  44.2751026
 112.9051304  37.4820042  43.7186527 113.9732456  38.5390377  43.8997126
  58.9164114  15.8374882  41.3347483  59.4558620  16.6038656  41.1400986
  59.4669390  15.2940035  41.8984652 111.4432144   5.4265285  14.1770041
 111.3302135   6.3129461  13.8338923 112.1774864   5.4975939  14.7869456
 115.0768661  15.2364731  34.8705220 114.5009232  15.9254169  35.2020073
 115.2377892  15.4772067  33.9581728  50.9913635  44.4230890  30.7714844
  50.0444126  44.5543718  30.7238245  51.1528969  43.6470938  30.2348518
  26.9646227  93.2113076  93.4678939  26.1536657  93.4207416  93.9312655
  27.2167265  94.0314818  93.0436400  63.2895517  31.3283944  45.0091839
  63.0545950  32.1547914  45.4311991  63.4588623  30.7282519  45.7354069
  21.8446380  88.6840617  39.5363784  21.6263085  88.1587636  40.3062010
  21.0046512  89.0334593  39.2387581  84.1100121  25.7806849  39.4559956
  83.4656143  26.4522481  39.2324162  84.7090626  26.2160325  40.0624990
 114.5653021  91.4931797  52.7588558 114.3284570  90.5977093  52.5174618
 113.9597213  91.7190467  53.4648895  30.0053960  95.8200990  70.5475664
  29.7705155  94.8921751  70.5430889  29.1934568  96.2715768  70.7781315
  42.4580175  99.9259006  57.8849602  42.4701100 100.8742725  58.0140924
  42.0319730  99.5826422  58.6703873  99.2423534   3.4719923  54.4015741
  98.7013912   3.5807270  55.1837349  98.8072777   2.7797931  53.9037800
  71.5371084  53.1181097  10.7455814  72.3628426  53.3850336  11.1494994
  71.5693283  53.4920406   9.8650283 106.3519669  11.5721738  36.7060184
 107.2190571  11.3338363  37.0340204 105.9172821  11.9819546  37.4539208
  26.7256207  27.7996898  39.7045803  26.1409134  27.7396607  40.4600573
  26.7072148  26.9245148  39.3173289  82.1426392  47.1298695  13.0357814
  83.0542660  46.9322395  12.8210485  82.1886063  47.9248238  13.5669708
 107.4962616  34.8523021  31.5631557 108.0333900  35.2449489  32.2513080
 106.8135071  34.3754148  32.0350194  92.0834732  40.3079271  29.9213934
  92.2459221  40.5510569  29.0099478  92.0378971  39.3518853  29.9097824
  56.2009382  22.9813004  24.9001074  56.1862850  22.0648837  24.6240711
  55.4862118  23.3899689  24.4118547  72.3470926   5.4762125  16.3825715
  72.3897409   5.5863327  17.3324597  71.9559622   6.2898749  16.0644495
  87.0582294  55.0178623  35.4399705  86.9866943  54.0694666  35.5479479
  87.9527760  55.2230692  35.7118464  80.2876377  51.3262320  59.3243551
  80.7162094  51.7237282  58.5663652  80.3708744  50.3837109  59.1796160
  77.1474648  51.1108351  39.9219847  77.0423412  51.9937897  39.5676160
  77.7494001  51.2184143  40.6584167  83.2474613  16.7723596   0.8388925
  82.3325634  16.8553364   1.1078054  83.6763477  17.5447917   1.2071764
  78.8341904   0.7506317  17.4535429  79.4158125   0.2848820  16.8526888
  78.2371950   1.2340681  16.8824780  55.3973436  36.6135120   6.3569343
  54.8277664  36.1797619   6.9922864  56.1846352  36.0697150   6.3306320
   0.5563778  24.4956470  37.3929024  -0.2055889  24.2130566  36.8871570
   0.8751149  23.6965442  37.8125191  65.9823895  21.7440224  32.3628545
  65.1494122  21.9679332  31.9478345  66.4787006  22.5624990  32.3607159
  89.3778801  52.3179388  15.1825500  89.5849323  52.7115583  14.3349504
  88.6658287  52.8557920  15.5288601  68.0779505  22.0913100  50.3635740
  68.0401993  23.0415082  50.2543449  67.1843147  21.8415523  50.5986595
  77.4440050  22.8567362  51.1329317  78.1396055  23.5055184  51.2399435
  77.8902054  22.0130062  51.2054491  79.9063349  50.3476810  28.6737609
  79.7714853  49.7715902  27.9213214  79.0990114  50.8586359  28.7319350
  54.0637875  44.0625429   0.3799120  53.3396578  43.8004971  -0.1885920
  53.9655781  45.0102854   0.4714291  91.9881725  11.1445189  15.6853628
  91.8204117  10.8707285  14.7836280  92.6841736  11.7975259  15.6118536
 112.5302029   8.4287679  15.8927870 112.4657249   7.5712574  16.3132036
 111.8868542   8.3973509  15.1847279 109.5733929  67.3214436  74.8451900
 109.2154694  67.3645115  75.7319117 108.8043499  67.2510242  74.2796421
  90.9635162  47.5294542  22.6816154  90.3209209  47.1278763  23.2664585
  91.7320633  47.6742983  23.2335043  89.5782185  57.3484516  42.5277615
  90.2271938  56.6941309  42.7864742  88.7576675  57.0355320  42.9085493
  26.1973458  90.5366241   0.3512114  25.6575376  91.1741530  -0.1161143
  25.8601838  90.5481600   1.2469896 103.1746960  37.6749873  32.5103402
 103.5216141  37.3260689  31.6892862 102.7267170  36.9325781  32.9157782
  90.1112175  16.1049938  58.2241583  90.5642319  15.7965446  59.0089321
  89.3056965  15.5887973  58.1941319  82.9666615  38.7580276  32.3405433
  82.1284103  38.5973668  32.7738595  83.6120892  38.3255816  32.8996921
  48.6493254  41.2624311  30.7363248  48.6767340  40.3078604  30.8017111
  49.1751337  41.4646912  29.9624705  99.0611935  35.4632521  18.5282004
  98.9514542  35.5183363  17.5789094  98.9934635  36.3690686  18.8300991
 109.8715782  12.5522888  36.5293002 109.5632076  12.7121401  35.6373429
 110.4909325  13.2620060  36.6994023  77.7956867  32.7874970  17.2948861
  78.4138680  32.0857477  17.0908487  77.3357248  32.9485464  16.4710355
  98.7970257  66.6650009  43.8405561  98.0019951  66.7764378  43.3192635
  99.1525364  65.8223724  43.5580206  87.6889801  45.1691055   0.7405470
  87.1856213  44.3592405   0.8241072  88.3814526  44.9572134   0.1145989
   3.3301396  26.0330653  19.6918774   3.8995022  25.5071115  20.2535009
   2.4439854  25.8282566  19.9902380  75.6768084  45.6421900  48.4508896
  76.3422918  45.0843954  48.0481100  75.5775499  46.3742733  47.8422594
  94.4303894  25.8996701  23.8467646  94.5624828  25.3539157  24.6219659
  94.4327164  26.7962933  24.1818643 101.8433189  31.1235094  16.4628148
 102.6107979  31.2757754  17.0141995 101.9067764  31.7867351  15.7755470
  63.1144571  20.8355403  39.5871258  62.4344110  20.5779529  40.2095556
  63.8896561  20.3467274  39.8634577  97.8583336  58.0240154  62.0678282
  97.0083237  57.8552532  62.4743128  97.7334595  58.8385868  61.5808821
  65.0931263  26.7206740  49.2942810  64.2694235  26.7649651  48.8087034
  65.3481197  27.6350522  49.4172668  57.1409225  34.3074012  20.4575562
  56.7814159  34.4801736  21.3276911  56.7844439  33.4523702  20.2165699
  92.1408081  46.1504316  34.0901613  92.9059982  45.9356070  34.6236134
  92.0011997  47.0858860  34.2373490  79.6735382  52.4041700  34.8997545
  79.9955750  52.9811192  34.2071843  78.7328863  52.5772953  34.9376130
  72.0652056  39.3491912   9.2004961  72.2459745  39.1916609  10.1271772
  71.1112976  39.3087101   9.1322947  77.4339437  11.4312398  37.7653861
  78.0658865  10.7167971  37.8457165  76.9666386  11.4327204  38.6007619
  73.1323957  43.6256075  27.3506117  73.9486647  43.1973839  27.6086140
  73.3189201  43.9970255  26.4883542  82.7278805  22.5586772  36.2196922
  82.9059696  23.4918833  36.3364959  83.2862854  22.2981215  35.4872155
  41.5084505  14.0257061  20.5702972  41.8282223  13.3267140  19.9998713
  40.9848309  14.5835543  19.9950957 115.8051682   6.3187718  24.4183207
 115.2724361   7.0950198  24.5911598 116.3793564   6.5779495  23.6976528
  75.4111099  40.9081793  41.4714766  74.8793125  41.4990664  42.0046568
  75.1458788  40.0312614  41.7487764  67.6212931  63.8748503  36.5088129
  68.2610559  63.6328745  37.1784258  68.0527210  63.6684656  35.6796551
  99.6267605  73.6133623   8.6899978  99.2611885  74.3106794   9.2343658
 100.5086517  73.9160013   8.4734118  78.9012098  64.1690636  32.2892976
  79.1161394  65.0957870  32.3952436  78.0439281  64.1691780  31.8635082
 112.6179569  64.2555088  59.0335317 113.2900303  64.0162647  59.6717401
 113.1075161  64.4727481  58.2402034  89.0048599  55.1683187  26.7616963
  89.0970993  54.2591381  27.0465016  88.0921268  55.2404308  26.4825177
  72.1459103  47.4398279   4.3235180  71.5184355  47.0862007   3.6930752
  71.7812347  48.2886553   4.5739976  42.4167424  85.1585185  13.4871042
  42.8639680  85.3606330  12.6652932  42.7794534  85.7816326  14.1167080
  12.9632789  92.6898550  36.7218065  12.3095494  93.3875488  36.6760159
  12.6084214  92.0706259  37.3596668  79.6940899  13.2402992  43.6502743
  79.3806410  13.7271917  44.4124556  80.3402042  12.6297402  44.0052319
  89.1724491  27.9983854  30.0185752  88.2948399  27.9972172  29.6364355
  89.2140293  28.8123465  30.5205417  64.6753740  23.8261032  44.3548489
  64.9567413  24.6016455  44.8402357  65.2663565  23.7867022  43.6029053
  66.2829256  12.1174681  13.2534623  66.8495750  12.5138569  12.5916362
  65.4288197  12.5262749  13.1134355  96.6346359  36.7536926  34.4304824
  97.5593662  36.9664669  34.5563221  96.1773682  37.2717357  35.0928807
 105.3189945  18.2519877  21.6082835 106.2579346  18.2745337  21.4235687
 105.2461052  18.5492527  22.5152326  85.6689835  48.0310535  55.0659657
  85.8788967  47.0979500  55.1045275  84.7143650  48.0645418  55.1277208
  86.7228222  47.4956369  66.5527678  87.5534534  47.3269129  66.1079931
  86.3482761  46.6268682  66.6983080  57.7604294  31.0494614  14.1826487
  58.4987068  31.4315724  14.6571720  57.1589756  31.7814255  14.0458548
  92.7245808  38.6854672  20.9496999  93.4736824  38.1910634  21.2823462
  91.9606400  38.2280207  21.3009381  69.2924356  66.5188026   4.8315829
  70.0526094  66.0908937   5.2256137  68.9123583  65.8523321   4.2592293
   0.4817051   0.5001597  36.1827588   1.3310761   0.4953579  36.6240835
   0.6783909   0.7767230  35.2877402 108.8856697  38.8598108  26.0353208
 109.4826698  38.4266424  26.6453886 109.2280960  39.7501945  25.9566331
  56.1053896  54.6868896  33.8298750  56.1130333  53.7688875  33.5588717
  56.3622904  54.6666241  34.7517347  49.0642548  18.3879137  38.6847401
  48.2576990  18.4792638  38.1774354  49.4337273  17.5524735  38.3988023
  22.6885664  57.8840212  93.7572581  21.8143713  58.1210536  93.4476890
  23.2772314  58.1823359  93.0639222  14.9766600  94.0290094  94.6568585
  15.5927431  93.4443761  94.2154202  14.1551840  93.9166475  94.1785373
  93.2358551  38.0349278  48.6803055  92.9496002  37.1426582  48.4849977
  92.4335670  38.5560751  48.6491632 104.5934677   3.7514779  29.5548892
 103.6720657   4.0107232  29.5476198 104.7756577   3.4893867  28.6524796
  96.3819695  28.6448359  29.3946648  97.0592785  27.9781628  29.2805123
  95.5648804  28.1956363  29.1783142  54.2851210  47.8890228  28.3835602
  55.2395630  47.9527903  28.3488274  54.1158676  47.0061207  28.7123013
  58.7538004  14.3594158  24.6218538  58.5238552  14.1358280  25.5237222
  59.6404266  14.7151089  24.6818876  86.5805149  63.2960033  38.5924292
  87.3504925  63.7635279  38.9161420  86.8016434  63.0663776  37.6898742
  49.0217257  40.4880762   2.8081438  48.9724827  39.6772313   2.3018467
  49.7378159  40.3414345   3.4261620  72.4408436  40.1211834  25.2981710
  72.3838186  39.3957138  24.6763420  71.5842724  40.5456972  25.2501464
  76.1112976  28.0266619  38.1353593  75.9860039  27.5005221  37.3456073
  76.0687113  28.9324903  37.8289413 109.7009945  95.0692844  30.3470302
 109.9047184  94.3686867  30.9666181 110.5441284  95.4876328  30.1728392
 113.4249210  19.2335975  27.0360518 113.0617428  18.8190508  27.8186655
 113.9368248  18.5430765  26.6148925  75.4749155  19.9816728  49.8960161
  76.3800526  20.1495957  50.1582384  75.0735283  19.5781553  50.6656218
 107.3175812  26.6682673  47.6771498 106.7240524  27.3483467  47.9956579
 108.1620026  27.1100473  47.5876045  62.0050049  26.4897656   3.7437093
  62.3299313  25.9481001   3.0245075  62.7839375  26.9318461   4.0814403
  84.6925735  35.6393790  60.5657053  84.5570755  35.3732371  59.6562862
  85.5861664  35.3609252  60.7661533 116.7451096  46.1109066  19.6312976
 116.6732407  46.7934608  20.2985191 115.9459496  46.1986923  19.1118073
  94.6790963 105.5962895  50.8644390  94.4807988 104.6662836  50.9739923
  95.4490644 105.6116744  50.2959824  75.7812977   4.6479842  42.6323175
  75.2791262   4.6137810  43.4464979  75.8263111   3.7375438  42.3402500
  84.3406582  45.0181866  34.5345855  83.4427452  45.2224493  34.2733240
  84.4579983  45.4761696  35.3668785  72.3752117  28.8245630  33.4300780
  71.5480375  28.5454988  33.8226819  72.2471285  29.7531557  33.2363200
  17.0027506  70.8030534  89.3642362  16.5363943  71.3854576  88.7646099
  17.3941004  71.3894189  90.0117357  88.9784241  21.6771817  29.3434286
  88.6425591  22.4426365  28.8770509  88.3658409  20.9751725  29.1239691
  80.5177593  53.9513731  41.8904400  80.2207947  54.8242855  42.1474695
  80.9309864  54.0806770  41.0367680  75.7934284  52.1978092  16.1061120
  75.3779602  53.0596447  16.1353767  75.3471041  51.6935349  16.7863548
  75.7934570  62.5367832  32.8167725  74.9582386  62.6312637  33.2747221
  76.1557484  63.4224844  32.7941799 116.5501785  13.2900274  68.3718681
 115.7919025  13.5505712  67.8490210 116.5488148  13.8948822  69.1137457
  85.7730198  43.5002232  51.1668205  85.4620075  44.3440056  51.4947510
  84.9811459  42.9689360  51.0837126  73.3810186  37.1809268  63.6357832
  73.4961557  36.2401748  63.7698078  72.8492832  37.4654436  64.3791151
  58.5814285  55.3143644  33.1619430  57.6367235  55.2519417  33.3028889
  58.6742973  55.9186316  32.4254179  12.1436924  62.1257448  36.1320996
  12.1153397  62.2113562  35.1791573  12.7189965  62.8348255  36.4192653
  75.7370663  49.5923471  37.8999496  74.8539734  49.8623180  37.6479697
  75.8952951  50.0376511  38.7323546 104.1642380  13.8979447  43.7298632
 104.3451214  14.3004465  42.8804445 103.2873821  14.2059445  43.9589882
  78.0226851  32.3575211  39.0904307  77.9904652  33.3109212  39.1693091
  78.1050682  32.0452905  39.9915171  86.3786125  28.6791015  52.6636982
  86.7370033  29.4284964  53.1392956  86.3857841  28.9519906  51.7462492
  95.4176903   6.9373387  32.8788304  95.9945393   7.0856541  32.1295094
  95.7053852   6.0990196  33.2403326 113.4474468  31.1575794  14.5375359
 114.3314457  31.4622927  14.7423029 113.3709621  30.3199983  14.9945271
  77.6170588  51.7400360  29.2866158  77.0401621  51.9248772  30.0277328
  77.1800661  52.1433067  28.5365248 102.6190472  65.7074451   9.0317583
 102.4449158  66.5170527   9.5118022 102.4251747  65.0107431   9.6588588
  36.0785228 109.4517431  20.5474663  35.8175880 109.1701612  21.4243102
  35.5901652 110.2618258  20.4008198  25.4070151  99.8841286  89.7714736
  26.2845671 100.2315188  89.6119358  24.8318350 100.6462908  89.7043123
  80.6540203  18.2325363  45.8441782  80.8017826  18.1344104  44.9035597
  81.5294170  18.3497155  46.2132072  14.2385542  98.5262252  84.9193581
  13.5246908  97.9959489  85.2735277  14.9922430  97.9362679  84.9078711
  61.7889863  98.5950207  37.6159286  61.8806916  98.9197277  36.7201686
  61.0233480  99.0549194  37.9601908  78.5960960  70.4263592   7.6999402
  79.3913984  70.7899046   7.3106366  78.8771963  70.0934553   8.5522246
  79.5056534  48.8943911  26.4819717  80.1864719  48.4695482  25.9602165
  79.1240740  49.5455647  25.8932447  62.3736286  35.2816606  25.7966900
  62.5238895  35.9794736  25.1589513  63.1703329  34.7520828  25.7644320
  75.6466103  11.7896342  39.9353790  75.5470657  11.3262773  40.7670164
  74.8249769  12.2689021  39.8283863 100.8681679  10.0667179  40.3272057
 100.7426357  10.3295851  41.2389994 100.8401299  10.8873796  39.8353100
  39.4567370  36.0562539  38.3305264  39.2212439  35.9253860  39.2490292
  39.7254086  35.1893687  38.0262947 107.9316521  45.9086657  14.0435052
 107.5085926  46.0076904  13.1906009 108.0254078  44.9627304  14.1559708
  89.6956253  10.3058171  21.8913603  89.7357655  10.5450416  20.9654069
  89.0712929   9.5810181  21.9246364  51.5716648  17.0797145   3.1551573
  50.8674240  17.2648311   3.7764543  51.7982721  16.1637270   3.3159322
   3.9732594   2.5463328  61.6621447   3.8591809   2.3357426  60.7353926
   3.2337040   2.1218604  62.0970201  68.4609985  37.3603344  21.6214490
  67.8380299  36.9484711  21.0226941  67.9158831  37.8697538  22.2210932
  79.0335560  17.3264217  35.4949498  79.2924786  17.5310707  36.3934541
  78.8763666  16.3822305  35.5001450  91.2022018  45.4420948  49.8940325
  91.8484497  45.9536600  49.4073105  91.7018604  44.7137976  50.2630186
  92.0283699  35.5131459  24.5404553  92.0065212  34.6542883  24.9624920
  91.1976433  35.9211969  24.7846270  15.7563729  37.8078794   5.0126576
  15.7899803  37.5425911   5.9317470  16.5630383  38.3050442   4.8772135
  74.6050835   9.6686196  38.1108761  74.6747684  10.6161344  38.2274556
  75.2464056   9.3044204  38.7210345  69.0090036  57.6395988  42.8537178
  69.1592312  57.4391937  43.7775660  68.0561447  57.6592827  42.7647734
  71.3068181   7.0592679  88.6478777  71.4293176   7.1150865  89.5955636
  72.1515447   7.3206653  88.2813670  37.2515965   1.8153974  35.6672835
  37.4768138   1.9377106  36.5895343  36.3499832   1.4942674  35.6814623
  89.4551849   2.4299532  55.5951834  90.1873112   3.0321711  55.4626751
  89.4876575   2.2148868  56.5273428  62.3341560  29.6594739  55.1242065
  62.4314833  30.6117082  55.1274681  61.8005610  29.4706059  55.8961153
  72.4022388   1.6995454  33.3157468  72.4534655   2.4646863  33.8886070
  72.8706741   1.9618616  32.5232887  78.6667871  19.3545961  42.2975302
  79.3395090  19.7599328  42.8446865  79.0956497  19.2174733  41.4528370
  65.7096767  19.5369065  17.6428139  65.5732727  20.4840517  17.6661336
  65.7935238  19.3298435  16.7120481  56.7855740  41.1938572  37.2230911
  56.7550325  40.7321692  36.3851500  57.5346327  41.7845154  37.1439505
  31.4494097  71.6859866  89.4769563  30.5437433  71.5404344  89.2034359
  31.9109308  71.9086838  88.6684777  62.6799756 106.5804567  52.6010609
  63.1321221 106.9875868  53.3400059  62.9701787 107.0801180  51.8379402
   4.8929352  43.9194679  39.3549991   4.6000523  43.0499601  39.6277809
   5.1915783  44.3361330  40.1633501  69.5333481  17.9290259  31.7401576
  68.6795568  18.3617663  31.7426848  69.8194551  17.9690599  30.8275938
  99.0127754   1.6819479  28.9870453  98.9928627   1.8163460  29.9345541
  99.9237156   1.8433392  28.7413335  89.3460369   7.0088798  53.7620544
  89.9322701   7.0284057  53.0056286  89.0039253   6.1150277  53.7769270
  73.2944059  27.2567773  56.5580130  72.4886656  27.0892501  57.0468378
  73.1186628  26.9138432  55.6818056   8.7570900  20.2428412  35.8270097
   9.0663761  20.9903789  36.3386416   8.3821911  20.6320119  35.0369287
  67.9432440  51.3972092  33.2087970  67.0073175  51.2426186  33.3367586
  68.0790997  51.2795210  32.2686243  85.0563431   6.1439300   9.6666265
  84.7734737   6.1517233   8.7522095  85.9629250   6.4498854   9.6395111
  89.7311115  34.3735075  52.7015734  88.7911510  34.3422532  52.5234413
  90.0088787  35.2285123  52.3728752  52.5051194 109.9953478  23.5664773
  52.0163613 109.4872517  22.9190350  52.6158792 109.3977364  24.3059540
  36.8133330  11.0038912  14.6272862  37.0477867  11.7565930  15.1701510
  37.6392961  10.5393267  14.4923842  59.9446344  27.3893261   7.6379114
  59.0993357  27.8338623   7.5740021  59.9947929  27.0999527   8.5489428
 109.5253658  60.5978537  46.3302231 108.9394283  59.8744822  46.1074209
 110.1979351  60.1997852  46.8828726  71.1827040  13.4061754  43.6874151
  71.1039543  12.9094338  44.5018339  71.1962748  12.7395582  43.0006361
  85.1289558  57.0558977  62.8027773  84.2338371  56.7212629  62.8577089
  85.3624153  56.9648695  61.8789577  81.1109257  41.8349171  77.1249962
  80.6014347  42.5979471  76.8521595  81.2575150  41.9672394  78.0616045
  81.0820866  52.9619360   7.3633242  81.5089607  52.1907616   6.9900960
  81.7271614  53.3216000   7.9722214  69.7027206  23.9237595  64.9391365
  70.1561975  23.4716535  65.6506062  69.9065685  24.8490858  65.0749779
 109.4188881  21.0531664  61.1512280 108.8417721  21.6956067  60.7383823
 109.2421436  20.2369547  60.6834793 114.4156265  31.1333466  51.1609936
 115.1221943  31.7751265  51.0895348 114.5255852  30.7520461  52.0320606
 105.7198715  37.7167416  50.5529881 105.6719112  38.4780312  51.1312342
 106.5917873  37.7679729  50.1613712 113.8313103  48.4204245  42.4455738
 113.8789558  49.3763638  42.4336386 113.7733936  48.1950760  43.3740616
  75.2370024  47.5718498  46.7997313  75.7901907  48.3527613  46.8196726
  74.3452168  47.9118633  46.7266846  80.2069855  40.6595898  33.2624698
  80.8074951  40.6311417  34.0073252  79.5172215  41.2652159  33.5339022
  97.0886421  22.8591394   3.4339625  96.9565296  23.4386730   4.1842419
  97.6207829  22.1411037   3.7767249  69.9756127 105.9547879  15.7089746
  70.6777936 106.2373443  16.2949204  69.6696645 106.7618697  15.2951527
  66.3577032   5.4391205  14.4021547  66.8972683   6.1813855  14.6744537
  66.2902594   4.8921698  15.1847970  77.6019478  44.5619726  22.2218871
  78.0412292  44.7179604  23.0579066  78.2554197  44.1091967  21.6887784
   1.4731259  13.0921686  40.2095938   2.4280781  13.0907297  40.1440763
   1.2704605  13.8641942  40.7379293  53.1665707  10.1127946  42.6208878
  52.3796892  10.5736768  42.9118109  53.8469553  10.3895664  43.2346535
  89.1937160  46.9869184  29.0938115  88.5366726  47.6211977  28.8070774
  88.8375568  46.1380100  28.8316226 106.6563129  38.0846715  41.3686180
 106.1517143  37.6088214  42.0283031 106.0911274  38.0948949  40.5961514
  55.1151925 103.2233118  58.9954710  55.1306897 102.4495744  58.4321594
  54.3692571 103.0805122  59.5780754  85.2792263  28.1648707  70.2942753
  86.0155582  28.2554889  69.6894264  84.7705555  27.4333525  69.9444675
  22.1736556  87.4161040  22.7498841  21.9849187  88.3503043  22.6611066
  22.8130656  87.3674070  23.4605289  84.0811729  16.0193598  11.8935609
  83.9156914  16.1366260  12.8290260  84.4883156  15.1554894  11.8288004
  71.3453054  53.4056664  43.2417250  70.9332991  53.9478016  42.5689936
  71.9109154  54.0096664  43.7228680  75.5401611   6.5990639  57.4642706
  76.2055445   7.2861218  57.5023270  75.9528065   5.8933330  56.9663715
 108.5051155  43.9439201  25.6928992 108.3453369  44.4248724  24.8808718
 107.6980019  43.4515333  25.8424115  97.7101231  46.2949467  42.6138020
  98.0668259  45.7917690  41.8818140  97.2282124  45.6520605  43.1340837
 102.5961590  56.3173723  57.9284000 102.7373695  55.5262804  57.4083328
 103.4488583  56.7521334  57.9394341  77.1609545  10.6785524  55.8974218
  76.4265156  10.9969532  55.3725863  77.8640461  11.3064897  55.7313108
  67.4567270   9.5980245  30.6226516  68.0628204   8.8578683  30.6550407
  66.9520426   9.4594306  29.8212028  90.2819157  44.4563913  73.8705778
  90.6785297  44.6561623  73.0226278  90.7302189  45.0353861  74.4870377
  48.9446735  27.9209948  28.8041067  48.0014420  27.8276300  28.6705780
  49.3375587  27.3439384  28.1492209  92.6517391  44.6451616  81.6722679
  92.1209049  44.4764614  80.8938217  92.1990395  45.3594542  82.1206856
  88.5473824  47.0890951  57.5495243  88.3515835  46.5828848  56.7610788
  89.4474792  47.3895359  57.4238777  19.0867102 107.0341349  94.8671524
  19.4980299 106.2224246  95.1641033  19.7928488 107.6801682  94.8829357
  80.6585979  31.3903046  70.7698107  81.0791969  32.2122121  70.5172253
  80.9899902  30.7486987  70.1415205  40.5090284  24.6594501   9.8913157
  39.7475147  24.9332142  10.4025698  40.8792496  23.9282870  10.3858531
  99.7798729  17.8848028  62.9338837 100.5954742  17.9826045  63.4252644
  99.7342491  18.6690378  62.3869562  59.7508860  38.0408597  31.3363695
  60.2960300  38.8250804  31.2726974  59.0871191  38.1546998  30.6561589
  87.1070290  60.8934021  29.1695213  86.6466904  60.0745249  28.9857912
  87.3751163  60.8172035  30.0852466  94.6687889   5.5646169  36.0484242
  95.5846691   5.5304354  35.7723212  94.3763733   6.4416075  35.8002067
 112.1516514  12.3291945  59.2881012 111.1959743  12.3359239  59.3417597
 112.3585892  12.9820228  58.6193562 100.1850319  61.4197254  19.8435223
 100.3849792  61.8803501  20.6584334 101.0334969  61.1043787  19.5322537
  99.2129915  90.1163054  94.1840553  98.7867802  89.4410849  94.7119302
  98.5828703  90.8365155  94.1622225  84.5872784  24.7568393  51.5916681
  84.4085503  24.6385264  50.6587744  83.9100361  25.3638458  51.8901873
  47.6331597 100.1954483  51.6046953  48.0091744  99.7314118  52.3527002
  48.2996923 100.8380734  51.3617992  39.1350013  83.8454305  30.7601142
  38.9252025  83.1179987  30.1744032  40.0654679  84.0128504  30.6103230
  97.8720284  33.6467338  40.8122826  97.3695660  33.6559057  41.6269493
  98.0458164  32.7198005  40.6484938  83.9297390  31.7922568  43.0527067
  84.8060799  31.5183592  42.7820873  83.6117458  32.3290706  42.3268032
  65.7034826  21.5993905   2.2581886  64.7670364  21.7903233   2.2048508
  65.7954121  20.7365918   1.8540110  69.2757988  34.0988898  42.7866936
  68.6649990  34.3549204  42.0956087  70.1367807  34.3454170  42.4488068
 109.0480518  37.3924375  71.2831497 109.2223740  37.7126694  72.1681881
 109.0690422  38.1775022  70.7359171  45.4328614 106.1471908  12.8790343
  45.7873326 106.8417164  13.4342086  45.3814298 106.5399121  12.0076227
 103.7448883  58.5506058  10.4122698 103.6990929  57.8186655  11.0274112
 103.6441612  59.3297243  10.9591293  77.2850990  54.3392563  62.2243547
  77.7257299  54.4945192  63.0598021  77.6320171  53.4995699  61.9230175
 115.1678675  64.7502244  85.2494402 115.9416788  64.2528588  84.9847301
 114.6340292  64.8025603  84.4566532  73.2555181 104.8807000  35.8259654
  72.6756555 104.1712194  35.5491376  73.7784368 105.0795125  35.0492668
  92.5972271  53.9927149  53.8326550  93.4540653  54.3983936  53.7004423
  92.0483017  54.6984148  54.1745615  91.5172863  52.4070501  23.1455564
  91.1595821  51.6498756  22.6819158  92.1327782  52.0330048  23.7760305
  99.1582489  54.5553589  52.5025558  98.4540176  53.9307594  52.3288584
  98.7188530  55.3074741  52.8993940  71.1173421 108.7000365  50.7304811
  71.5869123 108.6738143  49.8967838  70.2292138 108.4160047  50.5141830
  96.2701511  51.1753130  47.0812654  95.3727722  50.8535290  47.1673155
  96.8171883  50.4166460  47.2847557  69.4369030  76.2372208  30.5364299
  69.9861097  75.4829025  30.3228617  69.6282911  76.4200544  31.4563084
  29.9063426  10.5661620  82.5091370  30.4081899  11.3358916  82.7772816
  29.0470439  10.6879129  82.9128821  85.8332825  41.3896942  44.0486288
  86.4187527  41.7059135  43.3605433  85.6371021  42.1667576  44.5720005
  10.9095425  18.7228823  61.8316269  11.4387268  19.4907057  61.6156530
  10.0255341  18.9531302  61.5457106  31.4759886 107.5721598  90.9423791
  31.0154688 106.7335559  90.9723593  31.9902861 107.5919724  91.7494346
  92.5391293  28.1617498  30.3261089  91.8675041  28.1224275  31.0069942
  93.1065845  28.8856864  30.5909467 111.6026783  61.3659000  15.7825255
 111.6576767  62.1469498  15.2319181 112.0414639  61.6149139  16.5959668
 113.9502048  57.8882408  19.4120562 113.5164547  57.2901344  18.8034856
 114.5430946  57.3298597  19.9149835  83.0360126  39.0840030   6.6099840
  83.4777069  39.1403294   7.4573153  83.0985546  38.1599450   6.3682431
  81.4425182  31.0548472  34.0200186  81.4816952  30.1025701  34.1087031
  81.8517780  31.3868499  34.8190904 114.4081688  51.6703510  66.9001198
 114.6801090  52.3896646  67.4700832 114.7895813  51.8824625  66.0482025
  63.5155153  91.2611866  21.4085627  63.5645962  92.0573807  21.9376159
  64.4269514  91.0545826  21.2016034  16.2817330  34.7791934  68.9451742
  16.4699311  34.5691919  68.0304527  15.6042141  35.4539490  68.9015055
   0.4595894  98.3655739  34.7133040  -0.1971107  98.1780720  35.3839922
   0.9417958  97.5446796  34.6141267  77.9158306  48.6594915  69.0844440
  77.0560074  48.9166641  69.4173050  78.1319427  47.8629780  69.5693111
  10.6048340  55.0417662  35.2005124  11.4535088  54.6013594  35.1556015
  10.1521630  54.7714949  34.4015908  93.7274837  39.1622806  69.0894651
  93.4972382  39.9986434  69.4940853  93.4359169  38.5031581  69.7193670
  56.5224218  11.9687939  32.7249312  55.8428478  12.6081753  32.5113916
  56.9059086  12.2903311  33.5408854 111.1173344  22.3975563  21.7114329
 111.2392330  21.9613600  20.8681631 111.3122177  21.7219806  22.3609304
   3.1826252  54.4834232  39.3423080   2.7856106  55.2482653  39.7589970
   4.0974087  54.7314167  39.2085075  99.7081470  30.4968405   8.1576324
 100.2980518  29.8015904   7.8663057 100.0548458  31.2910795   7.7511638
  96.2292004  34.1613507  89.6681023  96.4024734  33.6220694  90.4397202
  96.3696098  33.5716534  88.9273167 105.7904243  53.5436726  35.6181574
 106.6821003  53.2912064  35.3785777 105.4917812  54.0882015  34.8897767
  74.2940569  35.1828170  28.3215094  73.6424208  34.9496484  27.6602721
  74.4281864  34.3768883  28.8202310 107.6970196  56.4592505  84.1298866
 107.7083206  57.1647167  84.7767448 107.8351593  56.9005346  83.2917786
  27.3907513  38.9377737  39.4635034  27.3300881  38.8560343  40.4152775
  26.8437809  38.2280588  39.1268158  62.2805691  15.4508865  42.9767227
  61.8412447  15.1522183  42.1804667  62.3634434  14.6632791  43.5143471
 104.5714092  74.3361044  30.9096670 105.0296021  74.9737883  31.4570737
 104.4898033  73.5597277  31.4635706   2.3276753  17.3416233  50.3459883
   2.1107144  16.4819944  49.9851608   2.3609967  17.2026336  51.2924576
  93.6700726  53.2384682   6.6392565  93.1741333  53.5851288   5.8975726
  94.5668793  53.5371161   6.4882845  65.0469685   9.5385337  28.3971786
  65.4342079  10.2564752  27.8963423  65.0762129   8.7887979  27.8028107
  96.7087460  55.9544325   9.8947799  95.9849358  55.3772116   9.6515757
  97.0178699  55.6108189  10.7329941  78.8267279  52.3070526  61.4199781
  79.3830013  51.8558502  60.7849884  78.7489653  51.6924191  62.1496391
  87.8270531  26.6959310  39.2609692  87.5343704  26.3818312  38.4054542
  88.6570263  26.2433481  39.4111633 109.3685913  32.2665048   8.0280572
 108.5325718  32.2430134   7.5624943 109.3166351  33.0508804   8.5742146
  93.3589649  56.3782454  44.6588755  94.1215515  56.7655563  44.2291403
  92.6248932  56.5930843  44.0833521 116.1724854  73.7100458  73.8904762
 116.9565010  73.1727123  73.7772465 116.5023136  74.6071577  73.9417648
  73.0788422  45.1275492  47.8496504  73.3430529  45.1107883  46.9297886
  73.8714027  45.3826523  48.3218813 113.3604717  37.1343136  41.1000490
 114.2489243  36.9132233  40.8207464 112.9319286  37.4527812  40.3055954
  31.7507612  89.2065359  85.0028570  32.6180422  89.0456820  85.3745850
  31.6517317  88.5359932  84.3269904  89.4994259  61.7466640  68.9505911
  89.5226383  62.6593685  69.2381096  88.8592815  61.3300133  69.5275211
  80.4406643  25.3010011  68.7311745  80.9269333  24.7612739  68.1079006
  79.7985649  24.7039008  69.1151142 108.9504528  56.5488768  13.7532771
 109.7049618  55.9641886  13.6819816 109.3079758  57.3576832  14.1196585
  14.2783290   3.1435289  92.8454356  13.8562900   2.5296201  93.4464599
  15.2008468   2.8882589  92.8510364  82.8318214  19.0636802  13.6838305
  83.4547424  19.5151019  14.2534029  83.3068657  18.9364350  12.8626263
  99.3092823  46.6494751  33.5586476  99.8755836  46.9734192  34.2590714
  98.7012768  46.0548306  33.9979267  88.9733696  40.9107018  39.7517419
  89.4484997  41.1912394  38.9695764  89.6545315  40.5941963  40.3451061
  89.3303204  73.0820990  29.0508938  90.2713680  73.1783438  29.1971731
  89.2640972  72.5131464  28.2839918 101.4318562  38.7224364  35.3347206
 102.1262932  38.1483150  35.6577969 101.8952274  39.4725633  34.9621224
  79.4292879  34.3520236   7.5667930  78.7710571  34.4722009   8.2512790
  79.2110205  35.0097346   6.9064850 109.8092556  19.5968497  21.0673785
 109.8022270  18.6664450  20.8425903 110.4604912  19.6697676  21.7650962
  94.1461086  10.8482635   7.6275867  94.6310043  11.3865721   7.0020229
  93.2530308  10.8273005   7.2837782  81.0113335  23.1071448  33.6380076
  81.2567806  23.5657692  34.4415331  81.7960644  23.1452680  33.0912256
  90.8980465  32.1057034  46.7139959  90.9386349  31.4849830  45.9864712
  90.5381775  32.9041839  46.3277864  75.6372643   4.9601123  39.8011589
  75.4815054   5.1343119  40.7293940  76.3043976   4.2737249  39.7949314
  93.0828857  27.3174572  50.9953213  92.9611874  26.4135623  51.2858295
  93.0192852  27.8371882  51.7966127  80.6120968  33.4111261  16.0821939
  80.1139832  32.6266670  15.8525407  80.5644512  33.9623046  15.3010643
   4.6454949  28.6842370  35.2936697   5.3150410  28.4402490  35.9327316
   5.1017517  28.6721969  34.4522953  96.9435215  73.6627817  37.8357077
  97.0475101  72.7321959  37.6371431  97.2217846  73.7456179  38.7478137
  25.0785870   3.7448132  54.5553017  24.1427273   3.8794044  54.7045755
  25.4751820   3.8384920  55.4214239 115.0814152  44.0382290  38.5174680
 114.1268921  44.0759897  38.5782671 115.2557373  43.8620424  37.5929141
  63.5846806  36.5354347   7.3381931  63.4676170  36.5511990   6.3883090
  63.2817507  37.3948789   7.6311463  53.2113838  40.4258966   3.0497709
  52.5520802  39.9224663   2.5721675  53.3817482  39.9103355   3.8380626
  75.0399637  45.0123072   2.0771207  75.7867432  45.2317905   2.6342401
  74.2957115  44.9750519   2.6779002  77.7067327  50.5485058  25.0357604
  77.6687813  50.2433348  24.1293049  77.0290136  51.2222719  25.0902247
  73.5570383  63.4142780  44.2430544  73.6716175  64.0683317  43.5536242
  73.3183002  62.6134729  43.7762022  48.1237948  78.4601427  86.6229589
  48.4366381  77.5906754  86.8727286  48.5617888  78.6426068  85.7916339
  73.0743313  68.8682508  36.5221167  73.3185291  69.7926998  36.4774323
  72.2983551  68.7983561  35.9660506 106.8174553  35.7908082  35.4505992
 106.5787411  35.7030320  34.5278096 107.7438354  35.5519176  35.4821253
  84.2576027  71.3365889   8.8654417  84.8631001  71.8163061   9.4306690
  84.4084167  70.4159355   9.0796477  96.6911316  61.2568665  24.4384551
  95.8742523  61.5777636  24.0563965  96.5866470  61.3969421  25.3795695
  91.0755539  42.2441959  31.5581036  90.4826450  41.6831875  32.0580578
  91.3564301  41.7002439  30.8222628  38.1924767  68.1703377   5.6571680
  38.3333153  69.0739107   5.9399331  38.4128041  67.6421547   6.4244419
  98.3274841  75.7284212  43.6885214  98.6706829  76.1762142  44.4617796
  98.3551598  76.3895559  42.9968834  88.3106518  42.1430922  30.7982826
  88.7138939  41.5251637  31.4080310  87.8752613  41.5899515  30.1496625
   3.0254788  34.7903776  32.4576664   3.6157936  34.6542859  33.1987739
   3.5639614  34.6120405  31.6866517  72.9429483  68.7211990  10.9827006
  72.3783064  68.0663824  11.3933420  72.4335146  69.0446329  10.2396691
   0.8705086  55.9843731  18.0967736   0.8416409  56.2177467  17.1689081
   0.3120179  55.2101278  18.1665003  95.0438595  38.9162564  29.2147660
  94.1773605  39.1139674  29.5701814  95.3068161  38.1102777  29.6591568
  71.0646421  11.7961063  88.0857356  71.0346681  11.7164363  87.1323283
  71.7739373  11.2114515  88.3527596  99.8524570  21.7735624  40.9684324
 100.1704502  20.9579849  41.3556623  99.4382095  22.2383499  41.6954851
   1.6095394   5.3163362  19.6143031   2.5401825   5.0926286  19.6237981
   1.5907711   6.2551987  19.4287872 103.7278271  35.3457451  45.5576754
 103.6432838  34.6365976  46.1950111 103.1547356  36.0364366  45.8904505
  92.9036140  41.5210342  12.9964876  92.8995609  42.1786022  13.6920583
  92.3709965  41.9055462  12.3002815  26.4590341  11.0995998  81.6045208
  26.6132003  10.9211578  82.5322195  25.7114965  10.5474033  81.3754042
  96.0046482  22.1381688   0.8560938  95.1389217  21.7299366   0.8659742
  96.1390877  22.4364400   1.7556456 110.5509186  71.4318895  15.4021549
 111.3630295  71.5861988  14.9195647 110.7515049  71.6973734  16.2996602
  73.5410404  36.0548782  53.6579466  72.6044941  35.8601689  53.6233616
  73.9662838  35.2009988  53.5786390 107.1529961  42.2321463  48.2505369
 106.8082619  42.5946617  47.4344683 107.8841019  41.6783476  47.9766178
  86.6979504  29.7270274  63.8381624  86.9837475  28.8393307  64.0538979
  85.8562088  29.8225832  64.2837811  11.9998497  56.2746382  37.6996136
  11.5554280  56.2150049  36.8539381  11.8319172  57.1692085  37.9958797
  93.1702709  45.3393030  12.7652740  93.9434338  45.2850389  12.2035778
  92.4310303  45.2384377  12.1656251  67.4623537  27.5932932  18.2846308
  68.3734226  27.3654795  18.4697938  67.0178366  26.7501807  18.1963420
  92.5572395  59.8469210  16.8677282  92.5924110  59.8583317  17.8242135
  93.1406975  60.5562401  16.5981257 104.5961952  38.3852911  15.5288589
 104.8068142  37.4544621  15.6025112 104.3117046  38.6367416  16.4075351
 102.1684742  30.0918794  49.3806267 101.5219975  30.4797697  49.9704027
 102.9606342  30.0129771  49.9121189  70.3108454  48.8830042  95.5643654
  70.8733034  49.6298790  95.7694340  69.9351978  49.0936470  94.7095203
  74.8503065  21.2311888  47.5876141  74.0279675  21.6673422  47.8106785
  75.0992680  20.7663774  48.3864880  97.0949459  74.3113899  24.3584156
  97.2309208  74.0386438  23.4510303  96.5602589  75.1026392  24.2931128
  20.0114214  84.2431427  93.1914145  19.6582758  84.1067625  94.0705757
  20.8611452  83.8026453  93.2036296  13.0832810  22.8411317  26.1501503
  12.8595871  22.2158456  26.8395066  12.3475785  23.4532738  26.1340976
  16.9553894  33.0783677  53.9780045  16.9223255  33.1739020  54.9298525
  17.4742264  33.8255882  53.6801767  89.3274879  31.4953876  22.9392457
  89.1390705  32.3008537  22.4576283  90.2131844  31.2551975  22.6670742
   0.3499550  64.9451303  47.0499897   0.6411595  65.1106167  46.1533022
  -0.6056934  64.9471855  46.9956923  94.8328400  24.2543650  39.8926592
  94.6252251  24.7352147  39.0914631  94.4458961  24.7787213  40.5937719
  96.6653252  54.8106289   3.2544267  95.7505226  54.8633051   2.9776818
  96.6216946  54.6680307   4.1999397  84.2690563  58.7278700  11.4306033
  83.9888954  58.6176968  10.5219769  83.5305405  58.4088659  11.9493127
  49.1424256  20.4026593  84.1804619  48.6020261  20.8124389  84.8559447
  49.8226625  19.9375238  84.6674426  36.0586512  83.7624074  89.5598002
  36.3335192  83.4710670  90.4291667  35.7018530  82.9766846  89.1455896
  70.2055120  25.5182552  37.4032116  69.7962904  25.4833651  38.2678246
  69.5158815  25.8439374  36.8247914 101.3521862  37.8965759   7.7925849
 100.5021381  37.4988627   7.9808956 101.4116764  38.6336517   8.4003764
  59.0662241  66.8525839  23.3729768  58.6626768  67.3043966  22.6318669
  58.4661436  67.0061922  24.1027284 101.6445446  70.1816416  28.7818980
 101.8200970  69.3679571  29.2544794 102.0414162  70.0490189  27.9210019
 114.3762589  50.8390713  49.7317648 114.7327137  51.1597633  48.9033175
 115.0500011  50.2493000  50.0700951 103.2441998  64.5058489  58.1005573
 102.4695683  64.3983603  57.5486279 103.9052868  63.9428806  57.6977396
 114.5488262  86.7089367   0.1181026 115.2834606  87.3097134   0.2430367
 114.3083096  86.4372444   1.0038593  78.7675810  55.1574469  24.1089773
  77.9805994  54.6634960  23.8789654  78.4504938  56.0421133  24.2907810
  78.9802980  41.3830996  45.3517962  78.3299208  40.7039976  45.1727390
  78.9633512  41.4860439  46.3032913 115.1943684  40.7816696  31.2151885
 115.8413219  41.4824247  31.1338091 115.6120777  40.0217819  30.8098221
 101.2703896  44.3394566  63.6584949 101.5417767  44.8734283  64.4051266
 101.3571072  43.4369373  63.9653683  47.7593213  22.6627197  91.3708840
  48.0713159  23.2870807  90.7158588  47.2033959  22.0579042  90.8795844
   4.3733162  86.4167309  11.1537731   3.8468689  87.1301937  10.7931519
   5.1391835  86.3712120  10.5814052  96.1126041  81.6185379  41.8667412
  95.3607464  81.8735981  42.4014235  95.9727192  82.0616341  41.0298824
  27.3397393  27.2344446  65.9516525  28.0599922  26.7959166  66.4046001
  26.8221802  26.5212035  65.5779600  77.6638508  38.0986619  47.4208641
  77.0060730  38.5767126  47.9258680  77.6004314  37.1975183  47.7373314
  89.7420406  36.8682265  25.3794765  89.2855072  37.1132231  26.1843276
  89.8393059  37.6906323  24.8994565  98.7227631  86.1879635  60.2685404
  98.6056900  85.7643795  59.4181824  98.6725426  85.4718971  60.9017515
  84.9095726  17.6837254  39.7962213  84.7720718  16.8023086  40.1432562
  84.1859436  18.1977665  40.1544857 100.1209831  63.9947462  43.1322145
  99.4681931  63.6144638  42.5444269  99.9980927  63.5295630  43.9596987
  61.2787056  31.7919135  33.0830312  60.8644772  31.0431838  33.5120416
  61.0403872  32.5420690  33.6277342   5.3912682  63.4589052  44.0870571
   4.9952740  64.1624165  43.5727644   4.9442620  62.6656294  43.7918806
  94.0604877  36.9359708  42.0042181  93.5346127  36.4433932  42.6343441
  94.6134472  37.5011706  42.5436783  72.2663784  31.6540551  69.9315548
  72.3198271  30.8948827  70.5120993  73.1674576  31.7986774  69.6428156
  54.2951089   9.7687139  93.2550898  55.0010282  10.0460281  92.6711373
  54.2221051   8.8251867  93.1113641 116.0766602  34.8702025  37.5373387
 116.4213562  34.9355054  36.6467476 115.4429340  34.1539669  37.4969697
  80.5969524  36.3739800  25.6021452  80.0440598  36.0002065  24.9159741
  81.3986683  36.6341877  25.1485205  25.3840601  98.3725548  94.7623000
  25.7654631  98.6463357  93.9281488  24.6764528  98.9978648  94.9188335
  91.5363407  54.1722393  59.6028328  91.0703278  53.5740519  59.0186834
  92.4547958  54.0909863  59.3458033  14.6545660  92.4646545  85.4477413
  14.0667116  92.8964711  84.8279090  14.2953264  92.6801038  86.3084169
  80.4927731  46.2125444  15.5420840  80.7837582  46.4603901  14.6645141
  79.6930218  45.7074213  15.3954864  25.5730021  64.5945544  91.9602807
  25.7380926  65.0323463  91.1252259  24.7207796  64.9278504  92.2410800
  16.1302609  69.4979429  16.7738569  16.9735569  69.8464823  17.0629883
  16.2914414  69.1900635  15.8819675  73.7239313  47.7056170  33.2837176
  74.6357346  47.4165583  33.2477665  73.7088299  48.3648157  33.9775896
  92.5980568  67.4605751  47.3740244  93.4015083  67.6452684  46.8876266
  92.1031857  68.2791662  47.3387527  29.4099259  37.1249557  21.0495925
  29.9158263  36.4824200  21.5470290  29.9397802  37.2961950  20.2710271
   8.9251751  62.2440243  31.0074854   8.1028504  62.6893044  30.8031774
   9.5605702  62.9518318  31.1148238  83.5408401  26.7105341  33.7146902
  84.2880344  26.3042974  34.1538930  83.1472111  26.0013533  33.2064128
  89.4759274  41.8380547  74.4616127  90.3222179  41.8781042  74.9070597
  89.3568993  42.7139425  74.0943336  84.0402699   6.2579793   7.3953831
  83.2473946   6.1395532   7.9184067  83.7983131   5.9525377   6.5210873
  64.5903379  13.1520166  86.7256095  64.2407113  13.0510177  85.8402880
  63.8167649  13.2727517  87.2762861 108.8401031  81.6368103  18.1042790
 109.0329170  80.7000065  18.1424153 107.9136086  81.7002869  18.3362806
  21.1015839  56.8879890  44.4424534  21.3368649  56.8851328  45.3702831
  20.4717678  57.6037407  44.3572664  38.4463942 101.8567324  91.4668594
  38.6951601 102.0148040  92.3775529  38.8229906 102.5927592  90.9844949
  74.7032452  26.3646603  45.2311230  74.9501228  26.4457679  44.3098688
  74.8802042  25.4490137  45.4467869  11.5826458  12.4530053  29.6415734
  11.2796540  13.2016468  29.1277981  12.1474499  12.8360021  30.3127980
  90.5559540  19.6843326  32.1054578  90.8584881  20.0419450  31.2707019
  90.2318859  20.4446077  32.5883579 108.5906124  23.3296299  50.3267145
 108.2254410  23.6633039  49.5072317 107.9518890  23.5815358  50.9936619
  24.6027512  51.9594717  46.7812061  23.9311737  51.6612577  46.1677837
  24.1884655  52.6778412  47.2592735  74.6806222 106.6845899  62.6386929
  75.5419332 106.2696224  62.6852846  74.8689061 107.6110475  62.4888372
  58.6237097  49.8108673  23.4590173  57.9920530  49.5714188  24.1371799
  58.2109118  50.5381203  22.9932499  19.8155541  47.0204449  52.2521162
  20.2726216  47.6213169  52.8405714  18.9947647  47.4668741  52.0442009
  99.9581337  59.6502018  23.8249373  99.1723633  59.4347239  23.3225727
 100.3591633  58.8026714  24.0175581  99.5233440  36.4019275  53.5292673
  99.2363358  35.5646729  53.1647587 100.0893211  36.7757726  52.8538799
  86.8991375  33.1268668  30.8236957  86.4667988  33.3436680  31.6497207
  86.4657211  32.3256898  30.5295849 102.6446915  16.1810470  42.0756626
 102.0033646  15.9958589  42.7616882 103.4253216  16.4688933  42.5489426
 103.1895828  45.1663208  43.1652117 103.8206577  45.8612871  43.3523178
 102.5822735  45.1888132  43.9047384  73.7498551 109.3064672   4.8524478
  73.0695993 108.8659235   5.3617644  73.9054471 110.1271084   5.3199625
  61.7470723  33.0072583  78.2725103  62.0921308  33.7136258  77.7264257
  60.8330995  33.2471933  78.4251733  87.3752022  19.1272748  24.4337821
  86.8644238  19.1421270  25.2431726  87.5893497  20.0455117  24.2688251
  80.0329018   7.7801573  15.5813289  79.8055410   8.3643341  14.8579502
  80.1321697   6.9202930  15.1726604 108.3666611  70.1184797   6.4671564
 108.4724998  71.0322285   6.7319071 108.2326603  69.6451807   7.2882921
  86.8636322  50.2708435  40.8920765  86.7184830  51.1668301  41.1959982
  87.7958488  50.2388906  40.6771564 113.5581875  29.5002890  64.4833183
 112.7930737  30.0663590  64.5852947 114.3016434  30.0596023  64.7084332
  80.8495903  62.5106239  37.4334526  80.2974415  62.8248739  38.1494236
  81.5662098  62.0487642  37.8686094  81.0221291  54.3338394  28.8303304
  80.1393414  54.5780134  29.1083455  81.5985680  54.9178696  29.3231440
 112.8388596  41.4594364  40.1886845 113.0152893  42.2686815  40.6685066
 113.6041737  40.9096336  40.3567505 107.2095776  49.6533155  51.0889769
 107.7054024  50.2914333  50.5759525 107.8408241  48.9608765  51.2846518
  28.0918927  48.9116716  62.7106047  27.7344269  48.5988903  61.8795681
  28.5841889  48.1665802  63.0551481  64.5171720 106.8864160  82.5765705
  64.4732648 107.0530575  83.5181236  64.8901349 106.0076963  82.5059891
  97.6351452  52.7371454  39.6421719  98.4038734  52.1668196  39.6464419
  97.2743797  52.6462555  38.7602282  52.2581255 105.6647397  86.4783926
  52.8498232 106.3436175  86.8027981  52.0796930 105.9156419  85.5720581
  79.3124866  36.1885357  20.8948874  79.5888853  36.7262030  20.1527643
  79.3306541  35.2917051  20.5608249  66.3634539  58.9444685   6.3420111
  66.9222879  58.9113331   5.5655813  65.5044222  59.2027569   6.0079789
   6.4670700  17.4380910  49.7260284   7.3406643  17.8250265  49.7839928
   6.3437123  16.9980955  50.5671072  85.7578087  42.7695847  37.3626041
  85.8569908  41.8515921  37.6149607  84.8113823  42.9112816  37.3415494
  32.0632612  61.2745971  87.9186709  32.0725786  62.0381082  88.4959014
  32.0036566  61.6418213  87.0367266 104.4467926   0.1964222  37.4937844
 105.3884506   0.3149204  37.3694301 104.1968727   0.8892576  38.1051373
 104.3031693  32.1459341  17.3531961 104.1263962  32.4107647  18.2558846
 105.2435112  32.2862172  17.2422171  11.2262308  76.9857312  80.0187846
  10.9705507  77.8455139  79.6846707  10.5019629  76.7247534  80.5876155
  73.1865835  17.7841866  60.5541611  73.1455135  18.6563849  60.1619673
  73.4694815  17.9398394  61.4552593 107.2193432  38.3860731  34.8297834
 106.4563274  38.9615989  34.8827505 106.9088268  37.5451541  35.1654387
  88.1266022  60.6932640  20.5776358  88.7381363  60.3367996  21.2219906
  87.3763466  60.9852505  21.0954070  -0.2661281  42.4020767  60.6962872
  -0.0889450  43.0246735  59.9911499   0.5772919  42.2906923  61.1350060
  83.7777233  -0.0119367  49.7890997  84.1014481  -0.2432408  48.9185047
  84.1338634   0.8613224  49.9528503  92.9601192  37.8896999   1.8828893
  92.6861858  38.3322287   1.0795444  92.5761223  37.0153379   1.8175633
 112.0214367  42.1721792  87.5026417 111.5368748  42.9097176  87.8734112
 112.0480919  42.3513412  86.5627384  71.0534239  66.4606857  30.6111550
  70.9126472  67.2425747  30.0772452  71.4393997  65.8252716  30.0082421
  89.0468884  40.6813717  13.5159016  88.4016800  40.6002188  14.2182839
  89.7903061  40.1559544  13.8117039   3.6177964  32.6384473  20.6995249
   2.8141159  32.6814556  20.1813769   4.3185562  32.8037691  20.0687838
   4.1655487  39.8247743  13.6880207   4.8482460  40.4726315  13.5135937
   3.7192959  39.7150779  12.8483415  76.5478277  19.8289418  71.6808224
  75.9885740  19.0741682  71.8646240  77.3705006  19.4482577  71.3733864
  65.6438237   3.5397281  89.3833853  65.7707196   4.4873943  89.4287397
  65.0197011   3.3478822  90.0833126  91.5992451  47.6515818  11.1783361
  90.8421516  47.4676085  11.7343867  91.5380955  47.0100880  10.4705369
  23.8561386  61.7204285   6.2536186  23.8360733  61.0660219   5.5553484
  24.3052334  61.2843275   6.9777489  85.1531887  42.2399330  64.2693567
  85.8278370  42.0857239  64.9306345  85.4326916  41.7195559  63.5161495
 107.6813602  33.8969159  38.8412547 107.1947289  33.7721252  38.0264807
 107.2603226  33.3051109  39.4647384  77.9322147  77.7163506  28.3473897
  78.2570171  78.0065823  27.4950409  76.9795370  77.7197933  28.2545042
  49.4408703  45.6454754   3.6695871  50.2964211  46.0540152   3.8013425
  49.5902729  44.7158432   3.8419169  70.5835581  79.8756838   7.8409719
  70.9754944  80.2049541   8.6497992  69.8593426  79.3224525   8.1336766
 100.4797840  21.8446541  27.8715014 100.5070210  21.8074107  28.8275886
 101.3992596  21.8422604  27.6054311  71.8566465   8.8599718  37.9162955
  72.7765512   9.1164416  37.8512287  71.8188763   7.9969442  37.5039983
 107.7427769 101.1689758  27.8698182 108.4039402 100.4956818  28.0303979
 108.2363510 101.9888020  27.8473592  77.4766636  82.0464993  12.7842009
  77.1255398  81.5136909  12.0707214  78.4266567  81.9721031  12.6935637
   2.0707077  62.1004152  37.5988126   1.6537041  61.3937712  37.1058655
   2.7183956  61.6592264  38.1484342 115.6082821  62.5248528  40.0370407
 115.7534504  62.8331280  40.9315348 115.7643032  61.5814543  40.0805473
 109.5655918  45.5294561  56.4325905 108.6427879  45.6658316  56.6472197
 110.0185108  46.2655401  56.8440247  15.7623715  84.4740963  42.6603556
  16.3680500  83.7363815  42.7321434  16.1917347  85.0784588  42.0548630
 110.1684093  62.7437782  22.3547292 110.6372547  61.9131136  22.2746778
 110.8124161  63.3476210  22.7246666   0.6166977  56.0058355  57.5434160
   0.9999985  56.1994457  56.6879463   1.3600201  56.0145760  58.1464338
 112.2398949  48.3775663   8.6135983 111.4309978  48.4510565   8.1071210
 111.9571209  48.0628204   9.4722056  70.7404005 100.1187039  81.6073199
  71.5094912  99.8539973  81.1026795  70.9097922  99.7922135  82.4910315
   4.1661400  60.7697916  38.8758135   4.8885388  60.2677345  38.4985709
   4.5177025  61.1159611  39.6960568   6.5701336  65.1916599  19.8913860
   6.2565083  66.0843754  19.7467244   5.7986779  64.7129583  20.1945949
  81.1900139  53.7745857  32.6980019  80.5330563  53.3694649  32.1318555
  82.0126152  53.3522654  32.4506092  88.2055664  15.5375552   9.5443153
  88.7683392  15.3735137   8.7876076  88.0220795  16.4762747   9.5073223
  99.0960789  53.5505581   2.6929832  99.2771816  53.5252714   1.7534122
  98.1968880  53.8728142   2.7549961  45.7918512 107.5044919  91.9466146
  46.3485300 107.5707103  92.7224724  45.8491289 108.3674193  91.5363713
  90.4084778  64.2596340  24.2821240  90.2722549  65.0446796  23.7516689
  90.4628754  64.5843554  25.1809168  23.8634629  70.2183580  39.5362401
  24.6351761  69.9564886  39.0341330  23.7242836  71.1355877  39.3005610
 101.0595894  32.8550029  25.5691528 101.4103603  32.1445727  25.0320506
 101.6263676  33.6022377  25.3777838   0.8833927  67.5121117  50.4028702
   1.2085575  66.6724348  50.0781488   1.6180176  67.8795767  50.8943224
  84.4313049  40.5674982  18.4279943  84.8652935  40.9754848  19.1772854
  84.6116161  41.1576462  17.6962554  71.7991161  72.8053236   2.1110773
  72.5236893  73.4167433   2.2429648  71.0380650  73.2523680   2.4814565
  87.0903397  64.0902472  10.0235665  87.0144463  64.7608709  10.7023442
  86.3110924  64.2096996   9.4806677   8.2501454  29.0720773  36.2634850
   7.6732964  28.9066720  37.0092130   8.7609524  28.2676649  36.1727595
   8.3742375  20.5296159  50.4847622   8.8604302  21.2222624  50.9320688
   8.9195675  19.7496521  50.5872393  49.7249681  41.3092031  87.9081501
  48.7985211  41.2432183  87.6767041  50.1842767  40.8926477  87.1789338
 109.0907669  96.2835598  37.0314646 109.9442863  96.4346695  36.6253877
 108.9370346  97.0643139  37.5634575  29.9158997  71.8792009  53.0461025
  30.5095333  72.6294804  53.0763340  29.0437645  72.2594547  53.1510639
 101.0165310  55.6584024  39.5069671 101.2976456  54.9044895  40.0254488
 100.0868988  55.7572079  39.7124982 113.6195660  71.2915993  39.8222518
 113.8309002  70.7338858  40.5709314 112.7337933  71.0298014  39.5710444
   7.9899084  94.3125201  93.1338193   7.4666178  93.5153342  93.0508070
   7.4226248  95.0072909  92.7995880  13.8211119  97.0513821  91.9894765
  14.3588125  97.8357745  92.0983343  13.2814753  97.0194007  92.7794089
  71.0285473  92.4241447   1.2152973  70.3837776  93.0934811   0.9861816
  71.8629265  92.8927422   1.2368228  87.7630329  39.3368578   8.4052980
  88.5670757  39.6547365   7.9945755  87.2215843  39.0401053   7.6738572
  19.6760792  62.9788876   4.4211599  19.2665810  62.1590567   4.6975943
  20.2242894  63.2348108   5.1629114  96.4409447  50.0995111  39.7484183
  96.0144329  50.7633018  39.2064786  95.7248878  49.5408869  40.0507832
 116.7588997  68.8059711  41.6411257 116.9229984  69.2677116  40.8188677
 115.8592892  69.0385294  41.8710041 101.8422127  16.4655781  28.0993629
 102.5556374  16.2373173  27.5034165 101.3785362  15.6409144  28.2448435
 102.5638676  65.2049208  43.7266779 101.9202900  65.6604433  43.1839514
 102.6749516  64.3538094  43.3030081  92.9573250  62.6814604  54.5052576
  93.7057304  63.2772923  54.4720411  92.3112583  63.1382275  55.0439453
 112.0336914  24.2448997  10.5668640 112.0401669  25.1973391  10.6620002
 111.4196682  23.9415669  11.2355959  81.4979458 101.5560150  23.0050921
  82.1951294 101.1313438  22.5052667  81.6759205 101.3173199  23.9148092
  96.3197327  45.1875305  16.9155622  96.6461945  45.1630354  16.0160863
  95.8822823  44.3445063  17.0346308   0.6424183  70.0605154  32.3408365
  -0.1567417  70.2540398  32.8308678   1.2619538  70.7360744  32.6165485
  71.7270231  31.5476465  34.2098618  71.0978556  32.1020484  33.7483191
  72.5821590  31.9035292  33.9683676 106.5878391  49.5610380  37.5175571
 107.0984173  49.0970850  36.8540096 105.9607506  48.9112043  37.8349018
 101.9109535  62.3894024  26.4360619 102.7386856  62.2529936  25.9751081
 101.4761639  63.0873775  25.9461379 106.2846088  61.6591311  64.8312521
 106.7120647  61.1170530  64.1681767 105.7863522  61.0385704  65.3631115
 115.8850384  22.2523665  12.4934244 115.8835983  21.3470531  12.8042924
 115.1101589  22.3150778  11.9349802 102.0156479  33.8494730  43.8793755
 101.1097336  33.8226008  44.1873074 102.4628353  34.4241905  44.5006227
  10.1273388  62.6637506  19.7503316   9.2393536  62.9009485  19.4830358
  10.6756729  63.3737421  19.4164586 111.4591789  41.5930891  32.8141022
 110.8878422  42.2177792  33.2608247 112.0248222  41.2490559  33.5054231
 108.8213539  60.7572174  41.7166424 108.8367367  60.6724167  42.6699543
 108.2533169  60.0453568  41.4219904 113.0099964  80.5378342  17.0508718
 113.9037991  80.6309509  16.7212224 112.5076103  80.2289295  16.2969327
  87.8481960  69.9261236  14.0593112  87.6428986  69.2387486  14.6930301
  88.6926079  70.2729416  14.3472803 106.2945366  40.1959848  17.1729696
 106.9677639  39.5219350  17.0799816 105.5618286  39.7462344  17.5938034
  45.7633841 106.0464669  85.4822542  45.3016245 106.7423535  85.0145419
  46.6078818 105.9780265  85.0368531  60.4803801  61.0124016  19.0593255
  60.8242989  61.8995571  18.9548767  60.5401325  60.6278515  18.1848073
 108.6566448  64.9325275  23.3749437 108.8464165  64.9861908  24.3116069
 109.2370415  64.2432308  23.0520844  12.1938271  66.4899302  59.5061350
  12.5511307  66.2469578  60.3602600  12.2119278  67.4469519  59.5023966
 103.8086510  52.8218794  31.7764854 102.8876495  52.5801945  31.6786408
 104.2065716  52.5942850  30.9361959  97.4985600  82.1940136  14.7347331
  98.2752895  82.6681614  14.4379139  97.2066498  82.6738834  15.5098104
 107.6910019  29.7041845  19.1115582 107.8087711  29.3376064  19.9879038
 108.5122681  29.5117593  18.6590898  17.8106081  90.0737620  90.9501089
  18.5159075  89.5749522  91.3623874  18.1196081  90.9796429  90.9614168
  78.1826925  46.4120817  51.8616915  78.9404917  46.4983225  51.2833023
  78.2003450  45.4979086  52.1448898  96.8545055  80.2413177   3.6509424
  96.0526752  79.7395325   3.5042676  96.6493225  80.8089161   4.3938875
  10.8761353  39.2059636  22.5485611  11.3133854  38.5140920  23.0448985
  11.5324158  39.4983625  21.9160843 106.2272644  60.3201771  13.8419271
 106.8111610  59.7677517  14.3616593 106.4539051  60.1202488  12.9336894
  10.4495472  55.7374430  43.2373285  10.6533665  55.9610605  42.3292065
   9.6566243  56.2360382  43.4345913  12.4478192  38.9401889  33.4508944
  11.8841309  38.2077694  33.6999798  11.8528504  39.5758843  33.0532408
  90.8420086  54.9170494  22.9008460  91.1110687  55.0898600  21.9986415
  91.2477684  54.0769911  23.1150603  68.3720380  34.4666661  90.1339688
  67.8571588  33.7746705  90.5490227  69.2271119  34.4181432  90.5614446
  32.4188179  47.7791071  13.1245041  33.3408875  47.5223446  13.1150782
  32.4014229  48.5909271  13.6313355  99.1136169  28.9786053  25.8662724
  98.2158947  28.6510801  25.8110428  99.0213013  29.9313426  25.8678317
  16.2645668  69.6682072  58.1155205  15.8414978  68.8099813  58.0891991
  16.7439312  69.7243834  57.2889137   9.3633122  72.0572376  17.3533452
   9.4761986  71.1911631  17.7450109  10.2501339  72.3323536  17.1207464
  13.0083126  65.2572918  40.5139065  12.8002495  64.4186735  40.9258080
  12.2641320  65.4324007  39.9379182 106.0053444  66.1692095  17.8291440
 106.2430000  65.5020952  17.1851647 106.3547421  66.9845486  17.4694622
  10.6844467  47.9581213  53.1434536  10.5578179  47.7892447  54.0770864
  10.9086174  47.1040964  52.7738237  92.8888416  57.8424835  32.7795720
  92.2513676  57.1890163  32.4917674  92.4165058  58.3706760  33.4231091
   0.8332199  22.3107672   5.8620149   1.0308308  23.0489445   5.2855790
   0.8680195  21.5441322   5.2899212   6.1448998  84.6222973  39.9308300
   7.0268959  84.5836163  39.5609403   5.5667729  84.4323158  39.1919708
  77.5785905   9.8978843  83.2231493  76.9506055  10.1253833  82.5374992
  78.2620030   9.4056834  82.7682717  88.5143280  72.9814291  44.6825647
  88.5913467  73.3614016  43.8073969  89.0694046  72.2020960  44.6550179
  14.6565193  47.4780083   7.4384582  13.7856144  47.2459412   7.7608031
  14.5149559  47.7294827   6.5257972  74.2260122  54.0412569  49.3440580
  74.6601486  53.2332611  49.6177483  73.4814262  54.1266155  49.9394894
  96.2298870  35.4554129  57.0457506  96.1675644  34.6039057  56.6129923
  95.3551579  35.8338165  56.9569445   2.6763958  64.6911383  38.2364130
   1.7542977  64.9302006  38.1425786   2.6610035  63.7606192  38.4603000
  84.7098923  55.4395294  23.8244677  85.0229263  56.0935736  23.1995940
  83.8037682  55.2739763  23.5641456   1.3332886  47.0690012  54.9725914
   1.3915009  47.8836155  54.4733524   0.7650322  47.2818565  55.7128716
 111.7333794  37.3861432  19.2713094 112.5552750  37.7371073  18.9284635
 111.1601067  38.1489801  19.3466175   7.1734089  86.1669922   6.7239922
   7.6869339  85.8968830   5.9627026   6.6132969  86.8711948   6.3974649
  83.4149742  68.5863829  73.2189894  84.2822552  68.9319515  73.0077171
  83.2076454  67.9989576  72.4922276 100.5677700  53.7148714  22.1101785
 100.6709671  53.0254698  21.4542007  99.8846531  53.3880758  22.6956558
  35.8162099  17.6711215  88.8842829  36.3881188  17.2294702  89.5120509
  36.1392671  17.3911990  88.0278333 102.2687054  32.0332241  28.0781579
 101.6138649  31.9222856  28.7674356 101.8300724  31.7359948  27.2809863
  81.5641499  47.4989462  18.0247009  80.8362675  47.6252842  17.4160409
  82.3056793  47.2656775  17.4661767  42.5953717  23.8517118  14.5416582
  43.1326145  23.0595112  14.5461917  43.1263584  24.5038271  14.9988472
  23.1185288  33.1623006  51.6982174  24.0229458  32.8736544  51.8204498
  23.1957096  34.0390587  51.3219595  76.8861437  53.1879520  66.9563103
  77.4076891  53.6060143  66.2711525  76.3609982  53.8984156  67.3246765
 113.5366249  62.5542402  22.3515987 113.1000805  63.2549620  21.8671870
 113.9513588  62.0181751  21.6756845  86.0270023  38.2037330  35.8871341
  85.7692337  38.4671092  36.7705488  85.2485275  37.7787042  35.5271864
 116.4942074  67.6142073  34.1567945 117.3138714  67.9898453  34.4781804
 115.9395027  68.3721542  33.9722562 107.8507900  64.5582724   2.4087863
 108.7470150  64.5544863   2.0726247 107.3315620  64.9420786   1.7021587
   3.3937496  93.9670944  52.7996254   2.4668450  94.1976547  52.8621244
   3.5360379  93.7971878  51.8684340  93.1704140  50.0072718  52.3872662
  92.5332260  50.7192230  52.3294306  94.0206909  50.4468250  52.3943567
  99.4513702  48.0395126  25.8099771  98.5524464  47.8585863  25.5353379
  99.5785713  48.9682961  25.6165409 112.0187283  35.2474046   4.6844795
 112.0970440  34.5579290   5.3438145 111.5300846  34.8403263   3.9691183
  41.3718361  55.8161163  11.9697928  42.1090359  56.3270521  12.3040330
  41.7290444  54.9378061  11.8386424  63.7730503  68.7495422  28.6676288
  63.2031631  68.7095499  29.4356537  63.3603668  68.1643629  28.0324268
  94.1416073  48.5674906  40.4817772  94.3082333  47.6257849  40.4410982
  93.3932781  48.6530161  41.0724735  78.0027962  74.5065880  12.3256850
  78.2109594  73.7836742  11.7338288  78.8091516  75.0205469  12.3688793
  52.5426638  74.0777314  92.5105830  52.2413313  74.9550105  92.2743340
  53.2061255  74.2257679  93.1844859  97.1487045  73.6087513  21.5344954
  98.0007935  73.9568567  21.2718368  96.5281868  74.3039846  21.3157487
 113.7586117  23.5668802  38.0400920 114.4417381  22.9556727  37.7644086
 113.9033985  23.6800885  38.9794827  68.6293840  80.2856350  22.6459980
  69.4218445  80.7319641  22.9443812  67.9814672  80.4672527  23.3267689
  96.6360283  32.8271675  30.7919312  96.5591431  32.0206165  31.3016343
  97.2776318  33.3524489  31.2701130  16.0739655 106.4560890   8.9305151
  15.2018303 106.2922955   9.2893666  16.6695828 106.0211754   9.5406932
 108.7454605  43.5035563  72.8726959 109.0758133  43.4438276  71.9762993
 109.2613983  42.8622437  73.3613253 112.8228092  72.3946953  51.4392900
 113.7771320  72.4688578  51.4414358 112.5265694  73.1308222  50.9039450
 105.2707958  62.8974628  55.2832222 105.0385094  63.7707090  54.9674559
 104.8055458  62.2995949  54.6981335  83.5373289  25.1350450   8.0411295
  82.7526362  25.4298162   7.5789599  83.4785826  24.1797447   8.0276351
 101.8159199  92.1543694  23.8316822 102.3891258  92.4442863  23.1220245
 100.9302902  92.2885704  23.4942222 115.9048939  96.1119556  32.8575563
 116.2828255  95.7912636  32.0386815 115.6164455  97.0020771  32.6558042
   6.0300297  60.7867002  41.3082266   6.8184990  60.4956579  41.7663145
   6.2031788  61.7028999  41.0918379 114.5233727  51.2289000  28.2988882
 114.8512650  51.2890387  27.4016142 113.6076546  50.9674549  28.2022381
 102.5058174  63.4709072  74.0775681 102.9470539  64.0227509  73.4318113
 102.9403687  63.6765814  74.9052763  11.5365261  62.7313995  69.7876883
  11.3334603  62.2543907  68.9830351  12.2680611  63.3012056  69.5502043
 105.2937698  42.5407028  50.2279139 106.0321236  42.4837303  49.6214437
 105.0063992  43.4519434  50.1704836 104.8591423  17.0513332  34.9708986
 105.0634098  16.1657929  35.2714419 104.0546322  16.9518960  34.4618726
 111.1582375  41.5565157  63.4498024 110.7592869  41.9292545  64.2360115
 110.4476643  41.0754061  63.0257130 101.6858482  34.3334389   5.9419614
 101.8903542  34.0931535   6.8456614 100.7582092  34.1199112   5.8414161
  21.6351265  48.6512470  14.7577405  21.2630410  49.3556261  15.2884269
  21.9407505  49.0867186  13.9620066  77.2383070  81.5533447  32.1697736
  77.1897793  80.9817028  31.4035439  76.5291739  81.2527752  32.7381277
 102.6915836  46.5058899  40.4603004 102.0656395  45.7890177  40.5628872
 103.0055904  46.6785336  41.3478994 115.7787228  79.3854189  32.2494555
 116.0949039  79.2944479  33.1483340 115.1507092  78.6709261  32.1429992
   6.0559696  78.8286543   0.0584679   6.5135521  79.2587519   0.7808699
   6.0763306  77.8981876   0.2821803 113.6457539  66.3731432  42.8550577
 114.4422817  65.9172678  43.1270075 113.9339542  67.2657537  42.6642132
  56.2546712   4.7703971  78.6024507  56.4440805   5.2212466  79.4253071
  55.3673154   5.0485839  78.3756645   7.8531403  44.8248959  46.6790438
   8.1202263  45.4595280  46.0141087   7.9714150  43.9732122  46.2584734
 108.5954189  76.1514139  36.6472316 109.2686176  76.8165684  36.5036726
 108.7209415  75.8756733  37.5552225 111.6214943  60.4173374   9.0217805
 112.1150208  60.7582664   8.2758391 112.1396828  60.6680250   9.7865456
  93.7264633  25.5508804  42.0866585  93.2888889  25.3144956  42.9045153
  94.6126461  25.2011418  42.1793842 102.3326588  51.9168997   5.2412152
 101.7628098  51.6867256   5.9750533 102.0655727  52.8037500   4.9995649
  20.0559372  65.5435276   3.4208494  19.7724480  64.6926641   3.7553537
  20.6855339  65.3322029   2.7315170  96.6902256  82.5450611  34.3990278
  97.6462173  82.5184250  34.3590331  96.4837265  82.3639965  35.3159809
  10.4959530  34.8085737  25.4338670  10.4803604  35.6061935  24.9049115
   9.6352047  34.4130826  25.2962947 101.3194180  68.9980745  42.6428080
 101.7233276  68.2213879  42.2557068 100.6573296  68.6509848  43.2406378
 106.3014507  57.6902151  34.8054790 106.9983578  57.1856499  35.2249646
 106.1348152  58.4152126  35.4078388   4.9630684  59.6408796  73.2570171
   5.6863255  60.1477671  72.8879595   4.8632378  59.9789762  74.1469336
   9.1524071  60.8309650  51.9295168   9.9188275  60.8945847  51.3596249
   9.1168064  61.6757250  52.3782349   2.2698349  48.9054251  48.3479309
   3.1772847  49.2098665  48.3569717   2.2497982  48.2323074  47.6676798
  37.3404736  57.6969051  39.9406052  37.1223492  56.7699337  40.0374508
  38.2948441  57.7266836  40.0078773 110.4444790  62.6220083  32.9149032
 110.1576424  63.2308435  33.5955477 110.6606293  61.8184376  33.3879566
 101.1114883  80.7425022  39.9536705 100.9790325  80.6570435  39.0095401
 100.3753471  81.2769890  40.2513933 103.5057640  44.0181971  28.5969877
 103.7111568  44.8386002  28.1486726 102.8145790  43.6218929  28.0664897
  98.5902023  61.0772371  32.0242643  97.8695011  60.9196806  32.6341796
  99.2548275  60.4326582  32.2672105  13.5789055  78.3808804  15.7108676
  12.6808495  78.7104750  15.6777406  13.5399670  77.6399946  16.3156855
  89.6891880  68.0675030  39.1154599  89.3400478  68.9557076  39.1891265
  89.3063068  67.5974464  39.8561883  88.0922794  66.7262697  27.1319842
  88.4098244  66.0324430  27.7099085  87.1485424  66.7557812  27.2892594
  98.8098335 104.5496368  21.9751501  98.3133316 105.3471184  22.1588159
  99.5807552 104.8526096  21.4954305   1.4246220  36.5718722  30.9113026
   1.9763893  35.9800529  31.4227057   1.6884941  36.4209509  30.0036550
 108.7703705  40.4674482  46.5547514 109.6371651  40.7665396  46.2800932
 108.2269382  40.5569267  45.7718658  89.6147156  54.9148846  45.2283621
  90.1385880  55.1869154  44.4748497  89.5519543  53.9633465  45.1454687
  19.2192519   7.5187243  11.2701452  19.9672092   7.2192324  11.7869580
  18.7662566   8.1388510  11.8415117  30.7945311  89.8710561  65.8089467
  30.5458510  89.8743773  64.8846193  31.3274920  89.0825010  65.9107538
  91.6908836  94.7208309  41.6660023  90.8913517  95.2146816  41.8479490
  91.6055679  94.4559097  40.7501602 101.6187954  69.4915295  34.1696191
 100.9658909  68.8438749  34.4351363 101.3880634  70.2796984  34.6613312
 105.6554222  76.5586805  33.7024856 106.2769318  75.8600187  33.4979534
 106.0690880  77.3534298  33.3656025  68.0018025  42.0535459  66.4898963
  67.9911119  42.2849454  65.5611487  67.6100999  41.1808099  66.5238114
 103.5956478  48.7497854  38.7640357 103.7144089  49.3738651  39.4800377
 104.0977573  47.9799938  39.0315199 115.7710266  97.6713753  37.5408125
 115.6921101  96.7191696  37.5984430 114.9096298  97.9991722  37.7992082
  91.2538242  46.2847233  37.9712939  90.7397938  45.6244612  37.5064778
  90.6029320  46.8152094  38.4308028  85.0494385  58.6025953  28.3822560
  84.3437672  59.2429304  28.2915044  84.7965050  57.8837299  27.8030443
  11.5556299  86.7166472  87.0629771  11.8885576  87.6140571  87.0695640
  12.0455229  86.2845684  86.3633038  93.0007917  15.1855935  95.1172460
  92.1630364  15.6453170  95.1725722  93.2166368  14.9710168  96.0247695
  20.2549500  52.1087646  65.3862619  19.4382710  52.0293283  64.8933554
  20.7123703  52.8423119  64.9752808  17.1567864  74.1711712  29.8869753
  17.5119061  74.8542595  30.4557610  17.9276890  73.7098694  29.5566058
 111.6142464  61.0833645  82.5437546 111.7131138  61.0928631  81.5917301
 110.9045601  61.7018747  82.7170467  12.2931713  61.0398388  54.8238516
  12.4437184  61.1747169  55.7594681  12.3935742  61.9097233  54.4372606
  81.2356377  56.2778759  16.3839734  80.5390739  56.7974091  16.7853761
  80.7844830  55.5216599  16.0087049  32.4910874  30.2118993  28.3423162
  32.0393605  29.6054602  27.7554488  33.4185452  29.9986768  28.2394171
  72.7608204  64.8890209  29.0113235  73.0228329  63.9683867  29.0078330
  72.9751253  65.2023697  28.1326222  40.4941124  41.2130642  30.6801462
  39.7023625  41.0324812  31.1868501  40.5434460  42.1683550  30.6452274
  97.3854160  30.7173491  47.9845047  97.9774284  30.6373501  47.2366095
  97.5425339  29.9262929  48.5000372 103.1135178  62.4818993  66.0216808
 102.1673298  62.5994968  66.1060381 103.2112026  61.7795181  65.3787613
 111.4617157  52.5446701  51.4675522 110.6567192  52.4779224  51.9811201
 111.5476322  53.4788179  51.2772274  93.6161900  74.5564985   1.6638276
  93.7472343  74.3938828   0.7296879  94.3278503  74.0805817   2.0919311
  88.9767456  61.8735600  43.6537266  89.5365429  62.0084763  42.8890991
  88.5335922  62.7129602  43.7772274 106.7186451  19.9556422  23.3404851
 106.5159702  20.1365590  24.2583203 107.6723671  19.8775947  23.3166909
 103.3667183  52.1239758  48.4695816 103.3317471  51.2009096  48.7204933
 103.8789463  52.5412178  49.1622400   4.2203278  68.8848352  48.7974548
   3.7653679  69.5641136  48.2996273   5.1475758  69.1073227  48.7141514
  90.3716737   8.7272491  93.5449882  91.0996705   9.3450870  93.6122377
  90.4228765   8.2084645  94.3477786  98.6939240  62.3010969  41.2577248
  99.5772934  62.0881701  40.9568071  98.1224918  61.7254639  40.7494402
 106.3408089  85.2595139  22.8498173 107.1519375  85.2598572  22.3415732
 106.1489105  84.3328953  22.9940104 113.0673790  73.6305666  17.5848448
 113.9578915  73.3276749  17.4074352 113.1407642  74.5844078  17.6170218
  76.7091036  44.4662476  42.6704836  76.5680647  44.4895411  43.6169481
  75.8382654  44.5969772  42.2952700  84.7422695  56.7881870  33.0068755
  85.4021454  56.4029503  33.5834002  84.5103359  57.6159859  33.4278178
  12.0116944  77.9492950  65.8508348  12.0685143  77.6486015  64.9438715
  11.2088055  78.4695816  65.8808231  43.2692414   1.3784255  94.8525755
  44.1013318   0.9260835  94.7138886  43.3551675   1.7779340  95.7181620
 106.7862415  47.1767807  27.0616698 107.2140694  46.7321968  26.3298631
 106.0257339  46.6310787  27.2618675  99.2844105  54.7764349  29.0079355
  98.7235832  55.5376291  28.8586545  98.6929798  54.0266657  28.9425445
 109.9354267  25.4032326  19.0921271 108.9820194  25.3397298  19.1488791
 110.1961136  25.8293533  19.9086404  57.2792875 105.5223847  74.1240449
  56.3433134 105.4610491  74.3149324  57.3581087 106.2885285  73.5556741
  41.6620600 102.5572396  87.8647717  41.7818033 103.1554175  87.1271546
  40.8288538 102.1210576  87.6866056  81.8330574  40.8214331  39.1551518
  81.7840862  40.7525539  40.1086140  80.9692001  41.1399078  38.8933396
 101.0755348  35.3927040  38.6279750 100.7908630  35.1709557  39.5145559
 102.0296955  35.3228092  38.6582708 112.3505211  61.3234568  55.4235601
 111.9318485  62.1388435  55.1477242 111.7966175  60.9979105  56.1331034
 104.0537453  66.0595512  60.0069809 103.9175892  65.3795862  59.3471766
 103.2145786  66.5174246  60.0557566 113.9852142  73.0326414   9.2035490
 113.2268715  73.2805347   9.7324145 114.7134113  73.5237932   9.5839936
  97.9104424  77.5419569  13.8990211  97.6710415  76.6355276  13.7058687
  98.6548424  77.4709463  14.4965613 107.1834469  60.7894278  34.2360783
 106.3969707  60.9658861  34.7523713 107.8474045  60.5537033  34.8840117
   0.0409645  48.5706806  50.1529551   0.1346440  48.5957718  49.2006826
   0.8815426  48.8862562  50.4847193   0.3770870  77.8159428  47.5785685
   0.9627384  78.2498884  46.9581413   0.5457539  78.2532406  48.4131622
 113.8123226  83.4689331  33.0774021 114.3581390  84.2548180  33.1040573
 112.9915428  83.7607193  32.6806450 116.1046696  59.2436457  63.2456017
 115.5972862  59.0256834  64.0274477 116.0560417  58.4575224  62.7016544
 109.1162777  79.2024231  19.0859759 108.8682461  78.3147001  18.8277960
 110.0627422  79.1568184  19.2214990  96.8427753  81.9607639  63.3575678
  97.0267391  81.0231113  63.4141207  95.9370232  82.0091152  63.0517721
  77.0147496  12.0117988  94.9575538  77.8435784  12.4073304  94.6877068
  77.2307664  11.5200414  95.7498545 100.9732151  82.2811985   8.2176918
 100.7215595  81.7703915   8.9870954 100.1589775  82.3916435   7.7267283
  23.8141579 104.7215271  66.9547367  24.3780751 105.3121853  67.4540901
  23.0344528 105.2417850  66.7607450   0.9938187  85.5977440   5.3351688
   1.5099282  86.3191891   5.6948709   0.5489487  85.9763050   4.5768684
 112.6455021  89.3105507  42.3055840 112.7994442  89.3271542  43.2501745
 113.5193825  89.3692112  41.9194221 101.6981030  77.6309633  27.8190112
 101.8342209  78.1070423  28.6381865 101.9921303  76.7398930  28.0081511
  18.4440750  70.0281906  49.1380596  17.8623814  70.2387428  49.8684931
  19.1993183  69.6059227  49.5473623 116.0097027  73.2893562  54.8184681
 116.3055420  72.5477076  54.2905760 115.7847691  72.9055023  55.6659889
  83.2653427  95.9326172  46.4748812  83.3424854  95.8501911  45.5243587
  82.3310947  95.8197784  46.6500378 106.0359192  72.2948980   6.4807510
 106.6358376  72.7050591   5.8577758 105.1937294  72.2773266   6.0261703
 100.0645638  74.1015720  53.4387589 100.1840401  73.1914616  53.7101650
  99.1753292  74.1314650  53.0857563 111.9705105 104.8287868  59.3528032
 111.4111328 105.5519390  59.0692806 112.0813560 104.2902946  58.5692453
  -0.0871330  86.3433170  42.8870058   0.7490200  86.8089676  42.8707933
  -0.4729324  86.5138340  42.0277548  72.1888447  92.6047516  29.2864633
  72.3092556  93.4739971  29.6687531  73.0425978  92.1819687  29.3791652
  14.4502587  84.8300171  64.6570301  14.3557591  84.0831375  64.0658712
  14.6633572  84.4392681  65.5044603 106.1996651  56.6318226  47.8874397
 106.2405872  55.6977606  48.0925751 105.2675533  56.8084860  47.7601957
  94.5504570  71.8529367   9.6313065  94.8223305  72.5262022   9.0075803
  94.0403175  72.3268795  10.2880967 107.5679302  70.7563639  26.7876172
 106.9208145  70.9195471  26.1014342 107.0586395  70.7390738  27.5979042
  11.3017029  56.6924238  27.9131269  12.2107739  56.9244337  27.7233839
  10.8966488  57.5153255  28.1869745   3.7498135  96.7187405   4.3131939
   3.0871720  97.3466301   4.6011123   4.4985241  96.8805408   4.8872033
 111.3369274  50.2241611  37.8035498 111.5500927  50.7992506  37.0686603
 110.4210567  49.9844646  37.6622725 100.9029770  75.7317734  68.0397892
 101.7306042  75.4591370  67.6436377 101.1595440  76.1825180  68.8442993
 106.6859055  66.2685776  66.1218929 106.6234779  65.3807592  65.7695913
 106.1592960  66.2467718  66.9209146  16.0072750  70.9407282  73.9291096
  16.4228577  71.1944199  73.1049919  15.9742398  69.9846601  73.8963318
  12.8453488  64.7094011  23.2832026  11.9445462  64.7342443  22.9604602
  13.0371899  63.7773132  23.3863664  87.2055149  49.6306419  35.0613308
  87.3154354  49.4229364  34.1334271  86.3436604  49.2793179  35.2849507
   1.2890190  46.3375092  11.5492046   0.5680699  46.2933540  10.9210992
   1.5224690  45.4233360  11.7105186 106.9970512  41.5673208  20.5035782
 107.4813557  40.7598019  20.6756139 106.0866737  41.2858915  20.4127765
 104.1996098  30.8680129  39.2583156 103.2755375  31.1159396  39.2875862
 104.2775059  30.1583719  39.8959446  52.6095468  22.9682531  91.5242438
  52.4172288  23.8906087  91.3554071  51.8240815  22.6353873  91.9583883
  13.8071675  80.4884529  33.0293298  13.9548535  79.6768284  33.5148025
  14.5166058  80.5160046  32.3873258  74.5657635  46.4292240  50.9160709
  75.1174784  46.2001610  50.1681566  74.0499067  47.1764851  50.6132030
  41.7896218  84.5536518  43.8587236  41.9398922  85.4969788  43.7970877
  40.8636326  84.4730759  44.0873766   0.4037899  76.7955542  60.3127337
  -0.1908355  77.5455856  60.3234434  -0.0675922  76.1232042  59.8208141
  10.9683461 109.3269634  12.6252294  10.7025952 109.0305233  13.4957099
  11.3067192 110.2111816  12.7662730  14.0673298  86.0938740  17.0631194
  13.9963955  85.6527519  17.9096448  14.4461865  86.9483852  17.2693241
 105.6725502 101.5549088  39.0281963 105.9013367 102.4229908  39.3603420
 106.5118122 101.1029053  38.9411926 109.5068932  67.7125931  36.5594172
 110.1536179  68.3790827  36.3275266 109.9141026  67.2218561  37.2732759
  83.4203720  50.5000114   9.3968296  83.6007500  51.1064863  10.1150799
  84.1522884  49.8833942   9.4144815 102.5663853  72.6172447  29.4192767
 102.3428822  71.6900682  29.5006537 103.1926537  72.7755404  30.1256537
 102.7559566  87.1765614  54.6313143 102.9685402  86.4140224  54.0931940
 103.0969048  87.9215527  54.1363668 111.7637634  59.5011568  36.4769411
 111.3116932  60.2955580  36.7611790 112.4803829  59.3964291  37.1028161
  36.4945168  65.3980255  35.0631857  37.0812172  65.0840473  34.3751264
  35.6196732  65.1517677  34.7627902 110.5420876  70.0327110  34.3669963
 110.1688290  69.2103291  34.0498304 111.2189674  70.2513027  33.7264657
 101.4809513  53.0466747  58.1100845 102.0288277  53.6428261  57.5995445
 101.8759346  53.0457878  58.9819908  44.5085568 102.1214294  59.1876554
  45.0009388 102.5872517  59.8635292  44.4932789 101.2121391  59.4862795
  92.5292397  76.2282181  23.4732533  92.8053951  75.4715586  22.9561186
  93.0656910  76.9504261  23.1463408 102.0683956  94.3598175  44.4755125
 102.3711205  94.3560791  45.3835726 102.7618980  94.8105240  43.9936924
  72.3827887  77.6476336  34.5565534  71.8324804  77.5494337  35.3335667
  72.9350138  78.4055710  34.7483969 103.8071728  81.4667225  36.2745667
 103.3572388  82.3107529  36.2371492 104.6982002  81.6570663  35.9811807
  80.0817204  57.1576548  35.7509518  79.5117569  57.8570843  35.4313135
  79.6100330  56.3508844  35.5439115 107.1213436  36.4712405  23.0571127
 107.9261589  36.0449243  23.3516622 106.8797016  37.0515585  23.7789631
   3.0540604  62.4910069  26.8071508   3.4681267  63.1562662  27.3568845
   2.1540207  62.4405813  27.1290636   7.2165150  88.1757641  19.1823411
   7.8382534  87.4617100  19.3230677   6.9726223  88.4581947  20.0638080
 107.7631855  56.1893463  26.6361189 108.4006977  56.7355967  26.1763024
 107.7748013  56.5140057  27.5365019   5.3267807  83.4520245  15.4061675
   5.2592701  83.8368511  14.5323348   6.0021824  83.9697647  15.8443522
   8.4967751  77.3819637  49.0868282   8.7942166  77.0683002  48.2327890
   8.0583424  76.6272354  49.4797611  94.3651676  60.6644726  26.4394975
  93.4930515  60.6525517  26.0451603  94.3296719  61.3768435  27.0778561
   4.8518509  64.6559906  27.9756260   4.4905323  65.0398445  27.1766710
   4.3904728  65.1023102  28.6856675  91.6828156  64.4716740  27.3365355
  91.0911274  65.0687122  27.7944422  92.4229240  65.0203323  27.0768404
  91.6600609  94.1327858  36.4159870  92.1668434  93.5134029  35.8908582
  91.5552044  94.8972988  35.8496380 113.1024075  86.4874172  81.4117527
 113.0057430  85.5671215  81.1669540 114.0415573  86.5985394  81.5597153
  37.7683985 101.5194512  85.1906093  37.3038447 101.9911338  84.4992848
  37.6736414 102.0745421  85.9646417  10.6238503  93.7501526  31.7164516
  10.7855839  94.4993877  31.1431003  10.4075760  94.1392994  32.5638175
  26.4073414  86.8489075  72.9403067  26.1882443  87.6062965  73.4830713
  27.2794098  87.0442200  72.5973988  97.1979904  26.1180162  39.7327900
  96.8191719  25.3600335  40.1779842  97.8738117  26.4347339  40.3321123
  27.6960224  56.0470772  34.7300696  27.5818199  56.9956255  34.7887993
  28.1441254  55.8090782  35.5417275   5.0521607  63.3170271  70.1688528
   4.9619335  63.8658905  69.3898535   4.3957848  62.6296997  70.0549030
 109.2613983  82.8908634  32.0786762 109.7078800  82.0618916  32.2510219
 108.4075069  82.6350117  31.7299223  21.0719342  60.2032185  17.1696210
  20.7877964  60.5953836  16.3439691  20.4267067  59.5179844  17.3438740
  97.3877525  27.6645398  32.3320007  96.8886089  28.1273055  31.6589904
  96.7533684  27.4992204  33.0294681  10.4500717  89.1734791  13.6426866
  10.0637669  90.0491047  13.6598086   9.9370331  88.6980915  12.9892147
 116.2485409  53.9055872  16.8316901 115.8526611  53.5621262  16.0307229
 116.8283653  53.2054949  17.1315467   1.8707318  89.4635105   7.2356176
   2.0185036  90.2278996   7.7924955   1.0702938  89.0674019   7.5800323
  45.5399573  94.7913051  91.2615405  45.4804575  95.0121046  90.3320576
  46.4692175  94.6131850  91.4063947 107.6438618  90.9864140  13.3891773
 108.1991959  90.8238316  14.1516757 108.1790733  91.5349293  12.8156650
  17.2060627  58.8655138  51.8506098  16.4287514  58.7096548  52.3870087
  17.1401448  58.2256460  51.1417675  76.3502502  47.4113417  55.4690742
  75.4346561  47.4868727  55.7378054  76.8242645  47.2325802  56.2812233
   2.2190250 103.8128959   0.0749831   3.1071914 103.4561358   0.0647883
   1.9733680 103.8175069   1.0001139  98.8797760  67.3433161  60.1643991
  97.9946136  67.5861549  59.8928404  98.7491608  66.7527628  60.9063053
   2.0983547  50.4042912  38.9690065   1.7966885  50.7437134  38.1263781
   1.3835377  49.8440552  39.2713237 106.8749237  59.7745991  31.5859723
 107.5600910  59.1132116  31.4893293 106.8409920  59.9486446  32.5266051
  82.2318268  59.0650606  58.9805555  82.1133327  58.2701111  59.5004129
  83.1564999  59.0539932  58.7333918  89.8768902  31.1618185  19.3158603
  89.9913502  32.1042109  19.1932762  90.4726315  30.7636309  18.6812222
   7.4978966  81.1000824  40.8397675   7.1856255  80.4252529  41.4425182
   6.7195839  81.3595581  40.3466845 104.7118950  58.5307074   8.1221431
 104.4328403  58.5733891   9.0367657 104.1466713  59.1569185   7.6698011
  13.9282269  65.3804350  49.4207716  13.6944145  66.2616968  49.1293287
  13.1963009  64.8324347  49.1375589  81.3473225  57.3033333  27.5867581
  81.1983681  56.4797115  28.0511832  82.1550274  57.1578455  27.0941472
 107.0683289 102.9140568  18.9981198 107.1998978 102.0070267  19.2741823
 107.6190662 103.4267712  19.5897579  11.0656685  58.6113977  16.3358927
  11.3226075  59.5327520  16.2994683  10.3416867  58.5892010  16.9616568
  94.9848843  96.5354538  23.3819175  94.7242451  97.4518490  23.4741974
  94.2789841  96.0424042  23.8000607  77.5124216  99.3909740  10.9527707
  77.0004892  99.4915104  11.7552960  78.2832670  99.9416542  11.0898340
   3.1425328 108.5285091  28.4589338   3.5678524 108.7552547  29.2859292
   2.5735802 109.2746544  28.2697463  22.8820557  96.8451214  22.5897622
  22.3350090  96.3821030  21.9552588  23.0951447  97.6745415  22.1621132
  38.9426655  60.5977583  59.9306059  39.1862912  59.7849035  59.4877243
  39.4489235  61.2755346  59.4827652  15.7889408  58.8699675  55.7289410
  15.8900494  59.8184824  55.6494188  15.1668782  58.6367989  55.0398111
 104.9045753  63.2741308  28.9694929 104.8994350  63.5403967  29.8888993
 105.2468300  62.3802853  28.9809108   0.6935829  82.1008492  48.7311506
   1.3779778  82.6632118  48.3684063  -0.0076729  82.7045822  48.9760542
  27.6834626  35.8520675  30.7046008  26.9546074  36.2563443  30.2339101
  28.4581322  36.0867333  30.1936626  70.7552892  15.9002055  80.7340928
  70.6165105  16.2756767  81.6035707  69.9398786  16.0756911  80.2644809
   1.9554180  84.3269539  44.1681528   1.0814804  84.4606686  43.8012695
   2.5519795  84.6094799  43.4749556  35.9385151  94.1808414   7.5294793
  36.3865322  95.0177670   7.4067688  36.5488571  93.5295010   7.1838266
  40.4005188  72.1538210  53.1414032  39.4872040  72.4402523  53.1481361
  40.3518433  71.1979294  53.1528759  92.5375462  19.3535280   4.4597301
  92.8175354  19.0126920   3.6102200  92.1692753  20.2147937   4.2626721
   0.5730110  71.8881308  28.0294800   0.9724980  72.1870696  28.8463497
  -0.3325242  71.6866790  28.2653975  26.2412768  93.3555542  27.3051095
  25.9773713  92.8437864  28.0697536  27.1033126  93.0108415  27.0720887
  46.0783559 104.0813868  45.8301640  46.6147691 104.4107710  46.5512705
  46.7075425 103.6969160  45.2198076  20.0928765 100.7226097  29.0122938
  20.1551610 100.1743125  28.2301688  19.9553329 100.1030146  29.7288251
  44.1816789  72.6649367  27.4199796  44.6194726  72.3380672  26.6340208
  43.7582856  73.4759580  27.1385407  18.9256155  87.0719147  89.5857378
  19.4570410  87.6082183  90.1741250  19.2855990  86.1895157  89.6752455
   8.2479793  99.7867559  34.5793676   7.6446658  99.6176766  35.3030109
   7.8153115 100.4646247  34.0602112  98.9247799  15.9612167  40.7838821
  99.2092705  16.5537488  40.0880337  99.6150875  15.2998936  40.8324432
  19.6491474  16.5771043  18.2890761  18.8003392  17.0195448  18.2853103
  19.9057049  16.5589702  19.2110741  61.6081381  20.8184528  30.2458477
  62.1006012  21.6047788  30.4812288  60.9608793  20.7231092  30.9445596
  33.5563165 107.7754148  25.3665137  33.1470185 106.9821911  25.0208187
  32.8884965 108.1622722  25.9327173  62.5342035  13.3177316   9.4221425
  61.9195223  13.3541894   8.6892897  62.1761751  12.6454079  10.0018239
  23.5540515 104.9771457  17.5241542  22.7700788 104.4461631  17.6644242
  24.2596227 104.4748162  17.9316628  48.7800199 100.1589333  36.3625193
  49.1118985 101.0176336  36.6246724  47.9532891 100.3470891  35.9182835
  58.3326417  73.3119165  21.4128137  58.9412862  73.7995779  21.9677615
  58.6987191  73.3876502  20.5316329  83.5347652  20.6420159  46.4193487
  84.0079117  19.8124659  46.3544321  83.4877682  20.9620738  45.5184698
  79.1915083   9.0600240  31.1721849  79.5952368   9.4436073  31.9507098
  79.7401810   8.3032590  30.9660339  76.3859034  32.5734854  15.0364101
  75.6942177  32.4817610  14.3811321  76.9332981  31.7973661  14.9171138
  78.6030626  61.9180775  20.4223943  78.4229946  62.6604700  19.8456264
  78.8815212  62.3171806  21.2466574  81.7924595   0.9271701  15.1773858
  82.5587559   1.0280786  15.7420492  81.3917255   0.1057996  15.4619825
  22.0716888 107.2032102  18.4992993  22.4258691 107.6624077  19.2608297
  22.7077848 106.5107899  18.3199346  81.4205837   5.0361764  16.2682223
  80.7936764   5.0919443  16.9894075  80.8859921   4.8294422  15.5016053
  71.1274576  15.4981053  32.0531416  71.7683315  15.8747327  32.6561880
  70.6969452  16.2558389  31.6572523  90.7864952  16.2011063   3.0137146
  91.0420227  17.0175791   3.4430239  91.4757824  15.5803740   3.2499418
  85.0836658  14.1037822  58.0584669  84.2986488  14.5158005  57.6976061
  85.1326847  14.4282877  58.9576435  66.5343571  18.1459761  52.0849991
  67.0384264  18.6334264  51.4334297  65.6471014  18.4980285  52.0138311
  61.7843991  96.6902362  29.8458314  61.9689256  97.0224093  28.9672852
  62.3502046  97.2057914  30.4205513  11.1346018  27.0701028  88.4941442
  10.6943857  27.0055581  87.6466341  11.7330801  27.8108383  88.3973773
 106.3648987  44.0071201  29.9906659 105.6109619  44.2679644  29.4617319
 106.0804367  44.1396856  30.8949542  97.0387745  12.5362313  43.7395477
  97.2907352  12.4726212  42.8182983  97.6456070  13.1770647  44.1101217
  50.2540159  22.2456646   8.7607527  50.5977535  21.4440656   9.1551077
  50.5441332  22.2077084   7.8493667 110.4168797   5.1287800  34.1683984
 109.5301151   5.1357538  33.8080788 110.2901936   5.1518768  35.1168966
  82.1458817   2.5668243  24.0399575  81.8583870   2.0501772  24.7927237
  82.0649433   3.4759244  24.3284321  72.9063225  17.9364538  29.5877886
  72.0945120  17.4332047  29.5250273  72.8075027  18.6324406  28.9381194
  58.5919934 104.3858396  41.6635466  59.2440587 105.0849502  41.6156864
  57.7560407 104.8436575  41.7519474 114.6673601  51.4007679  87.0395024
 114.3923252  50.4924080  86.9151296 115.1402061  51.6199184  86.2366189
  82.8934669  32.6622725  11.8077075  82.7645397  32.0831943  11.0565221
  83.1472015  33.5011005  11.4227176  32.2480756 102.1655165  41.9665289
  32.6268273 103.0433302  41.9193745  31.7074472 102.0953428  41.1797476
  93.8953018   1.6591936   5.3114808  93.8065434   2.6121345   5.2954477
  93.6287975   1.3790551   4.4358507  38.6095077 104.5077949  13.1358111
  39.0266019 105.3391480  12.9097247  39.3372708 103.8941603  13.2360399
  87.8290349  86.8226801  26.0730720  88.7065393  86.4847075  25.8942080
  87.9736215  87.5676619  26.6564512  19.1769373  77.1183587  84.8166950
  18.4545290  77.4370695  85.3577955  19.9207937  77.6685692  85.0620170
  51.7136556 108.5658715  44.7926903  52.1593362 109.3778100  44.5511198
  51.0459882 108.4489124  44.1168356  43.7334996 107.3793291  62.5617886
  44.4805413 107.7078079  63.0620480  43.1213838 107.0621734  63.2258368
  62.4067670 104.3272590  21.0136461  61.7560655 104.2566179  20.3152013
  62.0074540 104.9156546  21.6544032  88.3870792   8.1824332  16.8229747
  87.5888443   8.6539572  17.0611012  88.8791275   8.8015461  16.2836945
   2.2773325  43.3021165  76.9155248   1.3987791  43.5630179  76.6392858
   2.1915304  43.1266118  77.8525777   7.2570354 106.8702289  24.4285607
   7.2964555 105.9138434  24.4307971   6.3586789 107.0735284  24.6890426
  97.4356556  26.0615063  17.2119427  97.2853851  25.3131962  17.7895963
  96.7205238  26.0213208  16.5769625 113.8105743  99.0398980  93.0885038
 114.7592085  98.9628602  92.9865547 113.6968296  99.6416379  93.8241707
  71.0918188  11.5017462  45.7756281  71.7493916  11.4061034  46.4645958
  70.5407667  12.2271454  46.0695124  34.4825488 101.8176084  48.1890440
  34.3234235 101.8135070  47.2451687  33.6726409 101.4782052  48.5699511
  15.5800879  52.8450694  93.3634749  14.8597109  52.2358874  93.5253038
  15.2467692  53.4362442  92.6884584  98.6649418  13.7859452  48.7839460
  99.2592716  13.3404756  49.3877316  98.5892391  14.6737158  49.1337490
   4.5968687  71.6276110  76.7528553   3.8912165  72.1159971  77.1768458
   5.2987826  71.6076363  77.4033494 111.7937088  34.3104124  24.1998410
 111.5263748  33.4922600  23.7810397 112.1827126  34.8253775  23.4929347
  40.8226359  88.4794546  87.0143922  41.3096392  87.8033925  86.5432204
  41.4162504  89.2299963  87.0376088  41.2609273 100.6959902   8.6099148
  40.5068952 100.3727376   8.1167781  41.4219075 100.0221287   9.2703903
  35.0854188 104.2697572  40.2118587  34.8493081 104.0087121  39.3217230
  35.4703361 105.1404422  40.1119757  14.5371657  95.7955979  20.6932783
  15.1913577  95.4239570  20.1015425  14.9150830  95.6879782  21.5661073
  92.1663570  32.6458740  30.4861879  91.5583801  33.0249763  31.1209106
  91.9020081  33.0224848  29.6468329  12.9539835  66.8962432  94.0094808
  12.1916926  66.8456102  94.5861812  13.2109224  65.9845520  93.8715214
  87.8681755  42.9892588  10.8237195  88.1473541  43.2646561   9.9505395
  88.5825539  43.2604313  11.4002180 109.8128860  26.2119079  79.6233578
 109.7908419  26.5868831  78.7429376 109.2953031  25.4096175  79.5550175
  29.4604617 107.3580106  45.2684116  29.1091806 106.5859943  44.8247623
  30.3354150 107.0935552  45.5525780  77.5672214  63.3437634  93.5383693
  77.1907585  63.3574665  94.4183235  78.2069176  62.6321221  93.5625899
  62.2664118  23.5514903  15.8900261  61.7576790  23.4729981  15.0830173
  63.1750298  23.4342265  15.6127334  66.5499973  30.0600290  14.8040044
  66.3318157  29.8942184  15.7211387  67.0895958  30.8503532  14.8252809
  75.1548004  42.0663834  28.6463189  75.9077597  41.5619278  28.9542317
  74.4372702  41.8010044  29.2216086 107.5177765  28.8592672  13.7980413
 107.2735977  28.4554076  14.6308124 106.7698002  28.6950111  13.2237732
  92.9801941   4.0064487  20.4560113  93.8358498   3.6267269  20.6557417
  92.5812912   4.1616592  21.3121748  81.2796324  80.5888701  95.3110092
  80.6486910  80.5790449  94.5912557  81.6022985  81.4897443  95.3343848
 108.5127323  64.0249724  89.8907842 107.5560396  64.0547884  89.8998220
 108.7738436  64.8424745  89.4668235  36.0812121  99.2547952  33.1144953
  35.7414037 100.0749599  33.4723926  37.0171863  99.4154035  32.9945421
   6.7018664  78.0587984  90.8709534   7.3626864  77.5092221  90.4496153
   7.1802294  78.8415123  91.1443810  82.2845268  38.7035036  22.8701544
  82.7274895  39.5385361  23.0209422  82.4762821  38.4922218  21.9564676
  74.7227001  20.0582528  61.1220312  75.5622625  19.6804368  61.3839865
  74.8570585  20.3352261  60.2156830  89.4788074  40.7017326  33.0639791
  88.5926914  40.3718519  32.9149437  89.4604015  41.0420465  33.9584517
  46.0140085  11.4146960  14.9750435  46.4110518  11.0359311  15.7593429
  46.7285061  11.8893242  14.5502400 103.6856747   5.1905376  22.6593995
 103.6334801   4.6313617  23.4345317 102.7830982   5.2509642  22.3464465
  68.0033970   2.6301354   6.8834889  68.5620880   3.1988966   6.3537669
  68.2417488   2.8349900   7.7876210 103.3048916  10.6724894   6.3272834
 102.9200077  11.5486372   6.3487446 104.1151142  10.7544243   6.8303251
  80.5707913  93.1866061   9.7137278  81.4860421  92.9186093   9.7957873
  80.2808744  92.7990805   8.8878936   0.5613243  76.7230464  80.0654657
   0.8279240  77.1825720  79.2692276   0.8383619  77.2986317  80.7783361
  94.3147182  17.0581484  19.3266082  95.0268173  17.1165860  19.9635732
  93.5875702  17.5265217  19.7366333  86.3133031   5.0383176  85.8087875
  86.5832311   4.5001353  86.5529175  85.9607297   4.4125833  85.1760324
  48.9666557  24.5484352  16.1411715  49.4663811  25.3604293  16.0564744
  48.0610275  24.8053551  15.9677720  64.0640050  88.8560235   4.6330497
  63.1799871  89.2134058   4.7168094  64.1743260  88.3057033   5.4084253
  75.8388662  42.1711540  15.1579320  75.7436323  42.4148083  16.0786903
  74.9753094  42.3311853  14.7772789  98.2424927  23.7292027  19.8108208
  98.9590359  24.2400670  19.4342315  98.5163498  22.8181624  19.7048008
  83.7325573   1.3186598   3.1366053  83.7644196   1.4385518   2.1874779
  83.7460232   0.3693733   3.2586941  74.6492529   6.9086927  10.4346228
  75.5368614   7.0453095  10.7658601  74.4392347   7.7193153   9.9709231
  17.5264036  88.1955481  77.4834354  17.7616942  87.8186918  78.3312865
  16.9044554  87.5720001  77.1084745  14.6187538  48.7715769  14.4754398
  15.5603070  48.6588526  14.3450272  14.2264504  47.9988861  14.0688920
 109.1914368  44.6912146  50.2324104 108.9436531  43.8318968  50.5736017
 109.8683071  45.0016308  50.8338404  90.0325966  13.3465588  16.6574001
  90.3257656  12.4656522  16.8903899  89.0955162  13.3465767  16.8526208
  70.3616601 104.1107379   4.4271287  70.5497533 103.7001740   3.5831559
  69.4117147 104.0402960   4.5213306   4.4619412  34.8656368  34.7429538
   5.2756256  34.5163417  34.3794346   4.5889515  35.8143663  34.7463083
 107.0784092  29.8370600  44.0270615 106.9276237  30.6316423  44.5390558
 106.2297058  29.3945432  44.0160990  74.9426556  32.8758168  22.5898814
  75.4244661  33.3914065  23.2366109  75.6198168  32.3937201  22.1152544
  69.9889994  28.5363436  27.7128434  69.1185045  28.8134456  27.4270368
  70.5873632  29.1517496  27.2891998  79.3462068 103.5625975  27.2237802
  79.9584848 102.8523206  27.0318031  78.9156228 103.7402146  26.3875508
 104.7708607  42.0911074  90.5501175 104.6032429  42.9849482  90.2514839
 105.4074478  41.7450237  89.9246502 101.2764835  33.7950063  10.2497315
 101.5517044  33.0655932   9.6943569 101.7807102  34.5431185   9.9298656
 101.5255356   6.3740736  14.6681070 101.2257290   5.4772866  14.5193768
 101.3871384   6.5208036  15.6038141 113.5203331 102.1270562  91.7021378
 112.7985638 101.7206526  92.1818473 113.1484716 102.9356099  91.3497241
  67.6178503  11.4556277   7.1460968  67.4998093  11.1382031   6.2508094
  68.1916475  10.8083546   7.5560087  88.1219387  16.2807155   4.9674934
  88.7529659  16.5377450   4.2952031  87.4803448  15.7447040   4.5013636
  36.8395197  89.1285659  71.3049765  37.4785006  88.6610723  71.8429275
  37.3184931  89.8856164  70.9677859  21.9556200  68.1246877  40.4049106
  22.1894323  67.2856808  40.0078817  22.5923693  68.7441004  40.0483842
  79.3534231   3.8052395   0.5036179  79.1610575   4.6779150   0.8466406
  79.5476532   3.9493808  -0.4225193 113.0647278  23.6215568  29.7900057
 112.6408672  22.9173255  30.2805471 112.6576042  24.4223452  30.1204872
 102.4698925  14.7033989  30.7825232 102.4894905  14.1492522  30.0022864
 101.5948963  15.0914741  30.7787538  90.2393436  50.0895834  26.9615841
  91.1356831  49.7961426  26.7981791  90.0892162  49.8969316  27.8870988
 104.4610023  32.9250026  25.7790613 104.5073509  33.7117600  26.3222861
 104.0567017  33.2206321  24.9633551  83.9270115  55.4652643  47.2452259
  84.7722816  55.1150942  46.9639158  83.5140038  54.7429228  47.7183771
 103.6632633  12.4775171  29.1449380 104.1266346  12.5803900  28.3137155
 103.7619877  11.5502679  29.3610287  80.8207703  20.5873966  16.1577451
  81.0119629  19.7185111  15.8045936  80.3808403  20.4160190  16.9904029
  20.8275456  22.1935940   3.9359558  21.5003151  22.8551817   3.7749630
  21.1431069  21.7122865   4.7008049  25.2325708  95.0832151  23.9920139
  25.1673490  95.9022223  24.4831371  24.3267566  94.8590433  23.7787485
  89.1754341  36.0768580  30.3551102  90.0673580  36.0574555  30.7019854
  89.1947365  35.4751754  29.6109080  84.9932957  14.3901193  37.6337481
  85.2887917  15.0645268  37.0221162  85.6913376  14.3363142  38.2864928
 102.4901009  10.3160858  26.6127491 102.9499626  10.0582087  25.8138371
 103.1031799  10.8950198  27.0657396  96.9785213  52.8668642  14.6045625
  97.3384571  52.2380495  13.9790475  96.2565136  52.3998547  15.0250912
 104.5352459  50.2825356  14.7133005 104.3424988  50.8375216  13.9576077
 105.4555702  50.0424433  14.6056151 107.0430183  24.3222332  37.4957180
 106.6677284  23.4445333  37.5666475 107.8274536  24.2922902  38.0434370
  84.5705891  68.7030554   9.7807068  84.4813156  67.8699923   9.3178141
  85.4738617  68.7054682  10.0974393   5.0096459   3.8633969  19.9952078
   4.6231503   3.8166368  19.1207576   5.5097718   4.6795490  19.9926913
   2.8743023  44.0176296  37.1837091   3.4539933  43.8849497  37.9337668
   2.1684975  43.3837938  37.3114228  53.9450627  93.1461488  41.8682671
  54.3316060  92.2769104  41.9742918  53.0972653  92.9824971  41.4551306
  97.6860523  42.1436119   9.8311430  97.9476452  42.3982239  10.7160020
  97.7727127  41.1904001   9.8207092 102.4958420  40.0249529   0.3045520
 102.6814365  40.8490229  -0.1456677 102.5227356  40.2489185   1.2347934
  80.8925629  24.7101998  49.2215252  81.0636520  25.5648470  48.8258743
  80.1465702  24.8601270  49.8022509 111.6684628  15.1339865  17.4118304
 111.4846516  15.7884467  16.7379415 111.7266941  14.3071294  16.9331348
 111.1460876  27.8006816  24.8379469 110.7803535  27.3199916  25.5805159
 112.0937824  27.7474809  24.9615312 107.8765392  24.5030093  31.6051698
 107.3633480  25.1944113  32.0233011 108.4268951  24.9631643  30.9714556
  40.1473218  71.0046040   5.8292150  40.2191764  71.8715345   6.2285894
  40.9611970  70.5618989   6.0697263   6.1546862  83.1864095  93.9803492
   6.1856138  83.4319473  94.9050039   5.5267679  82.4648166  93.9450261
 103.9973068  34.7927165  12.7098036 104.7844887  34.5081329  12.2454810
 104.2055893  35.6755233  13.0155897  85.3236866  31.3833404  11.9718027
  84.4460011  31.7617512  12.0238566  85.3431797  30.9393048  11.1240494
  18.4168476  13.0516517  11.3512218  17.9150242  13.0800152  12.1658421
  19.1613907  13.6323678  11.5082240  96.2331772  19.6911573   7.9161769
  95.7411957  20.4132628   7.5253487  96.8770313  19.4515848   7.2496319
  88.3980560  25.4938436  24.7046113  88.6774158  24.6909571  24.2646551
  89.1606140  26.0704970  24.6575546  84.5623589   0.5839710  26.1685443
  85.5085087   0.7237641  26.2071872  84.2187405   1.0608272  26.9240355
  48.2792902  30.8444405  16.5545082  48.0928421  30.1008773  17.1277285
  49.2130470  31.0144186  16.6787636  75.4716873   6.0879552  52.5957203
  74.5206642   6.0376418  52.4995518  75.8032846   5.3474402  52.0878744
  97.1560097   9.1910392   9.0755254  97.0607758   8.3863306   9.5850408
  97.9325676   9.0424204   8.5359931   7.8391230  81.8007279  71.2796183
   7.0518076  81.4587689  70.8560200   7.9248011  81.2825824  72.0798774
 102.8162575  42.7379847  13.2017159 103.5424137  42.4051952  13.7291396
 102.7441216  42.1185827  12.4755144  89.6296787  21.8522263  16.1280000
  90.0556850  22.5267029  15.5990076  89.9629116  21.0264564  15.7768714
 113.7072277  47.9273653  25.6935167 113.5579109  46.9829369  25.7381225
 112.8499508  48.2955599  25.4796696  85.0599289  23.7263060  28.8209796
  84.2698574  23.3466625  29.2055368  85.1342010  24.5889735  29.2290497
 100.8415413  49.7714233  23.6091042 100.7705307  48.8383389  23.4077477
 101.0419559  50.1832485  22.7685905  98.8985794  91.6544796  73.1209178
  99.0738647  92.1659280  73.9108081  99.7291630  91.2196065  72.9279347
  91.6975689  21.7471528  20.5549693  91.1022854  21.9452000  19.8320293
  92.2103119  22.5473404  20.6690955  47.0651609  91.6008245   6.4699632
  47.6246816  92.3756849   6.4173764  47.6450234  90.8713888   6.2510508
 104.7731113  30.2896595  26.0828853 105.0453758  30.1004863  25.1849318
 104.8526859  31.2402534  26.1620641  95.5719662  55.2132559   5.8488554
  96.4658165  55.5243778   5.9918970  95.0167942  55.9264374   6.1641234
  71.1983156   1.5069559  43.3862495  71.5494394   2.3846896  43.5363436
  70.2725887   1.5761745  43.6196327  71.1195898  37.0952201  26.1100197
  70.7110119  37.6025343  26.8113947  70.4256344  36.9824648  25.4604483
   5.4391236  23.2438278  55.8931303   5.8218712  22.6239371  56.5139961
   5.4293770  24.0779066  56.3626528  87.9149723  29.3246198  19.6132517
  88.7783623  29.7107887  19.7604406  87.5110435  29.8861933  18.9516497
  97.7125263   5.7596195  35.2026939  97.8891754   4.8259172  35.0876856
  98.5500336   6.1291492  35.4824495  59.8853761   4.0478505  94.8374190
  59.6394235   4.9668063  94.7313504  60.5658895   4.0581979  95.5104965
 107.8417110  21.4839816  20.5867910 108.6033058  21.0794997  21.0022283
 107.1448231  21.4080548  21.2385726  83.1387329  37.2772956   9.1463906
  83.2802868  38.0951643   9.6231341  82.1953106  37.1263146   9.2046332
  70.3708154 108.7746293  33.5603404  69.9827081 108.7009578  32.6884556
  70.8144170 109.6228089  33.5541606  94.3947792  16.8261755  32.1925497
  94.6622562  16.0078537  31.7741752  94.3615818  17.4612474  31.4771390
  98.1417274  28.2522058  14.1756451  98.9003849  28.2871222  14.7582698
  98.2806015  27.4654198  13.6484706  77.9460287  57.9525757  43.4125471
  78.2251072  58.8669968  43.3659267  77.6578474  57.8359652  44.3178558
 107.9004955  24.8828125  24.7537041 107.2968197  24.2868781  25.1971817
 108.3006001  25.3886032  25.4610395  85.3686428  14.9944365  60.8910465
  85.3707314  15.9365594  61.0602522  84.6545887  14.6556878  61.4310503
 110.0136375  26.1818647  12.9033911 109.0789604  25.9891796  12.9775178
 110.4473305  25.3772402  13.1875026   0.3724045  70.2138376  13.9339447
   0.2596802  69.4972658  13.3094013  -0.4632431  70.2603769  14.3984509
  77.8815508  77.2196531  10.5001414  77.2024107  77.0914793  11.1623871
  78.3892870  76.4084053  10.5176318  73.0115891  22.6136279   8.5956675
  72.7388096  22.3062515   7.7311778  73.0240583  21.8246245   9.1374677
  12.8061926  53.3938921  74.1874738  12.0113241  53.8743328  74.4189759
  12.5449907  52.4733160  74.2107983  38.9527398  72.4694644  10.1792848
  39.7070104  72.1599280  10.6807780  39.1591912  73.3814274   9.9745083
 111.1510658  33.4919143  11.1852694 111.7421818  34.0375590  10.6665289
 111.6541290  32.6976538  11.3650179  28.1283152  89.2067123  86.1462052
  28.7626326  89.7734857  85.7072903  27.3742544  89.7730637  86.3101115
 115.0833607  44.2270184  43.4265423 115.3263187  44.8901939  42.7804756
 115.7886028  44.2529345  44.0732193  29.2538780  17.4507749  52.0517302
  29.2772431  17.6687407  51.1199665  28.6954922  18.1236565  52.4411869
  93.6936283  65.5952740   2.1281725  93.8696480  66.2968540   2.7551001
  93.3627510  66.0458422   1.3511634  97.0731068  23.0586505  11.9706666
  97.8241253  22.4735522  12.0699549  96.3895702  22.5082517  11.5884852
  75.1442242  54.2111063   8.4044206  75.1434326  54.0399027   9.3461859
  76.0064936  54.5884705   8.2303095  83.8487816  52.0498896  15.8229744
  82.9947853  51.7984152  15.4712808  83.9299583  52.9801416  15.6125534
   1.5872204  61.9488258  91.2410678   1.4733088  61.3911516  90.4714866
   2.4957621  61.8072820  91.5070592  46.9936257   8.7624873  79.9993010
  46.4556485   8.9629115  80.7652290  47.2287160   7.8407945  80.1062854
  87.5805378   8.2350260  21.6391516  87.3219204   8.4685165  20.7476163
  87.8315258   7.3130852  21.5820432 103.5738945   4.1389978  15.8000278
 103.8000488   4.7125241  15.0678003 102.6207447   4.0617037  15.7582045
  64.6193391  96.2351572   6.8253672  65.4497129  96.5713035   6.4881486
  64.7666055  96.1325740   7.7655911  26.8755877  45.9333194  93.9205404
  27.0808279  46.8538374  94.0841171  26.2825167  45.9499706  93.1694000
   8.4729904   1.1126432  13.9827561   9.2920918   0.7067269  13.6989570
   8.1874222   0.5814780  14.7260892  36.8077785  95.3977834  32.3081303
  36.1687690  96.0061871  31.9369960  37.5704557  95.4720985  31.7345142
  54.7448921  25.4571176  30.3389621  53.9924574  25.1169968  30.8231020
  54.9651289  24.7617197  29.7191668  95.5180550  24.6768451  26.4650702
  95.7939529  23.7940192  26.7115164  95.2341843  25.0772285  27.2868586
  74.0406036  41.1751890  10.8775830  73.4546804  40.7121468  11.4763415
  74.9195957  40.9183121  11.1561882  89.6059513  36.3903618   6.1442542
  90.4603958  36.4477038   6.5718877  89.0160751  36.0751677   6.8290341
  18.6278385  21.7364264  29.3563318  19.2764229  21.4193273  29.9848413
  18.6206669  21.0744500  28.6649799  64.1337729  35.3892779  21.3402200
  64.1223955  34.7551155  20.6233263  63.8216448  34.8976278  22.0998836
   5.1764912   5.8240628   3.2192925   5.9368271   6.1547565   2.7410150
   5.0943798   6.4089763   3.9725301  11.6411251  41.4179707  46.9756794
  10.8299107  41.4514971  47.4826765  11.3729233  41.0941315  46.1157751
  84.0456486  42.0186901  35.3125143  84.3282604  41.6669321  34.4683409
  83.6440659  42.8608656  35.0987244 102.2771740  58.1967974  42.6681995
 102.5332069  58.1000900  41.7509604 101.9036579  59.0765190  42.7211332
 100.8846951  13.5938120  27.8205323 100.5552006  12.6964688  27.7711916
 101.6009331  13.6211860  27.1861076  87.2412950  95.6716739   2.3377752
  87.5837976  95.4698097   1.4670430  88.0195981  95.7458507   2.8900212
 102.0382500   5.8415258  56.9788408 102.2514629   5.7484531  57.9073381
 102.0806980   6.7839277  56.8166447 104.9891663  39.3444538  10.4836428
 104.7882557  39.0407443  11.3688719 104.8295784  38.5823059   9.9269593
   5.3139061  13.4911227   0.5573321   5.9527249  13.0017400   1.0756436
   5.4252667  13.1607974  -0.3341358 105.8694649  35.9784460  16.2075830
 106.2221527  35.3931141  15.5373383 106.1235046  35.5735683  17.0369017
   1.8886768  88.4228254  85.1095493   2.6275217  89.0053988  84.9336429
   1.1474764  88.8354350  84.6661480  70.0979119 107.5419705  43.8801956
  70.8800012 107.5984268  43.3312130  69.4843942 108.1630512  43.4876490
 107.2349930   3.7789360  15.9312010 107.4237347   3.8885507  16.8631828
 106.8703556   4.6213770  15.6599712  60.3038007  99.3925189  16.7999721
  59.9904901 100.1363396  17.3145580  59.5345956  99.0974485  16.3126326
 100.2658463   9.7918963  49.1791105 100.4479313   9.6359754  48.2524157
 100.6847954   9.0600228  49.6319628 100.8934593   5.7521349  22.1928263
 100.9797001   6.2619591  21.3873005 100.6587696   4.8729491  21.8958688
  89.5586109  31.6425872  51.8903542  89.9371910  31.6299963  51.0112906
  89.7990990  32.4995756  52.2424459  20.4580146 106.9802492  60.1010752
  20.6576806 107.9140407  60.1673937  21.1237126 106.5540501  60.6409168
  88.9459705   8.8301575  43.5757589  89.7022724   9.3890083  43.7544394
  88.6318493   9.1189808  42.7189398  72.5306606  33.0690813  52.2567606
  72.0038033  33.8234901  52.5204277  71.8972206  32.3589492  52.1533537
  80.6966019  33.9917374  13.0740881  81.5024757  33.6141443  12.7216160
  80.7969761  34.9347067  12.9438269  71.8505955  19.4321036  32.6191688
  72.5378752  19.1240942  32.0284033  71.1084270  18.8530171  32.4457407
 108.5899830  21.7639518  63.7211657 108.9458466  21.2896156  62.9697704
 109.1022110  22.5716782  63.7589788 100.4964161  50.0050926  35.8873463
 101.3731098  49.6258402  35.9490514 100.1253033  49.8941278  36.7626715
 102.6844692  13.7831259  33.3376598 102.7947617  14.0996516  32.4410653
 102.4951553  14.5704687  33.8480330   4.8695034  41.6917324   6.0197097
   5.2687401  41.3574123   5.2165449   5.4605431  41.4079046   6.7170930
  93.6118221  39.3929982  14.6198153  93.1575298  40.1497698  14.2494941
  94.5384979  39.5641661  14.4518745   1.4366669  24.0400434  32.1967101
   1.5977997  24.8210549  32.7261353   1.0805935  23.4013009  32.8143263
  97.2444725  64.9308634   3.0270135  96.6738605  64.6683931   2.3046964
  97.7089882  64.1295671   3.2686269  80.3362179  15.6713223  63.6294365
  81.0707474  15.0731492  63.7668514  80.1325607  15.5904543  62.6976585
  95.6998539  37.0272326  31.0071325  96.6379070  36.9614291  31.1858988
  95.3701687  37.6276946  31.6757011 113.1025410  44.8413229  14.0576541
 113.7856007  45.5014229  14.1756260 113.5113716  44.0214109  14.3348479
 110.4720211  28.5025620  18.7007582 110.8158207  28.7474465  17.8416514
 110.5081749  27.5460839  18.7094438  20.5969584 100.9997464  83.1757875
  20.0124418 100.9188891  83.9294727  20.0103247 101.0319758  82.4201055
  23.2118363  13.4152782  32.4316978  23.4613747  13.3580709  33.3540273
  22.4808735  12.8036892  32.3429561 102.8398609  57.1341944  16.1437607
 102.0684528  56.9649649  15.6029010 103.5036087  56.5307856  15.8097553
  76.0394049  40.1583433  32.4899316  76.3881826  40.2362537  31.6019487
  75.0913906  40.1009417  32.3707223 103.9912796  49.6948004  44.6739912
 103.4438896  50.4799414  44.6618938 103.5316372  49.0913391  45.2577686
   3.2311768  49.9801302  31.1742878   3.6894078  50.4965210  31.8373060
   2.8996033  49.2189026  31.6505504  14.1737408  36.1543345  22.9866004
  14.9350876  36.6971016  22.7817011  14.5436138  35.3080869  23.2381773
 111.6293144  19.7767508  34.1604161 111.4482784  20.6962442  33.9655113
 110.7646465  19.3729591  34.2348599  89.2187691   3.9297587  26.3944101
  88.9818096   4.6585354  25.8208561  89.5616245   3.2605204  25.8021259
  77.6681471  40.9979105  30.4621410  78.3282709  40.3695536  30.7547903
  77.8513479  41.1214733  29.5307970  44.0691816 106.8261624  90.0001021
  44.6228754 107.1647216  90.7036884  43.2057154 106.7274762  90.4012539
  80.6529427  68.6319494  23.4010506  81.4856911  68.7166166  22.9367280
  80.9004593  68.5288429  24.3199253   5.9756131  61.4378405  30.9772182
   6.3674301  62.0286322  30.3340483   5.1273579  61.8325377  31.1794639
  38.9968455  86.4537359  83.4614130  38.9374125  86.8278695  84.3404599
  38.0884134  86.3885761  83.1669159  13.0557484  25.0631166  31.5462327
  13.3155293  25.9660840  31.3634944  13.8373513  24.6610546  31.9252610
  12.4662346  12.8409612  32.2574091  13.0134625  13.4074080  32.8013873
  13.0700440  12.1820211  31.9147015   4.1133637  22.0208454  -0.0327608
   4.5033879  22.8275800   0.3038326   4.7509999  21.3394880   0.1803300
 108.5974884   8.3326524  53.3142138 108.9341164   7.5303406  53.7132215
 109.3102360   8.9645201  53.4088469  84.9876213  30.7977462  48.9720631
  84.8767757  31.7476892  49.0115023  85.8678722  30.6738567  48.6170387
  13.8013882  28.5006261  54.7177458  13.7976593  27.9234290  55.4813337
  14.4938034  29.1356444  54.9008989  56.3089830  16.8988218  78.3197005
  57.1184712  16.3943328  78.2392986  55.6118947  16.2534560  78.2022377
 110.5500984  49.1905832  17.3713434 110.3347874  48.2600737  17.3078847
 111.4767838  49.2385578  17.1364260  98.1950378  40.4422665  30.0035334
  98.7741852  39.6913290  30.1336098  98.3886242  40.7430696  29.1156840
 113.1575680  42.8231907  31.0365701 112.9801178  42.3569059  31.8534684
 113.3181000  42.1307087  30.3955293  95.7530785  35.4113317  21.0497856
  96.0244274  34.5791101  21.4370966  95.3154755  35.8760810  21.7630506
  31.1735100  66.9526339  28.6369681  30.2334256  66.7773390  28.6787057
  31.2610955  67.6315069  27.9678679  98.2750416  48.2214403  38.4904814
  98.0006599  49.1081142  38.7244844  99.2281437  48.2347345  38.5779238
  57.8561020  22.7033162   9.3067759  57.2720718  22.3064327   8.6605382
  58.4915733  23.1941915   8.7857693   0.6061119  40.0181627   8.6692309
   0.7471508  39.3028259   8.0490434   0.0632233  40.6455231   8.1918210
   8.8521319   0.3770436  80.1522322   9.2201692   1.2299337  80.3832157
   8.6386472  -0.0273715  80.9931286   5.0441784  38.3464885  15.8865726
   5.9260029  38.0223727  15.7033801   4.7871727  38.8063121  15.0873601
   0.5317063  32.7171922  34.6117687   1.0787148  33.3635974  35.0580549
   0.6420368  31.9158363  35.1235175 110.9617615  24.8294640  26.2909365
 110.9252357  24.6953464  25.3438830 111.8881798  24.7319198  26.5110993
  82.4454594  50.8778143  38.5461640  81.8294334  50.6539011  39.2437363
  82.1947861  51.7624664  38.2801056   1.4521849  99.6991158  81.4621373
   0.5067837  99.6773959  81.6104110   1.8314373  99.4082452  82.2914691
   3.5387177  25.0962639  36.4539528   2.5961632  24.9530363  36.5395045
   3.7581581  25.6844473  37.1765304  14.7335572  35.3797007   3.5621727
  15.1682801  35.7379770   4.3360496  13.8008541  35.4120898   3.7748721
  82.4111748  28.0224752  39.0918159  82.7233982  28.7521386  38.5567045
  81.5393066  27.8288126  38.7474728   4.5822567  27.0707846  10.3715980
   3.8270516  26.9940472  10.9546983   4.5675797  26.2660527   9.8535025
   3.1234021   7.1003103   8.0449814   2.4719185   6.5338349   7.6315856
   3.1652493   7.8705263   7.4781942  97.8404045  15.9740019   9.6586609
  97.4237347  15.1140845   9.7148865  98.3409882  15.9447420   8.8433141
  79.4598246  35.2259874  46.7049599  79.9045086  34.3878317  46.8314028
  80.1071930  35.8819747  46.9634819  11.5031874 100.0507069  91.5506427
  11.9894087 100.7409383  91.0996463  12.0854532  99.7695542  92.2564392
  13.3791775  56.8256474  16.0567236  12.5971836  57.3769093  16.0856140
  13.0747933  55.9631872  16.3391161  79.3893033   7.3662318  71.8555708
  78.5405236   7.8027381  71.7830034  79.6219617   7.1435680  70.9541698
  10.8528179  58.7068272  44.5596933  11.3332028  58.8362646  43.7419462
  10.0442166  58.2679319  44.2955732  22.8529226  88.8377786  91.3918285
  21.9434416  88.9967013  91.6444551  23.1486284  89.6708847  91.0247792
  96.7481422  11.1691082  35.3717613  96.5443993  10.2524543  35.1861048
  97.2374249  11.4658737  34.6044493   1.4654583  61.0524464  20.0736570
   0.8864731  60.4851627  19.5645440   2.1839852  60.4806852  20.3439212
  96.6130257  46.9451952  23.0133843  96.4610767  47.3184776  23.8816023
  95.8313942  47.1781635  22.5123668 109.8021889  48.7336731   7.4909568
 109.3668270  49.5848942   7.4450684 109.8413467  48.5347986   8.4264505
  14.0063423  57.8018522   6.5523833  14.3621868  57.9355621   7.4308664
  14.5529122  58.3475542   5.9869581   2.2800583  15.2086139  26.6067123
   3.0588002  14.7233379  26.3341260   2.3857540  16.0733902  26.2102008
   4.8085160  79.6795273  52.4166203   4.4223732  79.7779226  53.2869339
   4.9938816  78.7434721  52.3412704  14.6185267 101.3521004  89.3696948
  15.3501379 101.9691230  89.3539448  13.9439737 101.7935372  89.8857846
  24.0055222  27.4545479   1.3792945  24.7937912  27.4636817   1.9222338
  24.2533249  26.9480753   0.6057886  89.0009403  61.3988018  27.2080326
  88.2813072  61.2654924  27.8249478  88.8747978  60.7219982  26.5430069
   5.8923668  68.4396982  64.8273897   6.0290283  67.5003147  64.7044230
   6.4137024  68.8499212  64.1373396  76.8577623  21.7162013  26.7724466
  76.1602545  21.6234016  26.1235213  77.6608610  21.7716908  26.2545824
  14.9153370  29.7563887   9.4519448  14.0169567  29.5686793   9.7238106
  15.2540726  30.3399181  10.1309013 100.1712418  26.8149662  17.5392830
  99.2234707  26.8389559  17.4073911 100.3639126  25.8961129  17.7258790
  27.3266375  75.6393672  78.4857543  27.7319491  76.4606477  78.7640567
  26.4148104  75.7149220  78.7669809   1.7120499  60.9371567   2.1196203
   0.9348435  61.1507511   1.6033147   2.2155804  60.3452110   1.5607992
   8.0403847  98.3227253  24.8806500   8.1228680  97.8362656  25.7008886
   8.6898274  97.9256248  24.3003345  89.6070671  47.4851179  13.2041788
  88.9749527  47.7687740  13.8646340  89.8633385  46.6051531  13.4802604
 113.6890030  34.1141224  17.4787915 113.5803318  33.5896158  18.2720840
 114.5899868  34.4340587  17.5247502 102.5444031  43.1417561  19.4443464
 103.0057049  43.0313063  18.6129403 101.7649746  43.6501217  19.2201006
  31.8792307  88.9016581  73.7491150  31.5430319  88.8859845  74.6451898
  31.7349302  88.0131555  73.4235807  42.5088739  64.3129253  25.0498104
  41.5588617  64.1960144  25.0435114  42.7636719  64.2530727  24.1290879
  98.1373310  18.9754665  19.0470266  97.8503132  18.1960273  18.5712874
  98.6529732  19.4690013  18.4092450  75.3761768  55.8362007   2.1183798
  74.5530128  55.5712032   2.5287592  75.7374620  55.0251675   1.7606981
  19.7257673  51.4191116  81.0409005  20.1488554  52.1472172  80.5858345
  19.0795958  51.8359799  81.6109128   6.7016453  47.7764368  80.5194855
   5.8072037  47.5680065  80.7892323   6.6012329  48.4858561  79.8847675
  12.6150650  63.4387922   8.6179137  12.1861691  63.7454462   9.4168162
  12.4860424  62.4903584   8.6257344 113.8090897  37.5757194  14.7145534
 112.9801846  37.3850965  15.1536512 113.6467457  38.3909035  14.2398441
  69.8680067   3.7828881  15.8636022  69.8989916   3.4315300  14.9737597
  70.7648611   4.0668625  16.0403466 103.4161663  78.1929970   5.3823018
 104.1632271  78.7906837   5.3522927 102.6508331  78.7673092   5.4080665
   1.0075993  47.0947027  30.1754665   0.6691212  47.4337482  31.0041475
   0.3300518  46.4922285  29.8685551 112.1496773  52.5548649  18.0387723
 112.1995258  53.4031439  18.4794116 111.8351364  51.9527769  18.7131524
  89.6117878  47.8497124  32.7859330  88.7578583  47.6400805  32.4076605
  89.6062660  48.8026142  32.8763962   3.1554264  49.1745472  66.7829275
   3.1592411  48.2309580  66.6221094   3.8249630  49.3057966  67.4542856
   7.5885910  45.1172066   6.9559592   8.3628792  45.2878904   6.4196974
   7.0118756  44.6061277   6.3881218   2.8325791  28.0739880  22.0150447
   3.2658905  28.8702989  22.3222303   2.8090233  28.1663227  21.0625982
 105.1523972  44.1233206   5.6529975 105.0453186  43.7786388   6.5395409
 104.4835377  43.6719418   5.1381117   4.9007553  11.3328397  33.1084967
   5.5679459  11.9077039  33.4834909   4.9421639  10.5385661  33.6410809
 104.0798283  26.9722843  29.4690132 104.1338253  27.3469353  28.5898352
 103.2988739  27.3717880  29.8520613  11.4615292  51.5714073  21.1306119
  10.8103699  50.9225512  21.3974547  12.2450203  51.3444519  21.6314769
  17.3339712  67.8565646  83.9729376  17.1190607  67.7747250  84.9021049
  16.6258299  67.3968268  83.5219248  70.2565241  61.3762140  20.2064991
  70.0243616  61.7022038  21.0760188  70.4517412  60.4490614  20.3425574
  42.6821656  11.9275260  28.1371117  42.8589291  12.5913310  28.8037086
  43.5486836  11.6482306  27.8415370  93.8779354  35.0864744  12.7588010
  93.5574913  34.3493962  13.2786727  94.7404385  35.2811384  13.1254351
  87.9391575  26.5730429  45.7317305  87.6297379  27.0374203  46.5094471
  88.7485027  26.1466885  46.0135269 100.9788322  38.3633757  44.2653847
 101.2954140  37.9564619  45.0718784 101.7739201  38.6245012  43.8007593
  15.8089012  66.5617037  15.2578151  16.5215534  66.7136240  15.8785284
  15.9706349  67.1855593  14.5500875  68.0096781 100.5270529  82.3334415
  68.9145434 100.4364300  82.0347126  67.5242483  99.8747397  81.8283887
  12.2503245 101.1457015  85.7662423  11.4524424 101.4692355  86.1844947
  12.7789461 100.8067942  86.4886929 110.9024620  34.0625405  38.1882930
 111.7602825  33.7638736  38.4902453 110.4317665  33.2580304  37.9704690
  23.5931916  37.0388746  24.2815542  23.6098046  37.9067445  24.6849871
  22.6711125  36.8895054  24.0725613 102.8261566  14.8185539  47.0724964
 102.5922203  14.2379856  46.3483047 102.3759079  14.4480038  47.8315735
 101.1513996  19.7472239  12.8836346 101.2608719  20.1370525  13.7509763
 100.6002903  18.9791882  13.0340636   9.2601628  11.2463796  38.0208015
   9.4119019  10.3103232  38.1512094  10.1370758  11.6284359  37.9848123
   5.9264130  43.8109827  36.1686373   6.7679257  44.0868902  36.5319037
   5.2767128  44.3106985  36.6630220  94.0052223  45.8351994  60.8984804
  94.3832779  46.6818333  61.1362123  94.5997906  45.1909924  61.2828207
  22.0766508  61.9393922  85.1699563  21.7936289  61.5868933  84.3262299
  22.9416525  61.5549529  85.3121336 109.6518230  47.3103237  31.2096190
 108.8656712  47.1304321  30.6940317 110.3280449  47.4964905  30.5582356
 102.6437664  43.1555223   4.9218228 102.4967575  42.4715376   4.2685354
 101.9669628  43.0057144   5.5819106  22.4538845  53.7159395   6.7641521
  21.5334839  53.9698744   6.6962630  22.4352783  52.8602171   7.1926618
 108.2935238  75.9645844   5.8660573 107.6045895  76.4230347   5.3849870
 108.1450081  76.2018538   6.7814147  74.2168379  65.1812601  11.2652290
  74.8435783  65.4652882  11.9306302  73.6446524  65.9377718  11.1367059
  99.2377949  59.2389488  55.8452797  98.9555454  59.5667410  54.9913931
  98.5871315  58.5752296  56.0740566 102.9024601  38.2250571  39.0720654
 102.1243477  37.8453732  39.4802475 103.6175156  37.6451755  39.3341064
 110.3717899  39.5446873   5.9092915 109.6195698  39.7349262   5.3487575
 110.7685566  40.3996801   6.0760224  35.4527026 106.1876803  10.8180010
  35.9567290 106.8747376  10.3819489  34.5562106 106.5226888  10.8353710
  10.4680580  20.9851336  28.2496858   9.9141735  21.6369057  27.8199816
  10.8715767  21.4567208  28.9783883  31.5849060  64.8227596   8.1912661
  31.5445084  65.2110624   7.3172981  31.0554642  64.0280724   8.1249785
 105.8968639  36.2682629   9.5956910 106.0213757  35.3865790   9.9469173
 106.4322376  36.8279552  10.1581490  40.9029448  94.1439772  83.3429535
  40.3784907  94.6139074  82.6946135  40.2862322  93.9363790  84.0449579
 101.4999008  28.7062979  30.9866142 100.9615421  28.1365633  30.4372501
 101.0810089  28.6751509  31.8467307  95.1627159  26.1201715  37.7687907
  95.8566284  26.0502672  38.4244013  95.1904011  27.0346260  37.4873018
 115.4656601  29.4511104  12.6769340 115.3645420  29.1625452  11.7698860
 114.8751163  28.8861632  13.1752539  87.2824478  54.6316099  13.8292229
  86.9812489  55.3929472  13.3333623  88.2359028  54.6546268  13.7477529
 101.0358715  17.7215385  44.0425444 101.0000229  17.9175186  43.1063080
 101.9251633  17.9609025  44.3034840  97.3753643  73.2670641  64.6068096
  97.9888439  72.8334808  64.0136099  97.8741932  73.9954376  64.9767828
 106.4484596  39.2837453  61.1220026 105.6511879  39.0380836  61.5913010
 106.1425686  39.8376560  60.4037809 108.6261082  52.3293209  40.9431458
 109.4113731  52.8635359  40.8239460 108.0086517  52.9076958  41.3908815
  19.1869206  24.8020792   2.9989836  19.0516609  23.8715744   3.1781453
  19.9451107  24.8258495   2.4151947 101.5022850  33.2825637  22.0814371
 100.5531406  33.3089209  21.9603300 101.6414547  32.5967288  22.7345014
  26.4752132   0.9042348  78.5302372  27.3449451   1.0933150  78.1780262
  26.3159162  -0.0103055  78.2968481 110.0493622  38.3725834  37.7024031
 109.5173264  38.7230659  38.4167814 110.9228039  38.2726383  38.0810070
  28.3247513  28.2968831  36.4948082  27.8173966  29.0656495  36.7552328
  28.5714382  27.8815341  37.3211622  68.7571573  11.6116500  42.1819925
  68.5535431  11.5753126  41.2474060  69.6777582  11.3552678  42.2367001
  73.8372850  53.5975647  40.0797224  73.0758858  53.0260229  40.1789665
  73.7717390  54.2128325  40.8100510  97.4449825  12.4099767  33.2123017
  98.0033016  11.9363129  32.5957417  98.0369377  13.0213881  33.6504769
 110.1576042  51.9442415   7.8182429 110.1373577  51.5516853   6.9454759
 111.0675430  52.2163105   7.9374439  57.6256990  82.3157692   6.7005110
  57.2385836  82.2585678   7.5740677  58.3503485  82.9332542   6.7996228
  12.4014992  46.9916773  62.2065496  13.2595295  47.2337246  62.5550175
  11.8243450  47.7074718  62.4725580  99.4934368  70.8975458  30.3765869
 100.1431561  70.5595207  29.7602749  98.9962959  71.5410042  29.8715711
  76.8605214  20.0446834  88.6356820  76.9730359  20.7959928  88.0533536
  76.9861585  19.2825450  88.0703576  95.6812954  66.1885166  13.4296751
  96.2106609  66.1072540  14.2230177  96.1530685  66.8236923  12.8909564
  22.0550579  56.8592072  28.7404180  21.2001175  57.1336889  29.0720248
  22.2597546  57.4925661  28.0525351  13.8195080  39.8249245  35.6869149
  14.6928353  40.0116634  35.3424478  13.3779473  39.3560576  34.9788022
 109.9745750  55.1842642  35.5918241 109.1643143  55.1513577  36.1003685
 109.8026085  55.8326292  34.9089742  29.9803109  41.7248631  18.8158369
  29.3256802  41.3536358  18.2243276  30.7324929  41.9112825  18.2539725
 106.5260792  38.2445765  24.9487352 107.2495937  38.5332847  25.5049777
 106.0367775  37.6277876  25.4931498  85.1890850  50.6866550   1.5496573
  85.4420185  51.0093784   0.6847257  85.1196003  49.7382402   1.4405291
  17.3614735  38.7775517  12.6677442  16.4406914  38.5225010  12.6097894
  17.3394055  39.7240305  12.8088939  51.5875304   8.7668742  66.0431671
  50.7569946   9.0957011  65.6991959  51.9052375   9.4676722  66.6125250
  13.2292408  68.8213539  16.3761771  13.4234471  69.3874741  15.6291699
  14.0006394  68.8934708  16.9382906  26.3072819  15.5850673  64.5817089
  25.3710121  15.5780840  64.3827677  26.4741558  14.7302389  64.9787617
  13.2336945  40.8832359  40.2890968  13.0100102  41.8068552  40.4036760
  13.0687851  40.7100582  39.3622494 106.1438656  97.2216797  42.9469204
 105.8570480  98.1295586  42.8483009 106.7031574  97.0632362  42.1864462
  44.7169745  92.3563123  74.5138522  44.2285216  91.7987276  73.9082618
  44.9421656  91.7783833  75.2429052 116.1387920  66.5030289  23.4122944
 115.9016895  66.9803476  24.2073941 115.8150005  67.0517826  22.6979685
 105.1337624  29.9560928  36.9470668 104.7321224  30.3801632  37.7054119
 104.3981934  29.7507811  36.3699865  33.6345255  73.4939469  83.6982997
  32.8503191  74.0190006  83.5383625  33.3413851  72.7990318  84.2877050
 108.4809667   2.7077235  92.6469265 109.3469697   2.3098554  92.5575982
 107.8694993   1.9870938  92.4951743 107.6947498  42.6714563  51.9976664
 106.7564964  42.8209209  51.8811321 107.9208374  43.1693792  52.7832794
  99.7095203  41.5837955  18.2551718  98.8132668  41.6585588  17.9274905
 100.1803207  41.1215878  17.5616705   2.4531025  16.3830483  39.1645217
   1.6167111  16.1225653  39.5503163   3.1061215  15.8676815  39.6380138
   9.2239327  41.1430788   8.4047717   9.6280903  41.9555283   8.1001091
   9.8535580  40.4605627   8.1724411 107.5623703  82.0757484  23.6592722
 107.0926476  81.2750721  23.8927627 107.4813271  82.1319771  22.7071691
  71.5499192 106.4924844  17.8996885  71.0925275 106.2412875  18.7021351
  71.5776807 107.4488275  17.9291797  12.0142216  52.7656984  51.4255857
  11.2129635  53.2853699  51.3610983  11.7472596  51.9700241  51.8858671
  15.0236458  97.0005703  48.6369753  15.2557320  96.9009972  49.5602608
  14.8493904  96.1086941  48.3362818  51.6718256  72.5752152  84.7353323
  52.1123087  72.0975412  85.4382070  51.6589319  73.4842098  85.0349887
  67.0552504  96.2316371  79.7602602  67.4772799  96.9381524  79.2714282
  67.7755987  95.7837105  80.2037664   4.6651596  64.8889065  32.7335620
   3.9464039  65.4731321  32.9750466   4.2427582  64.1730309  32.2588730
  34.1525406  49.3151474  36.4627504  33.8856358  48.4283495  36.2207055
  34.4150299  49.2441797  37.3805141  41.1214394  64.0801716  50.6661367
  41.7448944  64.7968769  50.5483532  41.6671795  63.2967234  50.7340479
   8.2752365  36.9700599   3.8317546   7.8338856  37.5590253   4.4437629
   7.7885002  37.0666099   3.0132204 105.3312856 105.9620436  22.1629405
 105.5573159 106.8555667  22.4213147 104.7155362 105.6672158  22.8338838
  19.4256920  58.1395674   6.7730534  18.9457554  58.6585569   7.4184549
  20.2670712  58.5871267   6.6836023  87.8312206  58.4910965  18.8394141
  86.8947220  58.6474562  18.7179017  88.1481552  59.2736340  19.2904413
 103.4289265  37.1301007  36.1998057 104.1905689  37.2620702  36.7643571
 102.9583645  36.3986468  36.5995312 115.9957886  41.3860321   6.8680024
 116.4218807  41.2220383   6.0267031 115.9541130  42.3400831   6.9334310
  80.1540357   4.9765863  89.9962951  79.3481523   4.8255243  90.4902248
  80.6714803   5.5574645  90.5540298  29.6855587  37.9715276  12.2963667
  30.4430432  38.0928493  11.7238891  29.2404408  37.2006249  11.9444978
 103.4376907  18.3473611  19.7258973 103.9891434  18.4333837  20.5035448
 103.5307503  17.4306917  19.4664967   9.8728604  61.3837624   9.8972291
   9.2338795  60.8346653   9.4428957   9.7116417  61.2200451  10.8264422
  21.7931504  59.0558100  27.0836520  21.1762089  58.9372253  26.3614607
  22.6186508  59.2871761  26.6579223 111.8499184  67.9688597  31.3475966
 112.1387482  67.1295786  31.7059493 112.2862244  68.6244869  31.8916702
  38.7785494  70.3969193  87.9661103  38.1309187  69.9253071  87.4422850
  38.8372099  71.2592769  87.5548543 110.9944153  40.0106668  16.3087928
 111.8334961  39.7001910  15.9685349 110.8304405  39.4638729  17.0771420
 107.3165703  58.8782692  15.8754730 107.1256828  57.9438877  15.9574640
 106.8373966  59.2848825  16.5974736  33.9345402  58.1972361  29.6905899
  34.8384613  58.4952402  29.7923231  33.8623661  57.4458885  30.2792335
  14.1636700  65.1171112  52.4608994  14.6399159  65.8711433  52.8085470
  14.1159577  65.2777052  51.5184784  82.2391987  31.1389303  39.1554785
  81.6109943  31.1842823  39.8762608  83.0953026  31.1940527  39.5800877
  10.6707615  68.1411362  16.3690019  10.2271313  68.2571793  17.2092116
  11.5751404  68.4058571  16.5370977  95.8146858  55.0578070  65.2659082
  94.9837303  55.5313969  65.3041363  96.3745022  55.5047035  65.9008312
  90.4404640  70.1329470  27.2498965  90.3003407  71.0415030  26.9832039
  89.5635128  69.8026705  27.4451065  87.3953229  26.0156240  90.5907126
  87.9565888  26.7714967  90.7635494  87.6632863  25.7116403  89.7235187
   8.8236088  37.3022223  21.6714907   8.6215061  36.8499899  22.4905586
   9.4504589  37.9811716  21.9211292 107.5211525  74.4374752  28.1136298
 106.7765236  74.7003746  27.5726700 108.2810402  74.5380020  27.5403047
  80.8405667  17.5784005  89.0929862  80.7628804  18.5006561  89.3372066
  81.3668424  17.5858583  88.2934793   1.2988705  31.6149259  26.7464209
   0.3910202  31.3332224  26.8591022   1.4882321  32.1317458  27.5295353
  82.6258373  66.3849735  32.9115319  83.2282925  66.7959881  33.5314918
  82.3578739  67.0967054  32.3302722 114.5924187  69.0209627  12.8985143
 114.3789387  69.4418049  12.0657194 113.8385868  68.4610319  13.0840933
   2.7594704  15.6795859  23.6408544   2.9364723  14.8367453  24.0586114
   3.1362385  16.3264132  24.2374229  95.7086658  59.0373611   7.8222471
  95.5930710  59.5255184   8.6374617  94.8446465  58.6680937   7.6396334
 108.9828491  30.5762172  27.3608565 108.5346222  31.0946226  28.0291247
 109.8108864  30.3235269  27.7691984 109.7465992  29.8811054  44.7197628
 109.8542595  30.7666588  44.3727255 108.8583183  29.6307015  44.4658422
  19.1599030  39.1866255   2.6946825  18.9793152  38.4215474   2.1485353
  20.0969738  39.3458319   2.5815871 115.9002495  33.8162017  41.4151287
 116.3966560  33.9311075  42.2254467 115.1578426  33.2660961  41.6650105
   8.4442848  35.9942865  33.0924320   8.7367672  36.1829948  32.2007632
   7.5723976  35.6146479  32.9832125   1.3008732  56.5948105  29.7660065
   1.1253304  57.3783970  29.2450380   0.7114167  56.6691399  30.5165005
 105.3478336  23.3918285  34.7346044 104.4242764  23.3907199  34.4830775
 105.5320072  24.3022346  34.9658465  96.4329147  60.6458759  33.5991454
  96.8602467  61.3618755  34.0692091  95.6515408  61.0439396  33.2154369
 116.6055298  65.0390863   1.6964915 116.3953686  64.2582846   2.2087562
 117.2839546  65.4835939   2.2048064  92.9625225  57.4537897  52.0965052
  93.6304092  57.2877455  51.4312363  93.0125332  58.3962679  52.2560930
 112.5018501  72.5747919  13.8947618 112.6068211  73.3976364  14.3724048
 113.3816910  72.3662281  13.5807240  52.6208080   0.3276862  36.4519644
  51.9031394  -0.2175867  36.7742348  53.0969108   0.5876292  37.2406268
  25.0245804  66.1366892  45.7971764  24.0919823  65.9459257  45.6966496
  25.0601429  66.8029833  46.4834881 106.6466331  75.6751537  14.9492335
 106.5703106  76.5008020  14.4709945 106.7397308  75.0106716  14.2665732
   6.0281414  40.3548956  17.4442124   5.9644074  39.7287941  18.1654382
   5.7403321  39.8638487  16.6746211 109.2448902  71.2233686  24.0594578
 108.5011292  70.7685328  24.4546485 109.2877197  72.0598936  24.5227265
 112.5574017  50.4644060  33.0227470 113.3773232  50.0060225  32.8387594
 112.5099468  50.4961443  33.9782429  30.5227148  65.7570232  93.6552188
  29.8833525  65.1496268  93.2830346  30.4534304  66.5411258  93.1105970
  19.4317288  58.8514328  11.4653397  18.7690682  58.5346222  12.0791340
  19.9693913  58.0826044  11.2754679  86.4231491  85.7667732  38.7927508
  85.6208706  86.2884998  38.8124108  86.3876724  85.2426338  39.5929050
 113.5569286  61.9181776  85.9349632 113.5888100  62.6364279  86.5668964
 114.2337704  62.1335030  85.2932930   3.1391186  70.9086943  10.0077951
   3.6359543  70.1440287  10.2987659   3.6975617  71.6546535  10.2266932
  34.3565888  54.0896416  48.8232183  35.1199574  54.6499634  48.6834049
  33.8496441  54.5397472  49.4989681 115.4153061  57.5295019   8.1559515
 115.7920742  56.8737030   7.5692642 114.8130512  57.0354414   8.7122160
   8.7205834  41.5445089  14.8805046   9.3133778  41.1499882  15.5201781
   9.1161675  41.3444662  14.0321362  50.3914529 108.0256771  26.1527085
  50.5084592 107.7896706  25.2324677  49.4761544 108.2986767  26.2154460
  28.9052641  82.6426006  89.1314562  28.4723627  82.8945399  88.3157619
  28.4473002  81.8497992  89.4106950 106.1969090  82.7532387  52.2268581
 106.8028450  82.0482063  52.4548960 106.5759373  83.1505871  51.4428425
  17.3226780  79.6868038  58.3947372  16.5688462  79.3753529  57.8937721
  17.7881665  80.2663231  57.7916479   4.2684120  46.6444492  40.3686905
   3.9160389  46.6527987  39.4787478   3.4953064  46.6670132  40.9326315
 111.0127354  60.5187273  19.7157860 111.8139744  60.8413601  19.3032861
 110.3806877  60.4616022  18.9992058 111.5001106  28.1688404  28.1809592
 110.8967209  27.4659109  27.9400492 112.3687649  27.7724218  28.1136298
  36.8625874  65.1639891  21.5833330  36.0862488  65.7016897  21.4270592
  37.3643345  65.6518412  22.2363901 108.9607602  29.6203698  92.8246339
 109.0227204  28.6839284  92.6362817 108.9484864  29.6721544  93.7803535
 107.0067024  40.6408691  43.7345743 106.3182449  40.2892113  44.2990160
 107.4799442  39.8687506  43.4245825 107.8415203  29.3053555  66.0477304
 108.6895841  29.1363358  65.6373024 107.3058658  28.5481048  65.8113527
  86.9531143  15.3101730  21.1136965  87.4276895  15.9992933  21.5785937
  86.1040759  15.7012080  20.9076361  42.5987601  75.8846889  23.0201964
  42.5013083  75.9448276  23.9705233  42.8528693  74.9753998  22.8625445
  39.2376366  87.1554290   1.5612082  38.9225194  87.5627957   2.3680453
  39.9035424  86.5322386   1.8517832  82.4497715  21.1028432   4.7084383
  82.2432572  20.2804326   5.1525454  81.6614110  21.3082027   4.2058997
  90.8886218  20.7264613  22.9086356  90.8851743  19.7900438  22.7102904
  91.1079240  21.1466264  22.0770030  65.0165046   6.5692519  21.7514662
  64.5268262   6.0006093  22.3456816  64.4130743   7.2855233  21.5538172
   7.5080746  54.0880346  88.5710621   7.1777308  53.3420706  89.0717030
   8.4036803  54.2101526  88.8860416  72.5945515  17.5653791  45.3453784
  72.4316609  16.8149947  45.9168868  73.2547886  17.2554540  44.7254805
  64.1188806 107.9048692  50.4185347  64.6259469 107.1571790  50.1021819
  64.7348350 108.6373053  50.3994231 108.0053347  78.3139372  88.0259037
 108.9492863  78.4022713  88.1577587 107.8621774  77.3710823  87.9436779
  87.9031337   5.3671359  16.9075255  87.6117635   6.1880254  16.5106921
  88.8556493   5.3806924  16.8139128  29.1177654  53.3614826  69.7030497
  28.9501905  52.4674177  70.0010300  30.0719404  53.4373426  69.6978760
  18.3779132  86.5132713  92.6085281  18.9964962  85.7985783  92.4575329
  17.9335880  86.2774277  93.4228897   3.9185384  50.4787731  89.8812962
   4.5029831  49.7258568  89.7931385   3.1112033  50.1141357  90.2438927
  35.2538323  58.8295650  90.8252716  36.1703014  58.5699987  90.7306957
  35.0926352  58.8000679  91.7683411  15.5913019  86.2604141  76.2861586
  15.2419472  87.0621395  76.6752672  14.9676740  85.5798149  76.5393686
  79.9517119  35.6809091  37.4006800  80.3771454  34.8815393  37.7109198
  80.0095828  35.6282567  36.4466815  35.3819138 102.4192057  15.6898837
  34.8267278 102.3074971  14.9181895  36.2727422 102.4525557  15.3412585
  30.4826283  93.9557362  85.5499935  30.7112098  93.0662918  85.8199120
  31.1393714  94.1824627  84.8915672 100.2592624   6.5388727  17.1934275
  99.4043863   6.4832114  17.6204257 100.8893931   6.3935136  17.8991465
   9.6069902  94.3255602  16.3106875   9.1062874  95.0706969  15.9785704
   9.0967411  94.0068494  17.0552020   1.2435720  72.9564476  76.2993193
   0.4884907  73.2116318  76.8293810   1.2945083  72.0056200  76.3971138
 111.7831921 102.2645293  34.2540507 111.8501448 103.2112513  34.1297011
 111.4434456 101.9370042  33.4212641  83.2702589  22.3351287  15.8788924
  83.8454169  21.6009330  16.0942606  83.0862445  22.2294473  14.9455122
 103.6291915  67.1584988  89.7512341 102.8158324  67.6364899  89.9131012
 104.3033939  67.8371811  89.7185040  58.6889965 108.9254676  15.8193831
  57.9754871 108.5184680  15.3279643  58.4487528 108.8012896  16.7375807
  51.5788221  64.7299862  76.2510729  51.3938475  65.6366301  76.0060835
  51.4921379  64.7170019  77.2042513 107.2095692  52.1395016  81.5180016
 107.1922761  51.5505028  80.7636738 106.3324564  52.0714235  81.8951893
  93.4390521  19.3141364  26.8952040  93.5232127  18.4508752  26.4903216
  92.7886927  19.7677755  26.3590292  92.3962319  15.1126003  33.2214217
  92.2287345  15.2700519  34.1506056  92.8875292  15.8817672  32.9329161
  34.1289231  83.1982599   7.1376853  34.4239274  83.3874307   8.0284266
  33.7434620  82.3238931   7.1936564  17.4087012  97.3598576  85.0814152
  18.0171978  98.0522346  85.3394413  17.4350941  97.3621273  84.1245842
 109.3028581  55.3467131  94.0803719 109.9283063  55.0483561  94.7406960
 109.6729403  55.0504780  93.2487965  48.2533378  89.0796696   6.0880141
  48.8252324  89.2661796   5.3434424  48.8371861  89.0881191   6.8464808
  86.3910628  27.3895311  25.6831316  86.9971913  26.6914415  25.4351096
  86.6190440  28.1201314  25.1082568  15.5686295  61.7438459  65.0688219
  15.5469179  62.2984505  65.8486795  16.4876151  61.7429543  64.8010635
  29.9714994  89.1897297  63.1918907  30.8041024  89.4956684  62.8321552
  29.3081665  89.5635128  62.6117992  73.0207494  20.0443744  15.5699496
  73.1879130  20.9023141  15.1797919  73.7328768  19.9240827  16.1981539
  72.0352334  98.5225116  15.4800086  71.5925616  99.3552457  15.6437926
  72.1478576  98.1362496  16.3485388  81.6916505  12.6049327  21.6606383
  81.9341177  11.8587350  22.2089343  80.8248860  12.8617334  21.9752936
  87.9820079  14.2761649  71.2738323  88.7339467  14.7160758  71.6704321
  87.8109092  13.5297335  71.8481159  47.7458745 102.0865117  19.1138033
  47.3897344 102.1362553  20.0008826  47.0999021 101.5769730  18.6245970
 113.4838649  78.9504004  74.6057129 112.9860681  79.4913197  73.9926577
 114.3953841  79.2069387  74.4658852  20.7946420  84.9849319  89.1328239
  20.7553363  84.6344185  88.2429790  21.5656066  84.5701027  89.5198154
  78.0999825  19.6412277   4.3482832  78.3065243  18.9628505   4.9912219
  77.1567393  19.5588445   4.2077879  17.4619830  74.7226048  63.6448193
  17.8168428  75.1903868  64.4007826  18.2331026  74.4588709  63.1427717
  25.2796912  55.6559134  87.3769283  25.4625773  55.3537178  86.4872837
  24.4878173  55.1828098  87.6325417  33.7191844  48.9818048  85.7880878
  34.4724941  49.0580416  85.2024746  33.3828545  49.8748207  85.8631897
  91.4056826   4.7725868   3.1943659  91.2971998   5.6973123   3.4164958
  90.5177081   4.4636678   3.0146365  35.9566522  80.5769253  93.5194778
  36.3363647  80.9565544  92.7270603  36.7040205  80.4413319  94.1019630
  13.8888597  79.9041224  88.7983990  13.1787002  80.4886723  88.5334396
  14.6874392  80.3682518  88.5472298  27.4073958  83.5365486  87.0115566
  27.5126505  84.4869232  87.0554638  26.4607263  83.4022236  86.9667339
 105.1305836  82.5253391  64.8115206 104.7088366  82.2486496  65.6250334
 105.9221774  82.9824352  65.0955534  99.1986197  54.9115562  93.8657761
  99.6832829  55.1923895  94.6419716  99.3462127  55.6082439  93.2261848
  72.8703225   6.2938213  18.9757018  72.4030185   5.6132173  19.4600920
  72.9398877   7.0221614  19.5928816  76.4727946  12.8848266  11.5659194
  76.5535465  12.8691577  10.6122546  75.8217410  13.5645675  11.7400221
  92.6394785  15.9507846  37.5478796  92.0636988  16.0465955  36.7892413
  92.7722574  16.8450832  37.8622489  87.6418686  20.0749254   7.8229479
  87.9994738  19.6480226   8.6014704  87.2203923  19.3678998   7.3343710
  90.1514101  14.0461635  29.1365485  89.3780947  13.5282420  28.9129977
  90.2261138  13.9668083  30.0875239  48.1473959  62.3797941   0.7003645
  48.5147131  62.1804570   1.5615134  47.9160464  61.5257978   0.3351359
  58.4626645  97.9638110  44.0744452  57.6950103  97.4191390  43.9004664
  58.7293047  97.7253352  44.9622874  48.2841957   5.8622407   2.9433207
  48.2538736   5.3879451   3.7741999  47.9453862   6.7328119   3.1519846
  34.1651344  51.9692326  61.6078615  33.2188511  51.8343401  61.5570498
  34.2980146  52.8594112  61.2820482 115.8635135  91.6172886  88.1313133
 116.2256462  91.4747047  87.2568035 116.6106297  91.9050884  88.6559200
  80.3777486  66.5658092  72.7713871  80.7225066  67.4351645  72.9753351
  80.3915506  66.1004210  73.6077213  94.9347031  21.8355369  31.3405375
  94.3937028  21.9073915  32.1269087  94.4848621  21.1871909  30.7987551
  39.5652847 109.9913894  13.9797740  39.8437015 109.2367516  13.4608893
  38.9042725 109.6408282  14.5767741  74.5415467 102.4332152  31.5148501
  74.4740576 102.4880944  32.4680953  75.3474683 102.9047738  31.3042597
  59.3003226  47.4444627  34.0798430  59.5572496  47.1297120  33.2131438
  60.0377751  47.9826211  34.3675379  23.0196333  98.5604668  91.2622452
  22.9016566  98.5271358  90.3129196  23.5500121  97.7898407  91.4648819
 100.5390895  34.2185640  31.6481833 100.5976069  34.9201726  30.9996848
  99.6069563  34.1643571  31.8589549 107.0927333  71.4970350  74.8940754
 108.0290114  71.4554787  75.0887251 106.7443555  70.6650019  75.2143669
  51.7586649  28.8728380  12.5043253  51.9745553  29.1543340  11.6152815
  51.7938841  27.9169797  12.4680953   5.7744789  38.6063743  94.7726154
   6.7228860  38.5635400  94.8947716   5.6137556  38.1105423  93.9697838
  90.7710541  18.0219220  26.0977129  89.8209036  17.9562568  26.1932807
  91.1153794  17.7837514  26.9584994  98.2238227  68.9450979  78.9898205
  97.2907727  68.8332558  78.8077736  98.3843821  69.8787165  78.8526773
  78.0432171  99.7220193   5.7122759  77.7755231 100.5770312   5.3753523
  77.5792808  99.6368466   6.5451865 107.4309283  42.4143362  83.5904217
 107.5930976  41.4711714  83.5709572 107.2132480  42.6386499  82.6856899
  34.7745904  80.5717049  20.7848601  34.8987547  80.8921824  21.6782240
  34.9084312  81.3423882  20.2331690 114.2278755  11.2695407  25.0638346
 113.4227693  11.6047715  25.4583697 114.8439229  11.2062072  25.7937006
  23.1745428  72.3011647  43.2264475  23.7432164  72.9071866  43.7013964
  23.0685836  72.6993893  42.3624854  35.0985065  82.9076205  19.2419199
  34.8877365  83.5556637  19.9141173  34.6018243  83.1892119  18.4736399
  78.9355951  60.3019238  57.3192692  79.1653639  59.9940920  56.4425278
  78.6785799  61.2152481  57.1927261  23.8344270  89.9079142  40.7882838
  23.1197697  89.4315539  40.3657012  24.3685705  89.2262016  41.1959509
  51.5206474  83.6181436  39.9175887  51.9675309  84.4348083  40.1402621
  51.9103187  83.3511911  39.0850501   3.4183708  80.1544476  77.3255110
   3.9402464  80.5767822  78.0077982   3.9802495  80.1689911  76.5507126
  76.1119587  27.3694848   6.6035037  76.2171814  26.7184305   5.9097437
  76.9790840  27.7644300   6.6948466  91.7267561  50.4055547   3.1412463
  92.0728875  50.6339788   4.0039401  92.4821890  50.0639486   2.6628451
  85.4989010  77.2657633  90.2347565  85.8022171  77.0082760  91.1053562
  84.5452672  77.2944641  90.3121567  53.0071634  99.7607337  26.0657458
  52.5499338  99.1058265  26.5932612  52.5595325  99.7419749  25.2198653
  83.1295020  30.4868268   5.2607874  83.6359889  31.0962343   4.7238307
  83.7728751  29.8500203   5.5718951  75.3572122  20.2892780  14.0159277
  76.0441915  19.9039459  14.5598082  74.8168886  19.5453309  13.7498049
  91.2306243  42.5168133  83.0928993  91.8812042  43.0175209  82.6006985
  91.1601930  41.6868448  82.6212788 108.4358466  32.2673940   4.0861372
 108.5052955  31.4837693   4.6314196 107.4986375  32.4605798   4.0626959
 116.6126383  14.6658325  26.8918566 116.2641704  14.1947507  27.6487402
 117.5629151  14.5952129  26.9825034  75.8514351   0.0445975  69.8367310
  75.6750864   0.9566535  70.0675726  75.0020045  -0.3901350  69.9122858
  92.1864443  90.1007080  59.8991823  92.4775963  89.2376614  59.6048927
  92.9330044  90.4529762  60.3837299   2.3619078  77.0888329  88.9669132
   2.4552286  77.2603607  89.9039841   3.1268954  76.5588045  88.7430954
  96.5027266  96.1773205  67.3919773  96.6709953  95.2788830  67.6761007
  97.3707574  96.5377808  67.2107983  54.2496413   0.2037180  94.3011284
  54.6924609   0.9866179  94.6285534  54.7744280  -0.5247556  94.6330261
  58.4288979  81.5535450  88.8654518  58.3067703  82.5008774  88.9277935
  59.2220545  81.3804245  89.3725586  98.4692014  37.8049135   8.7436251
  98.2797778  38.3319711   9.5198683  98.1603611  38.3379411   8.0110030
 111.4348638  42.4261712  20.4012446 110.7410086  42.3532247  19.7459082
 112.2386182  42.5189065  19.8897700  22.6520085  65.9137821  84.2498970
  22.4116158  65.4891586  83.4264088  21.8458700  66.3368845  84.5454597
 112.8387042  81.3879108  37.8582382 112.2678416  80.6385326  38.0278897
 112.8033086  81.5059185  36.9090009  55.2109754  18.6007356   5.1662306
  55.1871503  19.3771266   4.6068816  54.6214116  18.8094186   5.8908705
  56.3272327 103.8178693  16.4509158  55.8608133 103.8706742  15.6167178
  57.1848875 104.2027531  16.2705760  37.3869443  61.2047291  66.6708136
  37.2504139  62.1520138  66.6863060  38.0135727  61.0646343  65.9609222
  54.5534843 104.7483693   6.5796999  55.2263731 105.1793776   6.0527377
  54.3331725 103.9578973   6.0868983  61.4395798  50.4928064  16.3320879
  61.0913468  49.6049737  16.2501292  61.1087430  50.9520578  15.5601649
  98.5372722   2.3216485  31.4775137  98.9526332   3.0237102  31.9783358
  98.6464489   1.5420484  32.0220713  71.5339846  10.4556083   3.9679865
  72.1615970  10.6493949   3.2717185  71.9318915   9.7340774   4.4551138
  76.5319382  34.2424535  26.8438773  75.8935853  34.8300981  27.2481207
  77.1919177  34.1021871  27.5228362  38.2609487  81.1200033   8.3829741
  38.3143094  81.9851313   7.9768519  39.0188638  81.0821234   8.9663748
 115.0217512  70.4791451  80.1865101 114.8641614  71.0062504  80.9698105
 115.3586119  71.1019993  79.5424557  82.8813556  66.4406537   8.5857253
  82.3042137  66.1796998   7.8680663  82.5356502  67.2846174   8.8763194
  83.2181806  13.6859178  17.7564196  83.4344375  14.2583322  18.4924941
  82.7498788  12.9516172  18.1535677  78.2150266  14.9926709  15.8208136
  78.9867045  14.6259259  16.2523703  77.9794880  14.3429136  15.1585631
   7.9504418  71.2866783  89.1112995   8.3247423  70.8623791  88.3392239
   8.3462101  70.8278179  89.8522758  63.3519644  15.6282557  72.9184628
  63.9380926  15.4552878  73.6551857  63.8407535  16.2331618  72.3604250
  77.0595734  75.8590650   5.3276209  77.4753262  75.8127450   6.1885695
  76.4888475  75.0912904   5.2956252 108.8470244  79.0218735  92.0652294
 109.2472928  79.7174311  92.5869751 109.5762985  78.6374903  91.5787697
  81.2493521  16.0916089   6.2216906  80.9016261  15.2752589   5.8626704
  81.7431209  15.8216094   6.9959788  72.1711892  23.7131023  39.0136008
  72.5356859  22.8469466  38.8315157  71.8688017  24.0294933  38.1623129
   1.8479064  93.5455894  80.7846355   1.4722979  93.2070827  81.5973949
   2.3307070  92.8051758  80.4173088   1.6494686   3.8875531  35.6809477
   2.0134861   3.1964254  35.1277117   1.6504700   3.5142612  36.5623526
   0.4884699  88.8859558  91.2877846  -0.2512877  88.6766624  91.8580437
   0.1993938  88.6226082  90.4141045 103.3651555  40.4557561  22.9769282
 103.1371677  39.5286702  22.9078440 103.1902516  40.6779146  23.8914160
   3.5776949  54.7035837  68.5321808   3.4866071  55.6503677  68.6395788
   2.7959821  54.3391371  68.9473152  71.0019178   3.0936670   6.6140704
  71.4691925   2.2691201   6.4798693  70.6206489   3.0133437   7.4883799
  51.4222133  53.0179643   2.0553927  50.8712447  52.7904271   1.3064627
  51.9322145  52.2263002   2.2268347   7.4864209  61.3345432  65.3305578
   6.5954685  61.0967588  65.5872536   7.6091462  60.9179926  64.4775295
 110.6592053  52.1865463  75.1100254 110.2647364  51.9246864  74.2781258
 110.5025702  53.1293488  75.1631165 107.5215125  96.8966770  85.1312160
 108.4460550  97.1421242  85.0964165 107.0715808  97.6961517  85.4043961
  80.6866521  12.4845446  90.8101273  80.7887525  13.3978785  90.5424881
  79.8019093  12.2502936  90.5298042 102.6335204  15.5145120   5.4642157
 103.1267655  14.9400615   4.8786025 102.9960430  16.3861656   5.3060107
  29.0929890 106.8954659  92.2940350  28.3077669 106.5573215  91.8635464
  29.7658134 106.2384892  92.1153927  78.4005919  64.4775914  19.0950064
  79.3319410  64.6860837  19.1681437  78.1308202  64.8737287  18.2664351
  89.2736602  13.7526130   0.0047545  89.0092874  14.4684457   0.5826239
  90.1461101  14.0011358  -0.3006883  87.2200239  81.3949346   7.2628932
  86.5495992  80.7340097   7.0898585  87.9321868  81.1768197   6.6616587
  94.9149466  14.1300964  31.9251971  94.2577708  13.6444616  31.4266829
  95.5276013  13.4606170  32.2296290  73.6130324  20.2734899   9.4128565
  72.9120028  19.7512578   9.8028140  74.3804425  20.0859308   9.9533515
 116.8421042  26.6003656  20.9659342 116.0807264  27.1589326  20.8092837
 117.0838678  26.7745733  21.8755679   7.6971704  58.7107897  51.5863085
   6.8206334  59.0851116  51.4980221   8.2840222  59.4665670  51.5610456
  85.1084131  29.7265386   9.9137835  84.5739556  28.9344930   9.8568587
  84.7657657  30.2966737   9.2254786  33.5998774 105.1219807  14.5679240
  33.3605176 104.2920457  14.9804167  34.2609352 104.8843919  13.9176993
  86.5394891  47.3273992  17.9030756  86.6784382  48.1670045  18.3412318
  86.4482421  46.6967058  18.6173110  15.8617699  56.8612623  90.3777981
  15.6816316  56.6772079  89.4558907  16.6858053  57.3481989  90.3682423
  69.5846361  12.9190206  26.0330061  69.2188388  13.6817407  25.5850367
  69.7651202  13.2266950  26.9212584  85.8910156  31.0845899  25.3723387
  86.5650320  31.6998624  25.6610827  86.1803675  30.8021497  24.5047335
 103.2731908  93.0682373  93.1214333 103.9415949  92.3882389  93.0373669
 102.9795604  93.2276535  92.2244358  74.4203863  29.5930719   3.4343867
  74.8225385  29.4279050   4.2871623  74.5747069  30.5238675   3.2730441
  61.0557568  33.2854986  16.0705142  60.3856457  32.6624345  16.3515334
  61.0289920  33.9793920  16.7293219  66.4903444  94.0843163  22.0310549
  66.5110201  93.4400736  22.7387003  65.8804745  93.7175022  21.3909487
  45.7331371  77.7762890  70.4306221  46.1190128  77.4466562  71.2422085
  46.3447905  77.5037718  69.7466326 107.8861177  11.5961789  53.7082915
 107.9388392  10.8190774  54.2646746 107.6597798  12.3060607  54.3091826
   3.5254604  18.6257219   4.4180350   4.4392759  18.6867570   4.6963362
   3.0215056  18.8568544   5.1983122  88.3789718  47.6126718   2.3085837
  87.7085460  47.5753545   2.9907660  88.2805229  46.7891645   1.8307070
   8.6375618  58.0295610  76.1198521   9.4403338  58.5506105  76.1025572
   8.8338566  57.3069239  76.7160845   3.3641553  78.3423615  71.8623686
   4.2942455  78.3169603  72.0871305   2.9156268  78.4058714  72.7055883
  23.1256134  44.0855550  18.8090949  22.6602537  43.2523679  18.8830332
  22.4397881  44.7498082  18.8771967  73.3871097   9.8801755  25.2440505
  72.6054705  10.3452729  25.5423026  73.1176704   8.9627408  25.1998953
 104.4249714  11.7011785  10.8215575 103.4866202  11.8676328  10.9111170
 104.7209204  11.5130042  11.7121939  54.0028251  50.4564904  18.2181601
  53.3845175  51.1344384  17.9455428  53.4946835  49.8872804  18.7961058
  67.1276439  38.9964437  15.4023604  67.7134705  38.7335347  14.6924929
  66.2523818  38.9596891  15.0166182  54.8849768   6.8720950  40.4181433
  55.2599138   6.3298739  41.1121559  54.3068558   7.4819029  40.8765650
  38.3848777  11.0015810  85.5542946  38.5166376  10.4469622  84.7853565
  38.5436434  11.8909968  85.2381325  96.7805481  17.4326085  59.3490462
  96.6527379  18.2850599  59.7652487  95.9472883  16.9781637  59.4731001
  83.7791860  49.4105958  22.7612452  84.3651861  50.1622533  22.6726870
  84.3249494  48.7256192  23.1474833  78.9260088   4.0766572  17.7889494
  78.3837712   3.8479280  18.5438685  78.2979896   4.2909812  17.0991091
  34.8327286  52.4667501  12.9433302  33.9863188  52.4469995  12.4967627
  35.1865322  53.3343934  12.7477602  81.4553491  41.2697934   0.7633357
  80.6053385  41.6512346   0.9829192  81.9448865  41.2862253   1.5857176
  93.9133084  13.1276988  15.6247572  94.5446611  13.4924411  15.0046019
  93.7254322  13.8478278  16.2267069 106.2546528   5.7028913  22.0414023
 106.7891229   5.2602147  22.7006487 105.3521574   5.5352544  22.3127417
  11.1627514  40.5835199  16.0177187  12.1159870  40.5542325  16.0996584
  10.8404858  40.1865434  16.8269019  92.9813481   3.1654739  14.2879633
  92.2053397   2.6477050  14.5023493  93.2330096   3.5740184  15.1162104
  19.1234624  74.0693617  84.8794365  19.4694364  74.9594259  84.9451542
  19.8937631  73.5065746  84.9578094  70.9481758 101.3693820  18.6723952
  71.2751550 100.6773721  18.0975585  70.4096598 101.9190942  18.1031374
  22.2175121  89.0821075  94.6966553  22.0294619  88.6169529  95.5118275
  22.6850224  88.4431744  94.1586685   5.0483544  16.2153482   1.2418036
   4.9777014  15.2996730   0.9720377   5.8672983  16.5181064   0.8495001
  40.2413845  59.2354488  48.9339209  39.6605778  59.5850468  48.2581425
  41.0362530  59.7640896  48.8634920  77.0407100   3.7799310   6.7718939
  76.2343312   3.9249133   7.2668318  77.6157684   3.3170223   7.3812060
   5.2906591  53.1143093  87.1601486   4.5271748  52.5760174  87.3688698
   5.6132692  53.4124088  88.0106163 100.6243985  85.6836128  41.9473267
  99.7078114  85.5340290  42.1791172 100.9598439  86.2445068  42.6466846
  52.9608715  23.8017558  32.3877005  52.3921907  23.9310312  31.6286711
  52.9033983  22.8644561  32.5731711  23.6657524  66.3774395  70.3140879
  23.3393288  66.3387156  71.2130737  24.6078253  66.2283373  70.3947163
 101.5062273  51.5198182  10.0227122 101.2608278  52.4000024   9.7376112
 102.4629200  51.5160512   9.9917559  30.0606758  99.8035727   2.3424963
  30.2560622 100.0767670   1.4461569  29.4771451 100.4839145   2.6784377
  86.9444423 105.6168938  80.8237743  87.7729994 105.9635830  81.1547375
  86.2905794 106.2626266  81.0915947  79.5267757   4.6923017  14.2779688
  79.5089145   5.2716779  13.5162406  79.5142070   3.8096332  13.9078669
  95.6805730  42.8226899   6.2087588  96.4311564  43.0225896   6.7681365
  95.4130614  41.9422769   6.4724879  65.6561202  14.4168700  82.0674133
  66.5058702  13.9792288  82.0161629  65.5067581  14.5409621  83.0047131
 113.6422264  75.7340717  78.4381437 112.6923021  75.6588650  78.3474779
 113.7964275  76.6686678  78.5759306 111.8688720  53.4136009  83.6615849
 112.1324104  53.8157177  84.4892788 112.6232591  53.5355330  83.0851555
  53.1412113   0.5064344  28.7547259  53.1986153  -0.4194499  28.5187773
  52.2111404   0.6523036  28.9277033  55.0217945   8.8921488  83.9602280
  54.7500569   8.7327136  84.8640919  55.1133996   8.0184878  83.5800171
   1.0643338  85.9489250  94.5114613   0.9322053  86.8906975  94.6203136
   1.9861560  85.8629131  94.2684078  48.2954228  35.8963632  11.8425517
  48.0885947  34.9730062  11.6981463  47.4424684  36.3226270  11.9262080
  44.8486423  61.3128233  69.1577148  45.0291300  61.6503811  70.0350428
  45.5936289  61.6031075  68.6314440  94.4558287  42.0492982  24.9530177
  94.6210301  42.9025411  25.3541522  93.7094355  42.1980428  24.3724970
  91.4870811  12.4387502  27.1723132  91.0232640  11.6101789  27.0515685
  90.9114600  12.9555034  27.7360968  94.4716793 107.4320602  90.9161091
  93.5656529 107.7029419  90.7678604  94.4546586 106.9946194  91.7673302
   2.5882024  58.4977865  88.1564617   2.5612622  59.0196705  87.3544979
   3.4181035  58.7361622  88.5695839 103.3156193  21.1803483   2.5010924
 102.8149665  21.9921159   2.4198203 104.1501367  21.4509391   2.8839736
  88.5344982  13.1529903  20.3455691  89.2363835  13.7878322  20.2021842
  87.7684623  13.6865567  20.5570559 112.0370998  65.5658722  90.1795959
 112.5410115  65.1605225  90.8852863 111.9108492  64.8636389  89.5415020
  46.8600828   8.2047785  69.1616440  46.0169226   7.8681696  68.8583088
  47.4464572   7.4490393  69.1261625  70.9582681  33.1279706  21.3132624
  71.6480667  32.4953031  21.1129336  71.0628057  33.8133096  20.6532435
  70.0708872  39.1318464  16.0737662  70.3599221  38.9150094  16.9601492
  69.1154176  39.0945291  16.1175589  93.0994428  35.7834291  27.7154974
  93.7587786  35.2282285  27.2992472  92.4235857  35.1729345  28.0100207
 113.8337764 108.8986874  75.3175831 112.9086673 108.8906193  75.0719404
 114.0026915 109.8020935  75.5850935  25.8811641  78.5359335  75.5640268
  25.9537005  79.3944550  75.9810543  25.0544167  78.5724068  75.0829935
 110.4610861  28.7002229  13.6520438 110.4763377  27.7787065  13.3935599
 109.5338858  28.9375829  13.6380915  11.6366208  74.9646521  91.7905998
  12.3695660  75.5802536  91.7981625  11.6064131  74.6172476  92.6820183
  97.8666967  95.4471684  78.7880039  97.8325968  95.3350449  77.8380060
  97.0087367  95.1538372  79.0947485 106.8246591  48.4211206  40.8435969
 107.6958859  48.8031053  40.7373671 106.5892852  48.1142663  39.9679999
  52.7637815  78.9356375  94.0623856  53.6369562  79.0097094  94.4475079
  52.3804855  79.8062801  94.1686821  16.2262106  90.2671814  86.3072109
  15.5134535  90.7993031  85.9535789  16.7301106  90.8726597  86.8509960
  17.2332430  53.9501286  74.3615913  17.8704345  54.4412994  73.8429642
  16.8079400  54.6114779  74.9074507 113.8394392  45.6516504  52.9088645
 114.4557321  46.3830613  52.9468970 113.9732755  45.1826047  53.7324671
  98.5231507  53.8046693  23.9891295  97.8023362  54.0258168  23.3994250
  98.5379899  54.5179796  24.6272616  94.2692095  63.3415890  45.9037399
  93.3225542  63.4371042  45.7990980  94.4505149  62.4415731  45.6329489
  55.0230962 104.8968516  30.3721194  54.2893487 104.5523797  29.8630099
  55.7812399 104.3985425  30.0669245  19.4586778  40.9232903  61.0881662
  19.5720708  40.7019949  60.1638269  19.4804394  40.0801182  61.5407276
  81.3602000  48.5070229  80.3993034  80.7721239  49.2494583  80.2608013
  82.1294766  48.7081480  79.8663902  65.4473925   3.4390306   0.6304602
  64.8857284   3.5465478   1.3980631  66.2949884   3.7907218   0.9027247
  23.9802647  58.3333445  90.9567642  24.7981286  58.7036467  90.6247902
  23.4564638  59.0947008  91.2061691  75.1551488  33.3291864   7.0798163
  75.8594004  32.6856756   7.0014052  74.3660331  32.8051137   7.2172122
  33.6726308  93.4996223  54.4992399  32.8094697  93.2083988  54.7931290
  34.2056012  92.7045345  54.4966030   2.2128630  67.1344948  81.1091232
   2.0221449  68.0651093  80.9915543   2.0885047  66.7528725  80.2401352
  79.3916088  63.9687777  90.2949619  79.0228539  63.8815737  89.4159603
  79.3139892  64.9014425  90.4958153  18.7613249  58.1813717  63.8721371
  19.5772755  58.6816931  63.8603783  18.0906320  58.8224840  64.1074705
 105.3655804  23.7279748   0.0882201 105.7119358  24.2502879  -0.6352849
 106.0802162  23.6961555   0.7242350 112.0908612   9.4620741  81.1260128
 112.5664252   8.6778391  81.3999557 112.5201816   9.7310675  80.3138828
   1.6270664  67.0374298  64.3860865   2.1658373  67.8179646  64.2567968
   2.2221005  66.3977766  64.7772551  50.5793905  67.1888876  76.5200377
  51.4608288  67.5200987  76.3480091  50.4719067  67.2747326  77.4672985
  45.1153278  56.0502481  76.4648962  44.3804455  56.0543585  75.8515739
  45.1752710  55.1419020  76.7607784  94.3688608   0.6273221  30.9662776
  94.1052378   1.4149284  31.4421038  94.1553820  -0.0933123  31.5590148
 112.9214490   9.7234105  10.0208430 112.3994339  10.2652740   9.4291358
 112.3099983   9.0596628  10.3398947  57.5890321   3.6819209  89.3018341
  58.4807223   3.6168707  88.9599419  57.2378928   2.7947463  89.2254066
  40.1902008 106.5600777  84.9219418  40.2582932 105.6876755  85.3099060
  40.7177210 106.5095520  84.1248226  28.3816433 102.2846127  82.0372581
  27.5358033 102.4289608  81.6130543  28.9650249 102.0222187  81.3251877
  30.1889944 100.0236034  91.3201427  30.9235764  99.5965385  90.8794212
  30.2418685  99.7171497  92.2254181   8.5317487  91.0893822  72.4836349
   8.9096820  90.9509850  71.6151619   9.2828423  91.0746193  73.0768251
  35.5220562   8.2528532  92.9268551  35.9994111   8.3094634  93.7545967
  35.5739829   9.1352690  92.5595856  82.4359548  50.5823087   7.0039420
  82.0218063  49.7296380   6.8710665  82.6771346  50.5896997   7.9302268
  64.6461583  52.8962087  15.9405379  65.0817550  52.4463796  16.6645102
  65.3209937  53.4663724  15.5720953  40.7753372  71.1157465  78.0010700
  40.4285669  70.5687237  77.2962713  40.0109148  71.5801048  78.3420467
  89.3893671  14.6986579   7.0837931  90.2565205  14.3051481   6.9866900
  89.2216397  15.1196861   6.2406783  72.2898168  28.8318395   7.8835444
  73.2373634  28.7969732   7.7525000  71.9572360  28.0543660   7.4350409
  68.7872684  33.4238958   0.5586962  69.1402680  33.1408643  -0.2848192
  68.1317127  32.7618741   0.7782702 110.5894268  47.1693658  39.2446761
 110.1142133  47.8893232  39.6594767 110.2143252  47.1095418  38.3660655
 105.7762182  79.3530702   6.3783316 105.2786196  79.6770429   7.1291022
 105.5947316  79.9830007   5.6808428  87.8429437  28.9753484  23.8729815
  88.5763705  28.5486268  24.3159537  88.1681359  29.8499440  23.6595301
  43.0614203   9.3774642  49.1791773  43.5368145   8.5901583  48.9138937
  42.2956005   9.0478075  49.6493721 112.8628624  18.0139207  43.5954718
 112.4574983  17.9673433  44.4613509 113.3550346  18.8348340  43.6052660
   9.0197164  77.7634239  76.3385391   9.1744852  78.6927700  76.1694336
   8.4842265  77.7502632  77.1318293  24.4474268 102.7511692  89.5520592
  25.2786231 102.5394154  89.1271973  24.5928955 103.6103916  89.9480438
 101.9938386   2.5058984   6.0648207 102.9056442   2.4198818   5.7865290
 101.5655935   2.9663848   5.3431563 111.6188848  52.9959535   0.4732565
 111.2154234  52.1673250   0.7317595 111.6412628  53.5129403   1.2785296
  79.8904419  30.8733796  16.4364676  80.5476833  30.4508828  16.9894270
  79.9823037  30.4450464  15.5853991 100.7782758  18.7623643  26.4828352
 100.9787429  19.3605279  27.2027258 100.3491438  18.0170869  26.9031291
  16.4919913  48.5771799  62.2765064  17.3491788  48.3374500  62.6286316
  16.5030384  49.5339489  62.2499228  65.3640628  37.6225423  24.6702342
  65.5205906  38.0363702  23.8214354  64.4347155  37.7736329  24.8426203
  95.1417864  27.6864862   9.2202525  95.4184962  26.7706346   9.1907172
  95.9572471  28.1804323   9.3055110  30.8368444  87.1303272  60.7651281
  31.1623168  88.0202866  60.6298971  31.6161990  86.6217327  60.9890985
 103.7497347 109.4482422  86.0046101 104.3643921 109.7285080  85.3264618
 102.9111283 109.3692398  85.5499363  97.7373612  57.1083974   2.3244242
  97.8428376  57.4100065   3.2267241  97.4851346  56.1887407   2.4072413
  21.9876480  78.3080721  67.5005007  22.5592136  77.7736712  68.0518246
  21.1746740  78.3830690  68.0001831  14.0287554 110.0803947  60.1589727
  13.8264358 109.5211124  60.9089756  13.3524644 110.7575798  60.1758337
  86.1600501  14.9401998  27.5650076  86.0745877  15.0819110  26.6222243
  85.2584172  14.8848485  27.8815989 102.8501475  48.8586664  36.2198596
 103.2617891  48.9099550  37.0824961 103.4867895  49.2573594  35.6265883
  11.8837917  80.0647831  75.0646925  11.9565058  80.2502251  74.1284466
  12.6302683  79.4966364  75.2550030  44.9855983  14.0072573  90.6276798
  45.0386340  14.7889460  90.0777817  44.7847366  14.3423213  91.5015316
 114.0139585  93.1330585  68.7524271 114.6760174  93.7825298  68.9892578
 113.1803256  93.5514069  68.9675331   8.9551765  76.5400743  74.0214634
   9.3472481  77.0155144  74.7539043   8.2815933  77.1312571  73.6852789
  44.0765047  73.9137459  81.0282612  44.8027325  74.5021629  81.2346363
  43.8027191  74.1708231  80.1478100  12.3584873  50.3041219   3.4335665
  12.1192200  50.9938001   4.0527110  12.0516855  50.6261682   2.5859885
  83.5406542  83.8336896   0.4262499  82.8470126  83.1755590   0.4705576
  83.9079339  83.7357950  -0.4522462  75.9042734 104.5226775   3.1660704
  75.1279015 105.0825606   3.1642775  76.5888304 105.0637017   3.5596518
  66.2037361  48.3297395   5.3516726  66.0985840  47.9975652   4.4601302
  66.4685262  49.2424726   5.2375273   4.1676743  26.2310743   2.9118590
   5.0396711  26.6248845   2.8841452   4.2844803  25.4257440   3.4158759
  90.2317858  58.3738946   4.3233828  89.9827278  57.8757715   5.1018862
  91.1814428  58.2688569   4.2654948  35.2551031  96.6228962  72.5532103
  35.4989719  97.0322990  73.3833647  34.3015194  96.6989613  72.5196648
  14.4979460  44.1959714  25.2302031  14.2388231  44.8162889  24.5488123
  14.5851547  43.3598947  24.7723727  52.5082594  22.8071059  70.0421286
  52.0258039  23.3992518  70.6190491  52.5021404  23.2444705  69.1907167
  34.8358202  93.6710644  73.1035662  33.9028072  93.8171005  72.9473877
  34.9635744  93.9015293  74.0237808 114.4386065  33.9370202   5.7456545
 113.7896669  34.6358537   5.6635527 115.0571525  34.0996789   5.0334887
 111.4429944 101.2169266  81.6351795 111.5786015 102.0974827  81.9851398
 110.9429776 101.3534069  80.8304501 114.5410693  35.1922559  28.7962489
 114.6328152  36.1450242  28.7898783 113.7339056  35.0326299  29.2853693
   2.8388670 109.7384930  78.4712601   3.2148409 110.0368595  79.2994213
   2.3962164 108.9186668  78.6907482   8.7764561  82.8963661  86.9321346
   9.0668333  82.0683289  86.5496826   7.9863489  82.6696301  87.4225998
  94.6436632  35.7427358   4.8831324  95.3988290  35.5489682   5.4384856
  93.9361358  35.9334897   5.4989676  89.7856629  28.1200647   7.9811434
  90.3963507  28.8211011   7.7534632  89.7934676  28.0970048   8.9380316
  70.3041268  28.5695695   9.7140269  71.0001302  28.1942224   9.1746478
  70.7283366  28.7670087  10.5490641  16.7732048  67.0191193  86.6539001
  16.7742872  66.9684124  87.6097584  17.3344195  66.2955856  86.3750362
  85.1143146  56.4176130   2.2341971  85.7968438  56.4732026   2.9029994
  85.0449044  55.4829072   2.0399241  26.4961529  99.7900772  92.3632717
  25.9097695  99.7774029  91.6068172  27.2309661  99.2331791  92.1060753
  96.5566326  34.3287324   6.8588213  96.5852356  34.7230005   7.7305846
  96.2797797  33.4255742   7.0133929 101.2294114  38.1742524  12.2246985
 100.9866846  37.2555875  12.1090464 100.8134067  38.4300851  13.0479292
  42.0782852  86.9554424  85.2251053  42.9870844  86.6793156  85.3436947
  42.0316219  87.2401714  84.3124199  61.5582198  27.9130686  92.1866703
  61.4046067  26.9683493  92.1987915  62.4948496  28.0011786  92.0100498
  72.1345615  89.0514851  92.7702618  71.8402386  89.9306965  92.5323772
  71.3842773  88.6607552  93.2181835  80.0598334  17.5132942  16.3099246
  80.1081677  17.5303315  15.3540949  79.3523567  16.8981361  16.5030341
  25.1809716 100.0344276  86.7466736  25.7260704 100.2190113  87.5115490
  25.6377006 100.4572010  86.0194206  23.6101277  55.6344747   8.2914404
  23.0968554  55.0757932   7.7077727  24.2023260  56.1096811   7.7085928
   0.4351313   3.1148004   7.3691992  -0.4582160   3.1233930   7.0255618
   0.3258545   3.0927753   8.3198885  23.8898063  71.8184662  83.7504387
  24.4429588  72.5730324  83.5482407  24.5071173  71.1224413  83.9756203
  69.4759411   5.3742922  76.5428925  68.7657374   5.0059832  76.0173512
  69.1956538   6.2701930  76.7300415 104.7977989 108.5597229  89.7213364
 104.7080010 107.9611206  88.9798164 104.2165130 109.2905235  89.5109558
 104.7072018   0.2918481  28.7727599 105.6218875   0.4352044  28.5297923
 104.6758998  -0.6206752  29.0600924 106.5103424  21.3357257  37.8346591
 105.9794557  20.9449910  38.5287146 107.4120200  21.2445640  38.1427149
  91.0911966  56.5051507  39.2403845  91.0234046  57.4575471  39.3080573
  91.6148937  56.3576650  38.4528403  67.3329568  84.2592382   5.7350974
  66.5469086  84.6567964   5.3605132  67.9201079  84.9973535   5.8984046
  37.9102421  89.0398598  74.1443872  37.8256178  89.2087173  75.0827694
  37.0175791  88.8542175  73.8529778   2.7689609 109.2279434  81.2584305
   2.3549022 109.6277714  82.0232296   2.2974974 108.4042358  81.1340427
  98.3711756  15.8360147   6.0384707  99.1800750  15.9407043   5.5375151
  97.8492153  16.6064309   5.8143000  14.7813499 105.9251308  82.1163940
  15.2868760 106.7361927  82.0629787  13.8875556 106.2119007  82.3038197
  60.6552166  23.1591929  80.9271145  60.3609556  24.0496386  80.7354164
  60.0944537  22.8715170  81.6475391  75.3498841  29.8632478  12.0406584
  75.7399232  29.0385293  12.3303751  75.5197232  29.8907899  11.0990481
  26.6884089  54.7786188  82.1903992  26.3209271  55.5252218  81.7173576
  27.5704813  54.6788311  81.8323135 105.3018988  17.5594615  24.5859293
 106.2079633  17.2900342  24.7365527 104.7763431  16.8572234  24.9691824
 107.9954851  60.0751733  19.3687586 107.6656354  60.0456189  20.2668433
 107.3749292  59.5455407  18.8681368  94.2812133  28.9673852  16.2081103
  94.1108120  28.3307981  15.5138735  95.2277291  28.9254903  16.3444380
   8.4114552  89.8016930  84.9319363   7.6395637  89.7339439  85.4939270
   9.1031861  89.3553066  85.4202843   6.9015616  71.2498331  78.4067488
   7.5263321  71.3610029  79.1233587   7.4457037  71.0668945  77.6408005
  26.6647894  51.9034910   3.9384989  26.0350401  51.2525892   3.6287074
  26.1277563  52.5754785   4.3583350  81.2907178  42.4746560   7.5816683
  81.1254916  43.2891130   8.0566268  81.3637662  41.8090867   8.2657198
  73.4694907  47.5406503   9.4790225  73.4848240  47.3686551  10.4205184
  73.0201361  46.7830228   9.1044287  48.9098644 103.1390953  87.4470234
  48.5036850 103.0037594  86.5909004  48.2396269 103.5886192  87.9617405
  10.4334331  76.8157291  85.4571056  11.1068106  76.1453199  85.5726337
  10.0012505  76.8704796  86.3094330  16.7327476  88.7089062  67.4111938
  15.9910464  88.1186867  67.2779512  17.4643326  88.1297684  67.6247835
  38.3810234  87.4333382  80.4885578  38.5406518  88.3521461  80.2728367
  38.6256957  86.9552803  79.6962023 110.8726681  30.0860357   9.1709094
 110.1311958  30.6913518   9.1635851 111.6416061  30.6501912   9.2527442
  27.3418236  68.3232021  55.4679346  28.0694151  67.7013111  55.4775095
  27.7598500  69.1819143  55.5319691  27.3482258  36.7761087   4.7582488
  26.7123491  37.4059819   4.4189124  28.1724007  37.0159482   4.3346362
  97.6743317  55.8205556  15.4641871  96.9253540  55.2248525  15.4442553
  97.9886139  55.7800340  16.3674120  71.8269724  37.8163671   4.3199019
  71.5379417  38.1387376   3.4662203  72.6109231  37.3015260   4.1286139
  23.5605145 108.2360363  91.7703533  23.9643049 108.9918518  92.1969032
  23.5697746 108.4537792  90.8382988  75.9992427   1.6662158  73.1456137
  75.7526297   0.7800520  73.4104204  76.8104500   1.5512694  72.6506758
  92.2001946  51.5417623  19.4640402  93.0056906  51.2968969  19.0085749
  92.4956739  51.8714570  20.3127055  28.4560704  87.0158100  61.9318104
  29.3441057  87.1411419  61.5972805  28.4294009  87.5297546  62.7388906
  36.2295294  91.2275219  92.7806664  36.2791157  90.3161621  92.4922180
  37.0023131  91.3463593  93.3328533  94.7039628  79.2790460   7.4191622
  94.1916311  79.8578786   6.8546252  94.3598402  78.4039354   7.2403006
  76.1761612   0.3408278  76.4044094  75.6455320  -0.0373327  75.7032204
  75.6321567   1.0407103  76.7655945  90.1927996  37.4785470   8.9902453
  89.8889625  38.2606839   8.5296206  89.9310577  37.6195859   9.9000983
  94.5473051  23.5667657   4.0201144  94.0220797  23.9147281   3.2994895
  95.3358412  23.2251071   3.5985522  53.8753033 107.8722095  87.0811939
  54.3251324 108.0004978  86.2460709  54.5490694 108.0291271  87.7427387
 109.3800390  87.0405149  16.8568186 109.9000848  86.8755578  17.6433138
 108.4788621  86.8580484  17.1229224 101.7926324  22.5145530  24.6382288
 102.0197952  23.1442165  25.3224425 101.1074317  22.9493045  24.1305594
   4.0718062  29.8200940  11.2574248   3.3214361  29.4802045  10.7699351
   4.6597941  29.0699529  11.3456683  58.3520437  47.7031659   5.3192572
  57.6764953  47.0287656   5.3903536  58.1932736  48.2808542   6.0657744
  45.9566545 107.2165871  81.4619827  46.2974834 106.6009521  80.8130932
  45.0148964 107.0465088  81.4819908  80.6530899  26.2725400  20.5742030
  81.3700477  26.9062852  20.5502085  81.0794595  25.4353666  20.7574515
  36.7439222  88.3689976  89.5737267  36.6526413  87.4197006  89.4917011
  36.4865375  88.5572720  90.4762459  57.8078127  99.6796608  88.4853745
  57.5918007  98.8719177  88.9513302  57.1345997  99.7533131  87.8089237
 113.3115304  30.2168607   6.8851523 112.8878463  30.4823541   7.7013831
 113.3100427  29.2601156   6.9146971  11.0773265  41.6874027  86.7708015
  10.6553793  41.7729044  87.6257133  10.3533947  41.6945601  86.1446190
  36.9137168  95.7898903  93.5264015  36.4634705  96.6232491  93.6643314
  36.6669440  95.2564240  94.2818737  77.3921293  21.8866862  86.5400124
  78.3301252  21.7026938  86.4895916  77.3338312  22.8418387  86.5169239
  94.3724823  11.2684631  27.6230101  94.7510207  10.9514379  26.8029933
  93.5968268  11.7607402  27.3542170   4.1140730  43.7565469  13.7107710
   4.0560038  43.7825536  12.7556853   3.4101755  43.1652688  13.9775042
  28.8162787  32.7568864  17.4377875  29.6023066  33.2415532  17.6897769
  29.0439779  31.8386888  17.5837283 100.4868257  43.5645913   6.7614798
  99.6014846  43.5160207   7.1220927 100.4476464  44.2791414   6.1257796
  32.3829300  51.5770864  22.7987246  32.6439411  51.2336396  23.6532073
  31.4670403  51.8310308  22.9122595 113.9050472  58.4342717   0.9607844
 113.1674850  57.8462934   0.7979254 113.5238445  59.3116521   0.9273009
  21.8313479 102.2985458  86.0835171  21.0093594 102.1114349  85.6301308
  21.6088605 102.2486210  87.0131588 110.5745220  86.5320873  88.0666161
 110.5804276  85.5959129  87.8671646 110.4895091  86.9581509  87.2136974
  71.3370610  18.7046289   9.8780112  70.8307928  18.4357881  10.6445937
  70.7410950  19.2661475   9.3822722  16.5463865  74.7729731  71.9537783
  17.1152365  74.5493317  72.6904106  15.8766842  75.3423834  72.3325872
  96.0149527  24.8534059   0.9212832  96.0477698  23.9558362   0.5903296
  95.0999296  24.9835443   1.1703352  63.6782664   3.1631602  91.2403965
  63.5631889   3.7619437  91.9782639  63.2731217   2.3456801  91.5298939
  29.1468668 101.7446327  84.9729729  29.2157578 101.7876148  84.0192223
  29.3077040 100.8248234  85.1835155  98.5014189  31.8825197  26.0640101
  99.2392648  32.4776506  25.9312109  98.2391060  32.0254373  26.9734053
  23.9269757  96.0990047  92.5798607  23.2869649  95.4031086  92.4303532
  24.7738314  95.6531334  92.5634003  68.3929533   4.5697821  91.4415836
  68.9078540   4.4087828  90.6508923  68.8664717   5.2650584  91.8983078
 113.3239173  96.5669918  94.8011208 113.9421021  96.7650032  95.5045891
 113.6324107  97.0856857  94.0581322  25.1495743 104.8874664  93.7249565
  25.4931831 105.0940895  92.8557777  25.2414489 103.9375782  93.7992382
  39.3519950  65.8761311  95.1393795  39.4080496  65.9892273  96.0882187
  39.5531893  66.7413282  94.7827435 107.9131782 105.4369450  93.7670994
 107.7415418 106.3785458  93.7547588 108.7583595 105.3417683  93.3279610
  16.7202210  89.7267437  93.8933659  16.6697371  89.2230511  93.0809784
  17.6399589  89.6714401  94.1527081  46.1702824  63.4123135  79.4073391
  45.2988338  63.4709263  79.7989750  46.1501026  62.6019239  78.8983297
  14.5679176  69.2480040  87.7475834  14.4180071  69.8454905  87.0149326
  15.0124121  68.4959841  87.3562717  88.5292643  37.6613368  65.3745747
  88.7889260  36.7687453  65.6028223  89.3506926  38.1523932  65.3559828
  12.5219328  42.4491548   1.3570361  13.2232506  41.8252801   1.5445570
  12.2447045  42.2370862   0.4657416  31.3623977  98.0167198  83.3712196
  31.5005469  97.6742744  82.4881172  31.9539213  97.5040817  83.9221573
 104.6663511  13.7336063  -0.1004262 104.2951548  14.1817617   0.6595664
 105.6122983  13.8454198  -0.0060029  41.3036871 106.0056400  63.7025595
  41.6373587 105.5417824  62.9346180  40.4905939 105.5509377  63.9224625
  40.7833052  94.2950535  71.4527273  39.9685526  94.1725159  70.9654903
  40.6472826  93.8171959  72.2708893  12.3507149  69.2187261  36.3193278
  12.8493530  69.6832704  36.9914870  11.8091185  69.8950815  35.9125762
  32.1769238  79.8336363  72.6815081  31.8234086  78.9790344  72.9283142
  33.1225085  79.7452784  72.8010607 109.1505373  38.9267968  10.1340441
 109.7022736  38.1673669  10.3213458 108.8140381  38.7667608   9.2523531
  40.8405352  97.1830273  83.4586430  41.4726257  96.9712639  84.1455555
  41.1959171  96.7713451  82.6709557   6.2300284  44.0329599   9.1453604
   6.6235525  44.6996545   8.5824351   6.2103398  43.2437085   8.6041312
 104.5743161  90.5918598  93.3874989 103.9872544  89.8761082  93.1440067
 105.4387861  90.3023911  93.0957317  99.4717872  80.0436067   2.6800303
  98.6304057  80.1715040   3.1181483  99.3748296  80.4916429   1.8397383
   0.5008132  41.1472844   4.5941405   1.2053616  41.7639398   4.3951945
   0.9496433  40.3700113   4.9267535  81.4528883  23.0190181  18.3518366
  81.3779328  22.2416972  17.7983145  80.7840997  23.6166000  18.0174021
   2.7724612   9.4551123  65.6908178   2.5261462  10.0742568  66.3779974
   3.6611236   9.1834963  65.9204578  97.8549671  67.0110463   5.0471262
  97.1692336  66.5049791   4.6113543  97.3875261  67.5426816   5.6914095
  76.5517634   8.2573164  78.3296394  76.4439124   7.4438036  77.8368950
  75.9413237   8.8692034  77.9183149   5.7271273  64.2206525  15.1322989
   5.9667761  64.9580621  14.5710330   5.1588089  64.6032476  15.8007769
  27.7675707  70.3034639  14.5412974  27.1728928  70.2402734  15.2886920
  27.3457987  69.7861337  13.8552241  90.8326197   8.9917659  32.5407462
  90.5319095   9.0790796  33.4452872  91.2814367   9.8169755  32.3568396
  29.4225526 105.4692268  71.2529469  30.1372290 104.9662113  71.6433859
  29.5538950 105.3789902  70.3091049  88.2035780  66.6372632  33.3400492
  88.2986033  67.1881151  34.1170744  89.0915287  66.5602826  32.9909853
  18.5128975 107.4324703  86.3143921  19.0082645 107.6122093  85.5153084
  18.1253433 106.5697384  86.1669922  15.9893036 108.1817245  62.2280931
  15.8537483 109.0935612  62.4858141  15.8098149 107.6790428  63.0226517
  84.9937851  61.7626046   4.1194109  84.5052302  62.5065946   3.7672381
  84.6988410  61.6904687   5.0271754  76.7759652 102.0085573   4.5203261
  76.3040322 102.3981904   3.7843279  77.1412122 102.7562284   4.9934248
  44.8617220 103.6721039  61.4957142  44.7446394 103.1643486  62.2986555
  45.6887579 104.1365051  61.6244555  41.7009623  49.4634389  16.3575034
  42.3348124  49.9179029  16.9124178  42.2253115  48.8374376  15.8581023
  98.1772817  87.8819989  15.3468947  99.0815008  88.1052064  15.5678038
  97.6478172  88.3982419  15.9546618 100.9742415  53.9540719  17.8897910
 100.3405702  54.6126985  18.1742243 100.6562412  53.6701440  17.0327620
  95.4777831   7.1194209  71.7739105  95.1725549   7.5278319  70.9638071
  96.1877841   6.5400828  71.4973259  43.8319063 103.6789799  80.6328773
  44.4583273 103.8657284  81.3321304  43.7256145 102.7279377  80.6542301
  14.4341643  47.1245431  16.7691760  14.3509323  47.8390550  16.1376814
  13.7744314  46.4865350  16.4972929  98.3610022  62.8227758   8.1452136
  99.2920101  62.8422021   7.9236750  98.1893862  63.6804246   8.5340647
  31.2722087  12.7254046  63.0526781  31.5756619  13.3894099  62.4336147
  30.5516541  12.2872485  62.5998449  65.2719134  16.1978377  78.8322401
  65.3098411  16.7930926  79.5808887  65.7384914  16.6593493  78.1354284
  52.6479942   4.4036234  80.6581974  52.2232837   4.7912920  81.4234257
  53.1248480   3.6496867  81.0052109  46.7519730  18.3475626  74.1165876
  46.5846598  17.4166907  74.2639351  46.7368436  18.4458674  73.1645679
  96.3042128  76.0238790  32.5755171  97.1654463  75.9723710  32.9900794
  96.1835885  76.9549035  32.3887591  69.8344535  26.5516985  49.0816784
  70.3816050  25.7667292  49.0556097  69.7045201  26.7837370  48.1621647
  20.8891368 108.1379700  92.3596573  20.5601120 107.4480534  91.7834663
  21.8395138 108.1092358  92.2492504  50.4966825  29.4320620  81.2443352
  49.7669429  30.0488223  81.1867428  51.1496979  29.7760714  80.6348610
  19.1900141  54.2205667  14.6557860  19.1122324  53.3624696  14.2388205
  19.7331078  54.0632200  15.4281382 104.6200884  45.5777501  26.5801386
 104.0196693  46.0802030  26.0294299 104.4324529  44.6636438  26.3669924
  30.9809399 106.6585255  75.9106684  31.5766478 106.8765450  76.6274881
  31.5503311 106.3152409  75.2220583   0.5197079  50.2687406  12.5276808
   1.3693316  50.3975057  12.1060233   0.0524194  49.6686124  11.9465498
  13.4013367 110.2024174  81.8293762  13.5987306 109.8491764  80.9619141
  12.6376164 109.7052765  82.1223164  81.6511840   6.6570319  94.4902802
  82.4146003   6.2594069  94.9089909  81.2969846   7.2507227  95.1523209
  36.3571525  94.4711876  78.0410194  35.6937790  93.9264107  78.4645605
  37.1769595  94.2282581  78.4712982  67.6934904  17.9863585  65.5679560
  67.1061152  18.6651457  65.2355719  68.5538548  18.4051646  65.5925751
  47.9533005  67.0676947  74.7966099  48.9030647  67.1222496  74.9024534
  47.8182602  67.0546436  73.8490725  52.8280067  86.2499809  80.4165936
  52.4632025  86.5952492  79.6017647  53.6672115  86.7001724  80.5129910
  73.5893911  20.4657591  80.6756020  73.5397095  20.6258429  81.6180134
  74.4780630  20.1392210  80.5346489  44.7754383 102.1498489  86.0103607
  45.0173521 101.6619492  86.7975521  45.4985762 102.7625751  85.8766651
  83.6404443  40.1520299   9.9109129  83.1486690  40.9562444  10.0771193
  84.4854933  40.2956533  10.3369288  59.5953000  10.8389711   8.2344870
  59.0020120  11.4323234   7.7738623  60.4548240  11.2533950   8.1589751
   2.7680094  26.7892122  12.1389155   1.8524725  26.8612432  11.8690447
   2.7284319  26.6464185  13.0845789  11.9792158  36.0536718   3.8123374
  12.1973402  36.8176603   3.2785277  11.3856156  35.5402135   3.2644038
  81.0912323 103.0224609  90.8681107  81.5897274 102.4534416  91.4545727
  80.9099388 102.4773884  90.1024246  14.5456822  51.2567949  15.6254725
  13.6999733  51.2352323  16.0732893  14.5136244  50.5182313  15.0174098
  28.0125124  61.8842363   7.1108202  27.6626045  61.7712831   6.2270598
  27.8876574  61.0321092   7.5285773 113.8549745  34.8333978  34.3493704
 114.2810142  35.1272535  33.5441546 114.1524065  33.9305829  34.4619898
  21.8816359  44.5088720  27.5406699  22.1146996  43.7377691  28.0576949
  22.0433695  44.2472982  26.6342215  33.1781943  70.7680082   1.2435870
  32.9982311  70.7453679   0.3037314  33.4162981  69.8673772   1.4636187
  36.8316347  47.6558446  31.3539080  37.5841601  47.8172254  31.9230322
  36.8518860  46.7126989  31.1917262  21.5800554  51.8551015  11.3799719
  21.7244894  52.0358896  10.4511599  22.3070414  52.2909307  11.8246893
  20.4896426 103.8459969  78.6127853  20.8717108 102.9862690  78.7892008
  20.9177065 104.4311428  79.2377663 103.7817824  47.5129937  13.7156729
 104.5511330  47.6997899  14.2536692 103.4717572  46.6629648  14.0280108
  41.8128777  11.7690314  87.4783993  40.9907149  11.4544238  87.8542995
  41.6852302  12.7124537  87.3789215  41.6245222  86.4245605  73.4961557
  41.0182619  85.7125759  73.2918024  42.4891853  86.0141754  73.4826088
   5.5424673  43.9893579   5.2527766   5.1523239  43.2940721   5.7825045
   6.2050278  43.5445737   4.7241835   3.2133853 105.1586819  86.3644505
   2.8326100 105.5495071  87.1508884   3.1743792 105.8544731  85.7082653
  77.9853431  29.4544553   2.2986559  78.6533241  30.1400327   2.3032527
  77.1554653  29.9289560   2.2498374  29.8999483  34.5249795   1.9558196
  30.4442198  33.9916753   1.3765196  30.0476200  34.1585206   2.8276782
  49.3962479 103.9137459  64.0140057  50.1152229 103.2952499  63.8844776
  49.1037655 103.7564182  64.9117422  99.9839509  36.3455056  22.0873599
  99.5054424  36.9422673  21.5119128  99.7769106  35.4728460  21.7529444
  56.5937996 104.9904537  77.3769474  56.1464119 104.2594719  77.8032541
  57.3512077 104.5910358  76.9491291  97.7968234   5.9634722  71.5201187
  98.0776566   5.1667727  71.9702625  98.3712787   6.6477812  71.8635559
  20.4314310  42.7570771   3.2022337  20.3224594  41.8238496   3.3851294
  21.3210280  42.8311490   2.8567557 102.7295602  34.9242734  24.0001158
 101.9466651  34.8898172  23.4504656 103.4507335  34.7271680  23.4023814
  12.4893553  35.1145791  38.4452395  12.7827437  35.1591539  39.3552737
  13.2972414  35.1300668  37.9320960  17.0502932  41.0795926  14.7127680
  16.3173325  40.7186841  15.2115111  17.3042042  41.8662118  15.1954607
  27.3130584  98.5925865  65.5785704  27.6000762  99.3045330  66.1503983
  26.6128826  98.9766788  65.0508785  70.2777338  75.2974415  85.5710030
  70.3334761  74.6124363  86.2372589  69.3467426  75.3449917  85.3536797
  10.1397586  86.4453697  93.3081627  10.8988369  86.0699463  92.8619671
   9.6046895  85.6888580  93.5482121  89.4298190   8.5325659  65.9716034
  88.9372605   8.1303919  66.6870594  90.3196258   8.6206187  66.3132477
  95.8405322  40.7473124  72.5277805  96.7692632  40.9616698  72.4397612
  95.4699344  41.4833868  73.0146837  15.1193506  66.3398408  43.7745146
  15.9911472  66.7294168  43.8410716  15.2359135  65.4389619  44.0762572
  14.4080687  92.1379852  81.8613148  15.3192496  91.9211769  82.0587254
  13.9183009  91.3492870  82.0943546  45.6248569  94.8898315  73.8627434
  45.3592920  94.0024853  74.1042471  45.0017643  95.4579735  74.3157434
  33.6854489  24.1037797   7.3046259  33.3880837  24.1603946   6.3965563
  34.6368916  24.1939306   7.2511534  75.2916855  14.0137995  93.2746315
  75.7348794  14.5417059  92.6104641  75.9941501  13.5159148  93.6928272
  98.3309353  26.6858053  22.2611384  97.5153697  26.5862512  21.7700343
  98.2615793  26.0488366  22.9722647  55.5348969 109.6686840  67.3935604
  56.0372782 110.1716137  66.7525387  56.1822939 109.3935585  68.0427265
   3.3467248  32.1776271  73.6733341   3.1602398  31.9654751  72.7587605
   3.0972934  33.0975437  73.7614775  76.4080895 102.6675289  95.3438282
  77.0670544 102.9981588  95.9543037  76.1491016 103.4342181  94.8326111
  94.7645097   9.2464405  76.5146494  93.9289194   8.8901472  76.8164349
  94.5600062  10.1422012  76.2462807 108.7349235  14.8506129  85.8209705
 108.6941641  13.9714539  86.1973381 109.5278125  14.8450732  85.2847576
 113.3284071  40.9509182  91.0395432 112.4854806  40.5789328  90.7800484
 113.5213458  40.5416250  91.8830395  10.4577339  26.9934344  85.8629608
  11.1563456  26.3618970  85.6916904   9.6503264  26.5127826  85.6804848
   0.7959156  30.1978898  61.8311357   1.3848230  30.3994298  61.1039495
   1.1086507  29.3578148  62.1668482  10.5628192  21.7765450  52.0790863
  10.0571799  22.5879955  52.1250057  10.8547795  21.6250753  52.9780006
 105.7150334  53.7337017  63.9368486 106.6626113  53.6597490  63.8234568
 105.3991919  52.8305578  63.9083290  80.9285408  37.1722102  73.3886719
  80.8816844  36.2165952  73.3597422  81.3526874  37.4162316  72.5660038
 110.9641922   1.9757413  11.9270377 110.7948816   2.2502708  12.8282599
 111.3103211   2.7588796  11.4991145  62.5296675 101.9021790  89.3383503
  62.8816628 101.3229518  88.6624622  63.3020782 102.2295176  89.7992897
  17.2852391  88.5845457  16.8089537  16.4435309  88.8091312  17.2055869
  17.9273051  89.0903817  17.3070578  30.1447088 108.9448796   8.2436232
  29.9209964 108.0376874   8.4514384  30.4825854 109.3023787   9.0647559
   0.0876162  43.9706945  45.3424883  -0.1230819  43.9039469  46.2738228
   0.2677146  43.0701828  45.0725317   9.1689354  23.9934850  88.4531021
   9.3326151  24.2365336  87.5418568   9.5724666  24.6949792  88.9642811
  21.1727118  81.5240383  82.6826859  20.5330682  80.9201241  82.3053646
  20.6455159  82.1595001  83.1669235  22.3749900  62.7158880  68.8525248
  23.2856750  63.0096865  68.8763285  22.4271250  61.7656374  68.9551830
  61.4663470   7.5718974   7.8172259  61.1809886   8.4830999   7.8843455
  61.8536723   7.3787021   8.6709742  37.5393814  80.7975136  13.0245070
  38.1896413  81.4135276  12.6869826  37.8562293  80.5697881  13.8985686
   1.8100733  77.8379617   1.2209944   2.0914835  78.7024127   1.5206103
   2.0155376  77.8298794   0.2861456  93.5644799  22.6780295  84.9893379
  93.2562762  21.7734122  84.9354076  94.0545827  22.7155232  85.8106899
  71.2850756  94.6448956   6.5521101  72.0811433  94.1173135   6.6166453
  71.5392322  95.5041276   6.8887953 104.7153526  24.6577311  51.7313290
 104.1160804  24.8404264  52.4550152 105.5807214  24.6258044  52.1391869
   9.3464983  63.0639696  74.5467949   9.4713038  63.1663227  73.6033010
  10.2262843  62.9054546  74.8889685  80.3542713   9.2726516  20.0777964
  79.4421268   9.5534992  20.1509337  80.3624146   8.6781501  19.3276362
  60.0874466 104.2342768  12.9577879  60.7614464 103.7980185  13.4789805
  60.5373377 104.4945918  12.1540122 107.6106739  40.0356007  81.2688446
 108.2036292  40.6112576  80.7858849 107.7780157  39.1640592  80.9101868
  36.9692063  52.0630217  72.4715328  36.3515782  52.1116590  73.2011890
  36.5305996  51.5126181  71.8227530 104.2985349  50.4535961  58.1939411
 104.4147497  49.5383406  58.4489441 104.3567925  50.9405136  59.0159798
  55.7999075  14.4752168   6.8969206  56.0832298  14.6033334   5.9916262
  56.5920556  14.6098136   7.4171214   1.2089842  27.1345377  86.2298489
   1.6658455  27.0333672  85.3948212   1.8354964  27.5903320  86.7919540
 107.1036398  43.1662416  80.7852173 107.9856759  43.3902931  80.4884911
 106.5907949  43.0956459  79.9800825  38.6899963  95.5725585   8.4705119
  39.3196630  95.9945212   7.8859572  37.9669752  96.1965762   8.5343413
  21.0485888  12.2910285  47.4425602  20.5548930  13.1104922  47.4737835
  21.6636777  12.4094057  46.7187643  58.4415108 101.9657574   1.6565470
  58.5638064 101.0197697   1.7364172  57.5084382 102.0718346   1.4711909
  95.9989267  41.7323256  64.9084473  95.1674276  42.0613527  64.5670033
  96.3071399  41.1206055  64.2398405  17.3011846  78.9238010  25.0623087
  16.8432492  78.6443601  24.2695670  17.1042174  79.8576031  25.1361231
   0.7165962  32.7477336  84.2089081  -0.1818344  32.5876617  83.9200592
   1.1200227  33.2245421  83.4835529  -0.2265442   5.1217651  85.2760792
  -0.1976676   4.9749589  84.3306446   0.6807029   5.3087801  85.5172348
  62.7621907 106.0136424  17.9596381  63.3031267 106.6816865  18.3807616
  61.9760412 106.4829884  17.6805071  35.6891870  69.8307800  81.0769653
  35.2535486  70.6761932  80.9686661  35.9964657  69.8340702  81.9834995
   1.1315577  66.3914919  59.5641375   1.4801212  65.5133200  59.7175980
   0.7118481  66.3359451  58.7056589 105.2381199  43.2959795  85.3633404
 105.4664629  43.3038187  84.4338036 105.0289589  42.3809290  85.5508804
  25.6616473  53.5939217  76.2744904  25.8301139  53.8599396  77.1784163
  26.5219402  53.6120033  75.8552074 116.2369469  17.1670735  84.8577023
 116.6658591  17.8098893  84.2928505 116.8017962  17.1107721  85.6284237
  13.2954621  29.8299217  84.4741154  13.9804924  29.3004918  84.0658665
  13.7684190  30.4315448  85.0490856  93.2052236  40.2228165  73.1245327
  94.0001565  39.9013758  72.6991034  92.6156145  39.4687963  73.1314325
  28.5602665  96.0802269  85.4527760  29.3186760  95.5154228  85.6012154
  28.3281350  96.4032555  86.3234138   8.1901920  37.4603724  46.6526651
   9.0214896  37.2363019  47.0709562   8.1565338  36.9048524  45.8738852
  86.7438370  42.6872110   0.3271822  86.7991919  41.7470693   0.1559977
  86.0209281  42.9886865  -0.2230402  49.1021818  49.3348108   6.0699706
  48.7144894  48.7554793   5.4140048  48.3520281  49.7143082   6.5276675
 109.2518866  39.3458223  76.8749237 109.4155162  40.2839947  76.9713211
 109.6066391  38.9574075  77.6746225 116.1432202  26.8122673  81.4011192
 117.0311136  26.4822102  81.2634945 115.6151297  26.3607836  80.7427025
  47.7619398  87.7643691  11.9491248  47.6896608  87.3184429  11.1052374
  47.2301901  88.5539709  11.8491034  20.7331300  53.7920189  83.9567184
  20.4985166  54.7197771  83.9780140  21.6902041  53.7872791  83.9418125
  22.7608275  61.3588238  94.1327858  23.3940983  61.8219233  94.6811867
  22.5847960  60.5451202  94.6051502  91.0923629  11.7747712  77.6117611
  90.3343683  11.2348473  77.8357172  91.8453460  11.2692344  77.9178333
  24.3344879  51.0427141  79.5416784  24.3827558  50.3808117  80.2314568
  24.1491246  51.8591356  80.0057030  54.6895796 107.8047953   4.2326788
  53.8359100 107.7610741   4.6634535  54.5069033 108.1953965   3.3781104
  92.7360201  11.9547128  10.0238089  92.1398592  11.2819003  10.3526644
  93.5203111  11.4725065   9.7618918 110.2312887  20.1969146   2.2405295
 109.5907653  20.3907632   2.9249148 111.0766208  20.2251958   2.6886897
  12.8489709  53.1708622  95.4052639  12.7931511  52.8681469  94.4989109
  12.4198329  54.0264511  95.3988934  10.9033126  79.7808514  13.1195025
  10.8210296  78.8354264  12.9944567  11.7111510  80.0135694  12.6618247
 101.2145262  56.3394165  84.6992683 101.0869199  57.0498133  85.3279781
 101.6979426  55.6722689  85.1865578  12.4796534  22.7469778  58.9139080
  13.2225418  23.1236267  58.4422302  12.4053681  23.2778907  59.7069073
   3.4189978  70.8882046  61.9290733   3.5243362  70.3245068  62.6954794
   2.5114691  70.7539654  61.6559362  33.8109571  98.2252274  10.9485392
  34.2515484  98.6409961  10.2074294  34.4404233  97.5797139  11.2699656
  54.5707554  86.8033825   7.7369074  54.8674220  86.8958031   8.6422686
  54.2277545  87.6671754   7.5079016  86.4514381  39.9170923   0.2412562
  85.9463942  39.3542527   0.8280901  86.2728000  39.5724630  -0.6337018
 114.7953100  67.3927164  93.2720089 115.7451947  67.4173737  93.1564999
 114.4525769  67.2048140  92.3982430  93.8170748  69.3933105  89.8763275
  94.3427377  70.0498533  89.4193172  94.1895681  68.5551929  89.6023846
   5.9607768  27.4855399  61.8050051   6.5171820  27.0116639  61.1868763
   6.3522214  27.3122072  62.6611376  37.1473277  73.9566253  28.6281828
  37.4838568  73.1098865  28.9214568  37.9289507  74.4564663  28.3926920
  32.1204460 106.8826924  30.6031661  31.6490209 106.7426072  31.4243655
  33.0400205 106.7404471  30.8276228  44.4702566  72.9046033  11.3394122
  44.5047856  72.3297165  12.1039633  45.0862247  72.5150929  10.7188468
  29.2496228  49.4367027  79.7232962  29.9394131  48.9369011  79.2866993
  28.9975023  48.8945103  80.4707527 108.3291281  17.4945163  11.2860827
 109.2731488  17.5278568  11.4408164 108.0834306  18.4023093  11.1078219
  16.5196955  21.3580227  58.3793974  15.6853533  20.9550881  58.1390905
  17.1774399  20.8450961  57.9098129  17.5681198  43.8561726  89.6635723
  17.7527809  44.6947050  90.0866508  16.7499483  43.5612249  90.0633717
  23.4715575  68.9303909   4.7943835  22.8234977  69.0072666   4.0941481
  22.9709238  69.0619276   5.5995516  42.7834448 107.1669350  30.8636145
  42.9456529 106.2237607  30.8451132  42.0917502 107.3037444  30.2162508
   2.1189195  39.1116858  38.1833506   2.3487407  39.6201849  37.4056315
   2.9357976  38.6835957  38.4396291  43.5589442  73.4838699   5.9533362
  43.4916479  72.5547550   6.1734538  43.4951529  73.5090588   4.9986033
  94.2650538  34.5169997  86.0362434  93.8998466  35.0492859  86.7430115
  94.7908955  35.1297116  85.5221367  91.3435846  76.1570835  87.2316265
  91.4515286  75.6147909  88.0129623  91.3520747  75.5342960  86.5047836
  21.3422293  80.3867994   1.0106616  21.6192311  79.6543513   0.4601912
  21.4665371  80.0735055   1.9065527  17.3340797  10.5197573  66.0392904
  16.5541887   9.9658239  66.0733414  17.3488259  10.9649611  66.8865252
  91.7702513  26.1551285  69.9039602  92.1036797  25.3224492  70.2381754
  91.0156995  25.9128475  69.3671322  77.5050026  60.7519674  54.0756845
  77.5180536  61.3438463  53.3235264  77.4862605  61.3321972  54.8367500
   5.2757144  66.9874144  84.1199303   5.5340827  66.7576170  85.0124931
   4.9408662  67.8813791  84.1901588  37.4674892  22.2614360  75.8630610
  37.1127772  22.1511436  74.9808788  38.0471158  21.5093303  75.9839106
   1.6826507  26.4793563  94.8043633   1.5937085  25.9115291  94.0389252
   2.6137421  26.4421821  95.0232697 106.2808304  33.2860637  58.8841629
 105.6307226  32.7349257  59.3198681 105.7852667  34.0466928  58.5806990
  54.3591017  75.7417355  20.3357462  54.3950135  76.5799914  19.8750166
  54.8105818  75.1295410  19.7547011  33.3907682  90.6048165   8.0088477
  34.1996485  90.2596579   7.6309447  33.5982394  91.5126000   8.2304625
  24.3165302  27.8936172  78.4803534  23.6820030  28.0500364  77.7809668
  25.1606941  28.1278348  78.0946589  38.8007510  16.4642667   2.0889239
  38.0787671  15.9369706   2.4308733  38.9047230  17.1703433   2.7267985
  20.6594920  46.2775135  94.2448425  21.0094523  46.7988348  94.9673271
  19.7645187  46.5971375  94.1304016   3.1924611  54.4454908  51.6502094
   2.3643537  54.1088200  51.3079786   3.4812498  53.7806416  52.2753572
   2.0390777  73.2754660  86.1521339   1.4108142  73.3773518  85.4371929
   1.5462330  72.8323126  86.8427467  72.1824175  20.0709820  47.0715523
  72.6602226  19.7612214  46.3021517  72.3081070  19.3826377  47.7247095
  98.8221842  48.8001537  76.2857389  99.2643851  48.8168287  75.4369688
  98.6457127  47.8730583  76.4456940   9.8309910  48.2963228  76.9722462
   9.3076104  48.7689543  77.6194906   9.9084008  47.4107742  77.3272848
 105.6045783  11.2542199   1.0249381 106.1951292  10.6693029   1.4996581
 106.1793793  11.7609309   0.4512839  95.5786877  27.7700400  85.4159546
  96.3296276  27.4040914  85.8832836  95.5540925  27.2893977  84.5885372
   3.8261473  20.2583981  87.7823925   3.6621827  20.7273960  86.9642258
   3.0558264  19.7021186  87.8981018   5.4975128  80.3849506  70.5277586
   5.5263293  80.4143143  69.5714426   4.6127325  80.6749821  70.7497406
  76.9281215 102.6111661  11.6806368  77.3663920 102.2435532  10.9131674
  76.9124001 101.8936930  12.3140482  51.8401164 101.8466101   3.1166796
  51.8995160 102.2447215   2.2482256  51.8791789 100.9045802   2.9515032
 101.4185124  75.8098793  80.4096794 101.9975429  75.7466173  79.6501064
 100.6530684  76.2863827  80.0883198  47.6253569 103.7419997   8.6509661
  46.6901124 103.8344775   8.4693198  47.6658201 103.1547223   9.4057517
   6.2571698  54.9743605  75.7401466   5.3739375  55.1593018  76.0594130
   6.6832685  54.5175982  76.4654350 108.7373846  52.9453611  86.5283489
 108.8270056  53.1873035  85.6065750 108.9841777  52.0210123  86.5584469
  31.0293555  75.3756571  79.6966314  30.2934194  75.9863091  79.6549654
  30.6620860  74.5844936  80.0908470 110.4599875  76.3048935  60.9594059
 109.5065051  76.3888836  60.9663963 110.6989109  76.2108517  61.8815231
  22.2409320  46.1981344  91.9380283  22.0215297  46.1003590  92.8645992
  21.3938022  46.2543726  91.4959335  30.8190966  65.7629776  53.5787439
  30.5741525  65.3245735  52.7638578  31.5787268  65.2738523  53.8948965
  26.2234259  70.5643129  70.4740906  27.0052814  70.8695364  70.9342766
  25.9943628  71.2849045  69.8871422  45.3410912  66.0171080  83.7271690
  44.4060326  65.8670330  83.5879803  45.7436275  65.8214760  82.8810501
   1.6931456  41.1517429  86.2744331   1.4321068  40.6493235  87.0462227
   2.5443912  41.5227175  86.5067863 103.8339120  25.6053615  75.1950979
 103.1132715  26.0558414  75.6355286 104.3632012  25.2466941  75.9074497
  41.8715012 105.0542079  28.2549624  41.3102558 105.8289491  28.2867579
  42.5076711 105.1903353  28.9570956   4.8417953  76.2228394  90.4686356
   5.3836989  76.9752550  90.7062244   5.4693294  75.5475712  90.2108669
  68.3806472  28.9781618  89.3274975  67.6929813  28.4275150  89.7018433
  68.2341009  28.9351201  88.3825684  99.6317189  51.9560051  56.3051796
 100.1894992  52.2166157  57.0381165  99.8165494  52.6009083  55.6224108
  27.0403671  60.2631903  63.9027262  26.7531514  60.4679632  63.0128908
  26.2776518  59.8552179  64.3126726 102.6985329  78.7980318  62.1588135
 102.4269098  79.2371798  61.3528299 103.4439951  79.3106985  62.4713659
  33.1113494 102.0722447  21.1059527  33.2593244 103.0085479  21.2389044
  32.3207116 102.0287095  20.5681567  17.9616666  63.5442495  54.5043373
  17.7031314  62.9070282  53.8385010  17.1450067  63.7700510  54.9496603
 107.1917880  15.0402831  10.6367163 106.2475431  15.1428365  10.7555346
 107.5451219  15.9221124  10.7540469  40.9468031 109.7159587  27.2414546
  39.9979071 109.8390065  27.2152380  41.3000073 110.4791270  26.7842345
 113.9330604  65.3792381  72.0297766 114.0027946  65.7491827  72.9098368
 114.3161213  64.5053673  72.1062565  14.7103333  22.0046687  70.6235218
  15.3232014  21.3705134  70.2514029  15.2380216  22.5163937  71.2366390
  22.8959853  75.2314244   7.1858458  22.1231073  75.0476466   7.7198081
  23.3731061  74.4019650   7.1616129  46.1122233  87.2975646  20.1906352
  46.1476320  86.7588006  20.9810214  46.1855829  88.1968342  20.5102782
   2.0461977  34.5182896  86.6571712   2.1772994  35.4664660  86.6586208
   1.3891374  34.3683863  85.9774399   1.2361768  75.0208330  39.0615869
   0.8656590  75.6775570  39.6512151   0.7970738  75.1749945  38.2251334
  26.6615605  28.5723519  77.3171186  27.1648574  28.2522464  76.5684843
  27.3146248  28.9722610  77.8914118  32.3596662  99.5692168   6.8855910
  32.2972465  99.6363173   5.9327940  31.4714545  99.3526326   7.1691470
  84.6759868  13.5307931  15.3044657  84.1310841  13.8423013  16.0271506
  84.0603191  13.3835935  14.5864729   9.7942871  55.4414129  89.4506454
  10.2928329  54.7786665  88.9726925  10.2595592  55.5381012  90.2815533
  67.8117848   4.7674083   1.3260417  68.7089902   4.9294137   1.6175990
  67.7137542   5.3070306   0.5415492  30.0729680  63.6037207  46.0020447
  29.3236423  64.1940546  46.0811281  30.8353376  64.1825199  46.0060692
  55.7196987  38.8952398  12.0426135  55.8422983  38.4041261  11.2302069
  56.5992391  39.1890382  12.2799353  19.8743165  44.3920517  52.7263069
  19.6816087  45.3239059  52.8299665  19.5840764  44.1848183  51.8380213
  93.1973791   3.7107181  23.5675101  93.2842160   3.5573100  24.5083384
  92.8370452   4.5950269  23.5012869  19.1629171  37.0573545  76.1424637
  19.5051682  37.4835896  75.3567028  19.8194861  37.2342277  76.8161583
  84.6193891  90.2373981  91.2154102  84.7695857  90.3900528  92.1483421
  84.6770602  89.2871380  91.1158657 106.1747568  51.4050055  93.0660534
 105.9286981  51.2549114  93.9788246 105.4481810  51.0422516  92.5593662
   1.3379032   4.4822263   3.3699755   1.5052492   5.2409744   3.9290194
   0.4720170   4.6462964   2.9964022  14.5810759  60.2009964  90.3077221
  14.8505235  61.1119461  90.1902390  13.7713397  60.2543116  90.8153820
  89.4960630   8.1284618  13.1154494  88.7505043   8.7286615  13.1036810
  89.1028083   7.2595882  13.1969218  19.0628386   9.8825133  77.6344633
  19.5436573  10.0464833  76.8231964  18.9929414  10.7422650  78.0494022
  11.3432848  97.2298908  78.0961609  11.6543746  96.6005611  78.7468481
  11.6150904  98.0817509  78.4377813  10.7013857  38.1967282  63.4666061
  11.0410416  38.6647987  64.2293453   9.7519070  38.3042216  63.5228777
  93.8048607  72.4974728  83.6682129  94.7313362  72.2637987  83.6110306
  93.5863381  72.8256416  82.7959824  87.0268852  19.7506999  29.4707255
  87.0920551  18.9231920  29.9474005  86.2508852  20.1765107  29.8350672
  15.8162665  84.4522667  90.2360821  16.7511809  84.2849350  90.3551102
  15.5923951  85.0679588  90.9339714  12.9819763  52.5129318  81.8175697
  12.5495601  52.0566082  82.5393867  13.8414383  52.0967388  81.7517090
  92.9851389   7.0196199  53.8677935  92.4043477   7.5508260  54.4125227
  93.8248909   7.4782085  53.8950591  49.1826683  81.6097532  12.6510863
  49.3862277  81.2518273  11.7869811  48.4917206  82.2517286  12.4877219
  16.8030757 100.4376231  21.4606051  16.6203541 100.2972327  22.3896555
  17.1861071 101.3139783  21.4215998  47.6871872  74.6286249  71.5818739
  48.3612347  74.9860859  71.0038519  47.7627850  75.1436472  72.3851585
   8.6824650  77.4119329  63.8643026   7.9208612  76.9949436  64.2671824
   9.1931033  77.7429390  64.6031618  34.0347701 109.3015776   8.6088995
  34.9874306 109.2429457   8.6812357  33.8829786 109.6735345   7.7400832
  56.4457947  92.2302280  35.7402186  56.6949386  92.5811420  34.8852210
  55.5581123  92.5581060  35.8842616  44.4614077  59.2906904  90.8622932
  45.0764608  60.0193501  90.7786369  45.0118732  58.5349798  91.0675335
   4.3659100  75.4187918  65.2942419   3.7353998  75.4168653  64.5740414
   4.0479282  76.0979176  65.8891392 111.0911607  83.7458611  76.1078262
 111.5789544  82.9222775  76.1085892 111.5300834  84.2835903  75.4487085
   2.7388301  66.4393139  72.3120928   3.5871279  66.8228149  72.5346804
   2.1662354  67.1924543  72.1666908  11.2452126  39.5531082  67.8920126
  11.6940498  40.0524282  68.5742569  10.3163421  39.7362852  68.0329990
  20.3097868  67.7970552  75.3429317  19.5256746  68.0411053  75.8347082
  20.4408073  68.5184860  74.7276258 104.5524257  90.8779240  86.9255352
 103.9350682  90.1782703  87.1390629 104.2302912  91.2376118  86.0990429
  29.7790956  51.9421387  52.8576612  29.2305136  52.0254326  52.0776939
  29.9125195  52.8425074  53.1539106  12.6373053  51.4536381  68.6405134
  13.3689415  51.6532278  69.2245579  13.0017388  51.5451908  67.7601528
  30.2867389  71.5162945  80.8779335  30.2331781  71.3800383  79.9319983
  29.6535707  70.8993816  81.2450123  99.5739573  55.0690889  77.8885508
 100.4862278  55.0878286  78.1777573  99.0667551  55.0206375  78.6988783
   8.5415971  55.5904102  77.8014612   7.8934568  54.8900652  77.8767395
   9.2806709  55.2906704  78.3307648  57.0652098  88.4971605   0.6211619
  56.3725609  88.8894854   0.0896029  56.8207544  87.5742541   0.6898264
  83.8175589  31.4391279   7.8579669  83.0467707  31.7563485   8.3285956
  83.4983456  31.2497854   6.9756464  15.2426004  50.1086569  86.6700935
  15.1673079  50.6464291  85.8818245  15.9850657  49.5303154  86.4954662
  27.8841114  54.2621326  51.9089270  27.3687291  53.4570551  51.9585180
  27.9063964  54.4751692  50.9759998  68.2493258  62.9109430  90.0447655
  68.6850309  63.5283279  89.4572067  68.1945372  62.0988607  89.5410347
   9.6350777  33.6858988  93.8792610   9.2392522  33.8769221  94.7295952
   8.8969165  33.4419346  93.3208466 105.5363291  56.1794806  90.2973652
 105.7390552  57.0505714  89.9562836 105.8882051  56.1829472  91.1875343
   2.7113041  75.3705788  92.3206139   3.4520194  75.5050468  91.7294312
   2.7088687  76.1460400  92.8817558   2.5341538  62.2020960  48.4593153
   2.8809679  62.2718525  47.5698853   3.3046478  62.2717667  49.0229750
  76.7013794  74.0983582  94.7982788  76.6703754  75.0349998  94.9931526
  76.1168056  73.7000656  95.4431534  90.4341430 101.7308293  13.0722193
  91.0835332 101.4793359  12.4155001  90.1070851 100.8996163  13.4162287
 114.5525982  53.1414175  53.8360882 114.2714685  53.7208843  54.5441914
 114.2618468  53.5810804  53.0370903  13.8068998  58.3712101  92.3554134
  13.5557270  57.4548531  92.4713421  14.3544698  58.3719921  91.5703106
  26.0099077  73.5448551  72.7887392  25.3810787  72.8495789  72.5953531
  25.5405998  74.3547344  72.5885487  33.5117507  50.2783442  69.0710211
  32.7039862  50.2826595  68.5574722  34.2082238  50.3832865  68.4228373
  19.0895307  53.4534311  93.1784916  18.6146033  52.7496910  92.7364254
  19.4438136  53.9869690  92.4671173 113.2883626  55.4212141  94.6845150
 113.6227625  54.5357323  94.5419598 114.0521615  55.9226322  94.9698734
  16.8542790  72.3268175  84.3504906  17.3442948  71.9325829  83.6289024
  17.4301314  73.0152845  84.6831131  51.3692647  99.1383277  17.1703581
  51.4941603  98.2052289  17.3434405  50.4309243  99.2275010  17.0036273
   7.4532688  68.2402134  85.6352997   6.8158114  68.6836910  86.1949444
   7.5909859  67.3911762  86.0553074 115.7658193  63.3104944  72.0976830
 115.7539358  62.4326086  72.4790096 116.6174309  63.6688042  72.3478937
   5.2189636  49.4525671  68.9259148   5.0841230  48.5890961  69.3163824
   5.5299973  49.9966717  69.6494055 103.6960118  59.6757507  78.8887358
 104.5457500  59.4493008  79.2667532 103.3920830  58.8653421  78.4799671
 116.0627848  79.7364140  82.6573563 116.5829069  80.2674770  83.2604122
 115.2063612  80.1635647  82.6396751  48.0676126  90.3533649  69.4758749
  48.8200474  90.4454517  70.0603294  48.4284592  89.9608898  68.6808968
  30.1332760  89.0865040  76.5469837  29.7462773  88.2134533  76.6121864
  29.4736266  89.6072960  76.0888624   6.4463037  66.0628223  91.7638016
   6.4656824  65.1139069  91.8879509   5.5527246  66.3164234  91.9949627
  24.4545817  20.8462381  91.5009594  24.1873837  20.5702853  90.6242085
  23.7703466  20.5067325  92.0778370   8.6498052  51.2422895  60.2433538
   8.3121443  50.4615736  60.6823254   9.5638484  51.0327101  60.0514317
 112.7584525  55.4718018  76.6174555 111.8431907  55.4341745  76.3397646
 113.0877238  54.5838881  76.4780903  34.8599672  78.7536287  81.1712646
  34.8604846  78.1628466  81.9244003  33.9550281  79.0588760  81.1069202
  97.9781168  64.7980499  55.1947737  98.1222432  65.0266361  56.1130381
  98.5861319  65.3567314  54.7105980  17.8216696  48.6378098  86.4532852
  17.1605337  48.0659437  86.0632896  18.3159363  48.0664492  87.0410633
  33.7984681  59.3244028  75.9075260  33.1611395  58.6264420  75.7562256
  33.9163709  59.7312880  75.0491714 106.5029245  41.7934847  75.4205656
 106.0220342  41.2975121  76.0831308 105.8830684  42.4595118  75.1232147
  29.3897223  63.1706476  76.3326454  28.6555123  62.5727987  76.4731550
  30.1476097  62.5969172  76.2200737  15.7361543  79.4891596  74.2658901
  15.5982292  78.7942839  74.9095964  15.9272552  80.2668571  74.7901964
   9.6407151  47.6596069  64.5435715   9.2190796  47.0459890  63.9419699
   9.1213375  48.4604359  64.4718361   0.4225548  77.1409321  85.7505608
  -0.2960520  77.1931410  85.1203918   0.2115278  76.3803101  86.2919998
  27.8075504  69.5351982  83.3470058  28.1447792  68.7335825  82.9470921
  27.4937963  70.0574923  82.6087666 113.0450284  55.5355930  68.5865736
 113.6480349  55.0504017  69.1497850 113.3714055  56.4352417  68.6051035
   6.4066404  22.2206569  58.2169390   5.8018661  21.9603038  58.9117002
   7.2712129  22.1849799  58.6261749  11.3285601  51.9445753  84.6344852
  10.7188010  51.2078238  84.5942020  11.5881503  51.9905949  85.5546665
  72.7831798  51.2645006  88.4019184  73.7336641  51.3422251  88.4842110
  72.5894457  51.6076040  87.5295734  16.9091952  65.0123596  80.0988293
  16.1118710  65.5211878  80.2458000  16.6949391  64.4385004  79.3632984
  15.1384425  49.0405941  90.0687027  16.0829937  49.0386248  90.2237892
  14.9428844  49.9360752  89.7928429  78.9454323  46.7521858  75.6594181
  79.3062287  46.9540882  76.5227222  78.3232933  47.4592638  75.4885006
  17.6769001   4.3303966  12.3052649  17.9960663   3.5669946  11.8240408
  16.9309408   4.0023040  12.8073935  93.7279499   1.2179612   2.6089243
  94.4378877   0.6815051   2.2561793  92.9995430   1.0794210   2.0035605
  62.4306965  19.8323249  25.3405146  63.0719006  19.1289377  25.4421954
  62.9540527  20.6041335  25.1245551   0.6627157  30.6163883  73.5424280
   0.9093730  30.5736637  74.4663143   1.3686958  31.1130881  73.1287718
  34.8724794  46.7071342  78.5200548  34.1852570  46.1517143  78.8881111
  34.6229267  46.8209743  77.6029968   8.7420285  45.8360243  75.0361252
   8.1764627  46.3980532  75.5657339   8.1463522  45.1963806  74.6459246
  59.4779200  72.8671227  16.1328749  60.1087326  73.5625921  15.9467844
  59.5826191  72.6927875  17.0682196  38.9848401  86.5026985  13.8441710
  39.2860299  86.5670691  14.7504668  38.0891282  86.8395959  13.8649516
  12.3930883  46.8071985  74.5455503  11.6408718  47.1640873  74.0732861
  12.0593286  46.0126972  74.9622107 105.3090053  34.9178433  21.6716123
 104.7808510  35.5371737  21.1679125 105.9328216  35.4664159  22.1471691
  43.2764864  57.7832699  78.7488461  44.1184425  57.9823971  78.3393478
  43.1545734  58.4780359  79.3958950  84.9340349  64.2625427  88.0878544
  83.9940577  64.4291067  88.0176449  85.3087526  65.1067305  88.3391666
 103.5130935  90.2464771  67.9587841 104.4083565  90.0595951  67.6762819
 103.2852405  91.0605145  67.5097227  71.3001687  15.0601577  18.1739001
  70.7395441  15.5701541  18.7585597  70.7056368  14.7284316  17.5010542
  35.8039689  48.7679386  95.1063824  36.6004181  49.2209101  95.3833580
  35.7007289  49.0066338  94.1851807  78.3944125  10.3895807   3.9342551
  78.9239118   9.6503257   3.6353068  78.1790345  10.8689594   3.1342272
   1.7429121  74.7637987  71.1322260   2.3261140  74.3848133  71.7898560
   2.3036112  74.9092627  70.3701973   8.6253560  56.9681644  80.1052856
   8.9135480  56.5980148  79.2709208   7.9222530  57.5731182  79.8688316
  18.0026972  36.5446901  81.0235882  18.8100493  36.7940855  81.4732742
  18.2652473  35.8371472  80.4347897   9.7797292  32.9320455  73.9102459
   9.0594375  32.3017192  73.9001894   9.9007386  33.1721401  72.9915810
  31.9194770  13.3356690  77.4649429  32.1842408  13.2345295  76.5506649
  31.2082720  12.7053523  77.5794744  86.4005619  66.5074062  83.2185555
  85.8593374  66.1429739  83.9189053  87.1999365  66.7958546  83.6590481
  22.9498410 104.5123768  91.7367268  22.4790192 103.7602425  92.0956802
  23.4978294 104.8189449  92.4591923  52.0617426  16.8548440  10.5758242
  52.5989259  16.2625026  10.0497012  52.6734674  17.2385978  11.2041144
  36.5348804   2.5204229  13.2252268  37.4829996   2.4098205  13.1540160
  36.1856449   1.6305112  13.1770567  40.3198576  56.8610573  41.1590338
  40.3055191  57.3907614  40.3618860  39.9570060  57.4344301  41.8341684
  86.9953645  22.0009851  14.4248442  86.6416425  22.8890466  14.4744353
  87.8035158  22.0361470  14.9365954  19.2877245  90.1624393  63.4197378
  20.0838566  90.4097366  63.8901043  19.5939791  89.9013233  62.5512552
  34.7258115  63.1665707  71.0060835  35.5193329  63.0120373  70.4935646
  34.0648961  63.4082985  70.3572464  58.7202841  96.3237534  24.4953303
  59.0985531  96.1738025  25.3617339  58.9765245  95.5550204  23.9858012
  24.7479248  58.3401299  88.2764435  24.6765375  57.3983908  88.1206894
  25.5989623  58.4488678  88.7008762  18.2024467  51.2605810  86.0694981
  18.1861520  50.3694248  86.4185047  18.9524841  51.2712622  85.4748917
 102.2975176  93.4119034  90.5541325 101.4586275  93.6746788  90.9328651
 102.2332650  93.6625671  89.6325684  75.5687134  31.8657254   2.6905970
  75.0675860  32.6803922   2.7281622  75.9801281  31.8772268   1.8264060
  97.4970823  66.1458588  91.1617851  97.0553129  66.8155432  91.6838837
  97.9690557  65.6147861  91.8032169  45.3699410  66.8818807   8.5329299
  46.3163007  66.7412137   8.5038237  45.0518000  66.2399911   9.1677432
 107.0389997  80.3197384  89.9046707 107.5874501  80.0841904  90.6529713
 107.3662686  79.7767639  89.1875267  37.0715757  72.3367105  24.6025710
  36.7102865  72.9926835  25.1987319  37.4019061  71.6465030  25.1776652
  90.8425474  29.6262597  36.3153986  89.9781549  29.8287057  35.9575228
  91.4569223  29.9878835  35.6766371  51.2568098 103.3628140   9.8196272
  50.8636028 103.4382163   8.9501814  51.0728294 104.2031585  10.2393965
   5.4977429  16.5396774  81.8085670   5.0503981  17.3599315  81.6004848
   5.9747523  16.3174915  81.0089874   4.0927127  22.4895668  78.8441944
   3.5503909  21.7237806  79.0331125   3.8562599  22.7357888  77.9499388
   2.5896263  82.2724152  60.4699707   2.3022977  81.3624573  60.3948402
   2.2547925  82.6953697  59.6792603 115.2226519  91.6816579   5.1829581
 114.5742249  92.1852122   4.6908144 115.9489226  91.5632902   4.5707945
  28.2037282  55.5552530  38.6238170  28.8973236  55.2457428  39.2063618
  28.4273481  55.1877260  37.7687454  94.4860840  31.3870382  10.8468012
  95.3689671  31.2323808  10.5108981  94.2409718  32.2414636  10.4916625
  83.8800669  15.0895213  29.1401248  84.0026027  14.7186946  30.0140242
  83.0197800  14.7732782  28.8642172 117.0628733  32.4321270  69.9236822
 116.3312481  32.8595328  70.3689671 116.6689447  32.0255375  69.1518402
   3.2068157  62.7769279  74.9780321   3.4673604  61.9175959  75.3095436
   4.0080711  63.1417179  74.6023321   0.6693663  55.3640652  79.5238304
  -0.0880697  54.9180031  79.1449451   0.3813099  56.2696409  79.6386528
  21.8406844  50.4836893  82.5404263  21.3093591  50.5204678  81.7450809
  22.7069163  50.2115583  82.2374153 102.7337568  70.3610992  60.4835796
 101.8319278  70.1266623  60.2645445 103.1965523  70.3413630  59.6459246
 113.1309819  75.9586763  83.0212784 112.3417264  75.7101440  83.5024643
 113.2387024  75.2696514  82.3656368  46.3629711  63.0776916   5.5053286
  46.1826432  63.9964388   5.7043700  47.3145086  63.0355053   5.4103045
  81.1593289   9.6241807  17.1939139  80.4973770  10.2673101  17.4477629
  80.6698102   8.9496946  16.7230944  54.1242838  70.4522705  76.9839478
  54.6373320  70.8338976  76.2716436  54.1506624  71.1111403  77.6777983
  10.0357962  60.1714659  81.9760799  10.2439666  60.6855965  81.1959743
  10.7919598  59.5962667  82.0926571  13.4176958  24.3234563  68.5900688
  14.0263271  25.0408697  68.7664795  13.9070272  23.5328388  68.8174677
  74.0476677  14.4662999  10.8430342  73.6996088  15.3528785  10.7478194
  73.9488155  14.0756559   9.9747805  29.1649914  54.1238594  84.8477077
  28.9275146  54.9334431  85.2998257  29.0184379  53.4354210  85.4963970
  39.3832874  63.3763838  85.8965015  39.6031523  64.2694473  85.6312943
  38.7471437  63.0826283  85.2443790  33.4075570  38.7428498  92.3294163
  32.7198935  38.9591026  91.6996670  33.6777711  39.5879531  92.6886082
  43.5432607  97.4312793   8.2400469  43.2049656  96.6383467   8.6560301
  43.1918457  97.4034701   7.3501162  31.2363911  61.3960505  82.0043755
  31.0421252  62.0993423  82.6239491  31.1238766  60.5921316  82.5116062
   9.0202892  63.4023333  91.0364246   9.2199081  64.3294048  90.9063721
   9.2182183  62.9941750  90.1935387  81.6823989   2.1930360   1.1312632
  81.0380900   2.7204465   0.6590991  82.0502067   2.7905559   1.7823462
   0.1044989  52.2422647  81.2150955   0.8298895  52.5052738  80.6486416
   0.4801253  51.5772724  81.7920876  30.7840616  96.5704547  28.2168726
  31.7239726  96.5391074  28.3952479  30.7241213  96.7665826  27.2818999
  78.5190123  95.7043324  13.2530741  77.9951829  96.1992560  12.6230864
  78.2205552  94.8001729  13.1548457   3.1623137  64.7468853  68.5775805
   2.4699752  64.1042089  68.7320757   2.8038830  65.5697203  68.9102888
  14.7089005  53.9428949  88.1398010  14.8802590  53.6779070  87.2361088
  14.8767030  53.1547451  88.6564159  65.5380076  17.5403939  37.5272040
  64.6204776  17.3013054  37.3960166  65.6388611  18.3691512  37.0589976
  14.5871580  61.9589806  85.0928688  14.7716844  61.0624552  84.8128319
  13.7028193  61.9189501  85.4569817  98.3945006  86.1538887  84.2699051
  97.7261358  85.8818245  84.8987961  99.1857963  86.2688923  84.7960758
  41.0665633  77.8729187   2.5944094  40.8554959  77.5229393   1.7288546
  41.4533611  77.1338068   3.0638079   9.3251920  41.8449163  73.6045361
   9.0957409  41.2978220  72.8533602   9.4445342  41.2254620  74.3244457
  98.4362465  41.7596149  86.8785000  98.1637734  42.3753119  87.5588799
  98.8963550  42.3003244  86.2364960 108.5870790  65.9315920  52.1751499
 109.3548434  66.1208200  51.6357422 108.1405228  66.7739773  52.2600794
  10.5346096  47.7690601  49.7571898  11.0243058  46.9468975  49.7790241
  10.7700026  48.1658459  48.9185095   2.6125386  59.7081137  71.8423986
   2.8049260  60.5250883  71.3822079   3.3337861  59.6075773  72.4636269
  51.2763828 105.6235801   0.6714777  51.5594918 106.3206540   0.0797228
  52.0156449 105.4998217   1.2667899 109.7463875  71.4464760  71.2319899
 110.6177031  71.8426704  71.2405443 109.7850012  70.7683325  71.9064236
   6.4743740   9.1487264  21.3737254   7.1065027   8.5555267  21.7796378
   6.6342003   9.0624475  20.4339175  74.5309383  13.9699697  21.5969805
  74.2716861  14.6181440  20.9420828  73.7098953  13.7099504  22.0147280
  33.6168885  60.6619930  49.0610075  33.1697750  60.6381369  49.9070263
  34.4380188  61.1213732  49.2369318  84.1254216  39.6090603  73.2209873
  84.9871450  39.6240616  73.6374521  83.6532837  40.3392792  73.6211109
  91.7567449  57.3818874  70.4061985  91.9695192  58.0572414  71.0502958
  91.3450390  57.8591633  69.6858263  97.3660231  42.3027753  22.1351199
  96.8974293  41.4972925  22.3538641  98.2909716  42.0589875  22.1707587
  49.4595999  94.6061478   3.3497958  48.6707682  95.0838981   3.6061816
  49.6408326  94.9039183   2.4583296  98.0738264  66.8952608  52.8961897
  98.6898595  67.1014929  53.5991859  97.6281505  67.7233553  52.7176809
  48.2588577  72.6232576  81.3502789  47.8846741  73.0788279  80.5961800
  47.7654457  72.9558420  82.1000481   2.0062464  64.7495317  83.9796734
   1.3044757  64.6939754  83.3310890   1.9402619  63.9328194  84.4745064
  27.7023584  76.8880497  15.0173716  26.9589907  76.8888055  15.6203990
  27.5765878  76.1038314  14.4831328 101.4726031  14.2208432   2.7268176
 102.1620977  14.5872449   2.1731238 101.7507351  13.3197688   2.8909449
  19.4826841  20.8785725  71.0641956  19.9332857  20.8545280  71.9083595
  18.7500060  21.4791965  71.2008142  28.2568192  63.7113476  48.8531446
  27.6306391  64.0148401  49.5104265  28.3017945  64.4255400  48.2174206
  29.4957018  72.5881672  74.9293613  28.9823675  73.3642054  75.1540422
  29.6627569  72.6749611  73.9908552  17.4688578  46.3516617  57.3301411
  17.7521813  46.9112015  58.0532408  17.2627127  46.9616365  56.6218567
  25.8282423 102.3727036  81.2945843  25.9701991 102.4634838  80.3523350
  24.8779917 102.3058128  81.3882923 107.8326380  53.0573940  75.0116444
 108.3609425  52.4728107  74.4681454 107.9474508  53.9213276  74.6158266
 110.2885901  70.1984835  79.9833298 110.8750766  70.3054619  79.2344475
 109.9400424  71.0757685  80.1418209  86.3562727  25.1893567   7.4404196
  85.5571729  25.0645589   7.9523711  86.4957327  24.3482780   7.0052580
  92.1045953  61.6350794  76.5601683  91.5163069  60.9187412  76.3214064
  91.5222150  62.3349237  76.8556023  46.7094564  92.8492260  78.0547810
  45.7962036  92.6291656  77.8710032  47.0764017  92.0509243  78.4346581
  28.5401535  78.8515139  81.4073944  27.7687407  78.6727381  81.9451523
  28.8217020  79.7261381  81.6757011  34.6084952  97.2141552  38.5187459
  35.3762436  97.1620369  37.9494667  34.0121293  96.5473461  38.1782460
   9.3163235  12.6219510  41.0287623   9.0068609  13.4896182  40.7687335
  10.2589161  12.6444482  40.8637099   9.8152548  86.0761738  70.5280638
   9.8045892  85.1789665  70.1946878   9.6935916  85.9820938  71.4728260
  88.0982655  86.7956458  29.1593699  88.3554858  86.2761961  28.3976321
  88.5782164  86.4043246  29.8892645 114.1181236  69.8916101  60.9511280
 115.0354967  69.8121452  60.6897020 113.6944633  69.1195393  60.5760956
  80.1008167  34.3850469   2.5170092  80.4733557  34.7261285   1.7039256
  79.5107091  33.6859941   2.2353510  23.2721877  43.9352226  73.4959364
  23.4873009  43.8125324  72.5713301  24.0533209  43.6412954  73.9646292
  72.9301506  50.0833368  84.9582672  72.5365930  49.7877598  84.1373062
  73.8656145  49.9111366  84.8510742  24.3094230  34.3674731  59.1598606
  25.0489521  33.7622261  59.1050434  24.5043039  35.0431919  58.5105133
  45.8462596 107.0765887  26.6971068  45.1038474 107.6024543  26.9946341
  46.2486917 106.7528115  27.5029997  88.6727167  36.9072103  19.5537047
  87.7996552  37.1904802  19.8252825  88.9178169  37.5188970  18.8594489
  85.5112779  41.9147920   6.0599188  85.5409611  41.2039804   5.4195265
  84.7704488  42.4546670   5.7843451  31.4439583  72.7376842  69.4917345
  31.5088153  73.6897850  69.5660639  32.3523474  72.4366617  69.4705582
  22.5033474  83.3391380  92.4842453  22.7911735  83.6598682  91.6295338
  22.4521589  82.3891449  92.3787498  23.6340117  70.9311628  93.8437462
  23.8461757  71.4140224  94.6425343  23.6111307  71.5994549  93.1588364
 112.5282385  51.8911123  92.3678112 113.3364269  51.4302301  92.5928688
 112.3882770  51.6911554  91.4422512 103.8332212  56.6085386   2.5074725
 104.3714989  56.5067338   1.7225413 103.2001531  55.8922719   2.4583106
   8.4196341  56.6220427  82.7011204   8.5581952  56.8197012  81.7748547
   9.3011999  56.5079069  83.0561543  83.4261656  23.1638479  20.0427393
  82.6834709  23.0613803  19.4476466  84.1520763  23.4265279  19.4768099
 116.5997513  69.4265604  86.7208672 115.9805000  68.9530420  86.1654091
 116.9802106  70.0893211  86.1444759   5.7672691  89.6119118  71.5721321
   5.3806925  90.4850674  71.6384602   6.6707307  89.7701454  71.2983561
  11.4751816  65.4530382  77.0177460  10.6712973  65.0914001  77.3908663
  11.5686822  65.0093842  76.1747408  11.3414609  72.9838419  90.1341534
  11.0425675  72.1771240  90.5537891  11.5089381  73.5839701  90.8608055
  27.3391891  85.4461479  84.1776752  26.5860343  86.0368919  84.1749859
  27.8269887  85.6835461  84.9662971 111.8800049  56.3991547  72.1564865
 111.3824176  56.4218378  71.3391018 112.2121596  55.5030203  72.2098970
  92.3718381  25.5711030  15.6985335  92.8676236  25.8315229  16.4748148
  92.7383066  26.1017179  14.9911551  92.8771716  97.3365116  92.8402233
  92.3538833  96.8285847  93.4602261  93.7522345  97.3590946  93.2275009
  42.0388985  76.8783617  73.3858299  42.5721979  77.2370195  72.6764727
  42.1423960  77.5037622  74.1030407 104.5442908  52.2853851  51.5887737
 105.0155287  51.7890072  52.2579336 104.0991789  52.9796791  52.0746374
 112.3878259  91.1890541  16.8650202 113.0066508  91.2677561  16.1390166
 112.6506728  91.8746005  17.4791674  86.0617549   8.2674789   6.2338690
  85.6416691   7.6078557   6.7858271  86.6866136   7.7731799   5.7033495
  49.3366957 106.7756176  64.2416382  49.3465662 105.8822536  63.8980532
  50.1368809 106.8406105  64.7628975  57.3929060   3.7819480   1.7526011
  57.6408017   3.4745883   2.6245646  56.4426482   3.6713456   1.7208533
 111.2590116  72.4699497  92.7833080 111.7424678  72.2199154  91.9959164
 111.8709856  73.0159807  93.2768345 109.4462591  92.5049686  78.5026550
 110.3502231  92.8096294  78.5817862 109.0574955  92.6835537  79.3589258
   5.8818752  27.3009729  33.3442263   5.9290774  26.7916536  34.1533045
   5.5575735  26.6819429  32.6901106  88.6475969   5.6770324  13.5341696
  89.0613485   4.8166465  13.4650568  87.7122856   5.5020618  13.4301905
  77.2656142  26.4016485  25.3526072  77.1522198  27.3511838  25.3105978
  76.7639076  26.0673951  24.6091036  41.6097164  72.2909546  90.3017044
  41.2066793  71.5023994  89.9384117  41.6121292  72.9148817  89.5757961
  41.4479542  73.6477613  67.3507547  41.7889309  73.5558510  66.4610815
  42.1921921  73.4387875  67.9152679  25.2572489  87.3353672  75.7282877
  26.0171437  87.8230476  75.4105520  25.0628996  87.7238274  76.5812588
  85.0448954  21.0595845   4.3974165  84.1226399  21.1140012   4.6478419
  85.1168317  20.2288532   3.9273695  15.9276116  66.7642069  94.4181633
  14.9810624  66.8496847  94.3042850  16.3004732  67.1645832  93.6327362
  14.8564005  71.1199427  68.4288740  14.3837500  71.4754009  67.6762247
  15.4706430  70.4907751  68.0506039  32.8819847  77.1723700  91.7240429
  32.5055552  76.7666101  92.5050068  33.8184929  77.2319031  91.9128227
  25.1693773  58.9239311  65.1793003  24.9548268  59.4853067  65.9243202
  24.3493366  58.4750795  64.9736309  28.2344770  90.5862331  66.8042231
  27.8535128  90.6181526  65.9266806  29.1442084  90.3252316  66.6610432
  10.8390045  87.7235794  82.1110058  11.7239392  87.5005341  81.8222618
  10.7297707  87.2502899  82.9358101  29.5087194  72.2164059  86.1090755
  28.5837483  72.3453712  86.3189030  29.9154639  73.0641174  86.2884426
  99.9592412  40.4489183  32.2870974  99.6154249  41.2754010  31.9480471
 100.6799639  40.2291631  31.6967539 111.1238127  62.0248938  79.8985910
 111.4637017  61.4492893  79.2134714 110.1950007  62.1237469  79.6893787
 109.5138400  79.0566206  66.4982557 109.8944270  79.3711138  67.3183060
 109.7044312  79.7485352  65.8648825  93.1643725  23.8223409   6.3183741
  92.2378612  24.0329980   6.2024741  93.5660673  24.0376424   5.4766421
 105.8974994  35.8518552   1.8110518 106.0848272  36.0254335   2.7335505
 106.0468138  34.9118852   1.7090754  38.3960271  73.1758833  62.4076509
  38.8132334  73.2740307  63.2635355  37.7799392  73.9066553  62.3563004
  37.0940876  53.9026546  63.1152534  37.8481197  53.5067940  62.6782608
  37.4758530  54.5183468  63.7408829  41.3672066  99.5163441  61.0068130
  40.6577539  98.8940716  60.8465290  42.0801878  98.9818478  61.3564014
  33.9546108  76.0141134  73.6708879  34.8420429  75.7455492  73.4330463
  33.4064102  75.6886101  72.9569149  89.8393131  32.7346181   2.9456286
  89.6951425  31.8005895   3.0973963  90.1671994  33.0653428   3.7818961
  88.6397666   1.9128550  85.1548195  87.9603309   1.3685835  85.5527782
  88.2374877   2.2514285  84.3549633  38.3798909  67.9080343  71.6112661
  38.2789230  68.0151606  72.5570774  38.1118846  67.0047379  71.4425707
 110.3722179  24.1609096  23.6356596 109.4196427  24.2080974  23.7169413
 110.5204928  23.5770034  22.8918128   8.5190862  67.8268671  92.1144390
   7.7958798  67.2019625  92.0625114   8.1202513  68.6268711  92.4567223
  84.8845274   2.4391174   7.8204112  84.3300391   2.4597930   8.6003832
  84.5902282   1.6666936   7.3377375  98.7479222  11.2442016  12.0455508
  98.4484017  10.3400182  11.9508128  98.0867017  11.7646026  11.5892558
  10.6705111   3.5314120  70.8097172  10.0147337   3.2708682  70.1629543
  11.2561530   4.1198958  70.3333330  82.7916640  10.1865805  66.1699295
  82.4551791  10.1154269  67.0632076  82.6271504   9.3267478  65.7828236
  11.7638648  56.2590933  83.0567360  11.8957758  57.2063398  83.0173016
  12.4366248  55.8993101  82.4786472  78.0154089  20.1298475   7.1243529
  78.2499563  19.3167638   6.6770129  77.0584195  20.1437282   7.1098570
  38.0417538  89.5423508  65.5150795  38.9354563  89.8851299  65.5096865
  38.0328083  88.9081383  66.2319660  27.9944420  74.7261477  75.7424259
  27.1623373  74.9549532  75.3283167  27.8902578  74.9964333  76.6547441
  34.2762947  45.8031464  73.5999966  34.0990973  45.3195667  72.7931595
  34.8035550  45.2034283  74.1277885  83.2615620  17.7873468   5.1252226
  83.6195118  16.9485091   5.4158263  83.7612731  18.0009078   4.3372492
  28.9425826  78.2463026  76.4901161  29.0767384  79.1934919  76.4573526
  28.1629586  78.0961895  75.9554338  14.8551083  73.8171768  74.9296045
  15.0068176  72.8831673  74.7852325  14.5021510  73.8679934  75.8178997
  69.3118686 108.5171424  17.7544932  70.2298469 108.5133801  18.0256609
  69.0469402 109.4347106  17.8186278  79.6062927  38.6731862  27.0319991
  80.0893240  39.2260598  26.4177947  79.6034040  37.8074407  26.6237025
   3.3198586  84.4344521  71.3200808   4.0863633  84.9430561  71.0554790
   3.5471946  84.0904999  72.1839428  89.4725585  18.8897943  20.2018408
  89.1534412  19.7783279  20.3596358  90.3760314  18.9001321  20.5178408
  23.2740378  51.8676662  70.6902361  22.3472571  51.7468977  70.4835415
  23.3378267  52.7770615  70.9820652 101.9768637  29.1213298  91.7642689
 102.9203683  29.1456008  91.9237804 101.5845745  29.2444968  92.6286602
 100.7508362  43.7745904  39.6436076 100.4751242  43.7211942  40.5586771
 101.2542260  42.9735803  39.4979910 102.1237028   6.4226436   7.4203257
 102.1153391   6.0902404   6.5227370 101.8683064   5.6717490   7.9562048
  46.8626499  73.6877964   7.0758109  46.1664266  74.3340216   6.9579176
  47.5405276  74.1528104   7.5661902  13.7848496  61.8383408  73.1401634
  14.5775855  62.3742151  73.1654692  13.9802563  61.0945320  73.7100744
  38.8710141 104.0830421  89.9950218  39.5298934 104.2740726  89.3274784
  38.7942600 104.8955345  90.4952240   7.8923410  88.9991188  92.7012539
   8.3785224  88.8689327  91.8870640   7.1453118  88.4046745  92.6318073
  38.0602074  64.6291018  67.7268600  38.0573344  65.5419254  68.0149174
  38.8126493  64.2397308  68.1723452   6.8421537  66.7895269  48.2360601
   6.9033611  66.8955421  47.2867203   5.9876311  66.3818789  48.3769417
  20.3218341  64.4908619  37.3202825  20.6378746  64.9145889  36.5222812
  20.8898544  64.8294735  38.0123281  23.4090805  57.3096704  56.8199205
  23.5328364  57.2680378  55.8716679  23.4798384  56.4004993  57.1108437
   8.6450207  88.9809895  66.4138079   8.4850234  88.4203148  67.1729374
   7.8168452  89.4410515  66.2770414  19.1655028  62.6091480  28.4177899
  19.9335849  62.0653439  28.5926104  18.5480225  62.3821020  29.1130590
  33.2377696  55.4451323  68.6874819  33.2397199  54.9381399  67.8755808
  34.1512132  55.4427004  68.9735699  39.2925477  90.3046322  85.0314140
  39.8344231  89.7360706  85.5785370  38.4211659  89.9099350  85.0652504
   7.5097328  56.1234188  91.7749691   6.6293675  55.7611847  91.6751003
   7.9785186  55.8326769  90.9927082  93.0296839  33.1172323  43.4485392
  92.1778477  33.4540319  43.1707339  93.4673560  33.8705396  43.8450293
 114.7693622  39.1146707  19.8097567 115.2431643  39.8827028  20.1289229
 114.1253531  38.9294194  20.4932456  39.2292261  70.3397703  81.0710907
  39.2660666  70.9721041  81.7887497  39.3749571  70.8631372  80.2830029
  49.0576315  90.3494263  84.5376492  49.0379477  90.0309181  83.6352062
  48.5482073  91.1595345  84.5168781   8.7689430  56.2516403  58.6417198
   9.1717201  55.3833914  58.6537886   8.0722886  56.1834383  57.9888391
   1.1072414  99.7888756  93.9586735   0.9487683  99.8063850  94.9024963
   2.0276661  99.5398045  93.8749313  96.7591083  11.7329835   9.8608927
  96.8119741  10.8758210   9.4381480  97.2214282  12.3227023   9.2653040
  49.9753428  70.0566816  87.5506973  49.8309374  69.1224098  87.4006367
  50.6616259  70.0889492  88.2171822  15.7048547  71.5517187  63.8187647
  15.5266500  70.6639576  64.1291857  15.8835351  71.4473152  62.8842068
 115.2141226  70.2466058  10.4755549 115.5263913  69.4259214  10.0945143
 114.9369634  70.7697248   9.7233824  14.1184551  10.3525876   7.0513777
  13.3371575  10.0614547   6.5812258  13.8530190  11.1691474   7.4744753
 114.7958482  13.7631654  -0.0436731 114.5700634  13.7995242   0.8858065
 114.3155110  14.4925117  -0.4355379  97.3253393   8.0441856  -0.1459547
  97.7571261   7.5289726   0.5354743  96.6136277   8.4944295   0.3089957
  10.7153165  37.1863341  58.3460808  10.5837691  36.3177872  58.7262821
  10.1740134  37.1867037  57.5566339  29.9176812  79.4335508  85.3002739
  30.4245329  79.1498423  86.0610962  30.4105043  80.1740837  84.9467659
  90.9937454  22.7949285  12.6360182  90.3526593  23.2812547  13.1544165
  91.0438812  21.9380426  13.0596594  20.4204297  58.1072474  92.2648525
  19.5394659  58.3583021  92.5425339  20.7495570  58.8717699  91.7921925
   5.0648212  80.6097221  93.8508606   5.1487744  80.3795624  94.7761822
   5.9104055  80.3757000  93.4681702  34.3416783   2.0423449  73.4580994
  34.4219932   1.9030989  74.4017076  33.9662695   1.2265719  73.1267071
  15.5506670  86.1671352  67.5192356  15.5439353  85.3092480  67.0947075
  15.1446009  86.0152531  68.3726263 106.7038112  31.9258595  88.2764053
 107.1335011  32.1226907  89.1087818 107.1188467  31.1165428  87.9781055
  97.0200217  16.8441772  17.2923426  96.0912979  17.0208692  17.1423964
  97.2541702  16.2057113  16.6187243  95.8456283  47.9245758  79.5944452
  95.7050424  48.3905983  80.4186344  95.2803212  47.1545362  79.6552563
   9.9486668   9.5720529   7.4607520   9.8957712   8.9401674   8.1778006
   9.9739964  10.4249572   7.8945117 105.5517638  49.0735673   3.3081488
 105.8185542  49.1185235   4.2263178 104.7429264  48.5617971   3.3185439
  27.7390814  77.6799917  84.9999619  28.2874942  77.1858406  85.6092930
  28.1391859  78.5489845  84.9683380  45.7146424  94.3022261   7.2751669
  46.5156830  94.1412173   6.7765193  45.8458960  93.8310109   8.0979399
  21.0927653  89.4314384  72.5491905  20.7151699  89.1840076  71.7051315
  21.9521451  89.0100384  72.5598907  28.0848503  73.5970545  66.0986233
  28.5017920  73.1267834  66.8205881  27.4054599  74.1253901  66.5175724
 103.4442485  25.6692838   9.7231154 102.6460708  25.8422422   9.2238860
 103.3482397  26.1942815  10.5177168  26.0053563  79.4704294  60.3050327
  26.8527102  79.3478012  60.7330370  25.4741168  79.9324894  60.9535074
  33.4737551  94.7534476  21.1724429  32.8897792  94.1207681  21.5906767
  34.3532190  94.4667660  21.4185862  24.4213128  36.0865545  88.5362816
  23.6990786  35.6570077  88.9946461  25.2069569  35.6484318  88.8634586
  13.0485857  80.4300976  59.1594124  13.4072423  79.5476818  59.0649080
  13.6561775  80.9887791  58.6746979  45.6826735  60.7701397  50.3559446
  46.4482021  60.3527975  49.9609470  44.9720621  60.1430511  50.2217054
   4.0068713 109.9151897  60.5856800   3.0562529 109.8185730  60.6424522
   4.1828141 110.0067329  59.6492529  51.0960388  92.9800701  82.5074100
  50.7261276  92.7199650  81.6637611  50.5644321  93.7272549  82.7818871
  40.2806616  48.6609650  92.6725101  39.3463731  48.7941170  92.5124931
  40.7038927  48.9284372  91.8566799  20.5524349  96.2394810  65.4676580
  19.7958493  96.1909294  64.8833179  20.6793094  95.3403378  65.7704306
 111.4087814  69.3103170  93.1405735 111.0794132  69.8803663  92.4457455
 112.3020604  69.0962029  92.8714275 104.7939294  37.6194978  78.6248350
 104.9248284  38.3343768  79.2477703 104.0092295  37.1695995  78.9379978
 110.5400217  16.2946319   2.5749449 111.3092769  15.7826661   2.3252062
 110.8018506  16.7438030   3.3786444  18.6917543  76.3388729  90.3240681
  18.6837494  75.9606886  89.4447803  19.6166146  76.3528109  90.5703926
  59.0784121  57.6410341  79.3770218  59.4111538  56.7604971  79.5507193
  58.9403152  58.0204153  80.2449131   3.3202246  72.2378683  54.7089529
   4.0336919  72.6353407  54.2097378   3.7226501  71.4871120  55.1455879
   1.4062594  77.7351379  77.7509117   1.7318141  78.5802221  77.4409485
   1.9655463  77.0898008  77.3185110 102.7602750  89.2292595  64.6832514
 102.4406117  90.1308537  64.6487999 103.5600191  89.2384338  64.1573668
  32.4225402  80.3852558  78.3369303  32.3127890  79.5637131  78.8157415
  32.1857190  80.1701546  77.4347782  34.0809464  66.3651800  77.6146936
  34.7091508  65.6968641  77.8884602  34.0640664  66.9894981  78.3400726
 107.6758038  54.4105864  77.2584867 106.9429171  53.9473391  77.6640844
 107.8321731  53.9408302  76.4392710  28.1493586  26.0546244  93.3317947
  27.8792459  26.4991034  94.1353512  28.7074155  25.3368414  93.6311150
  19.6720922  63.2555056  66.2424517  19.4052577  64.0500879  66.7046928
  20.5736589  63.1045580  66.5263891 109.2348898  41.9532728   7.7599864
 108.6858929  42.4571943   7.1592383 110.0243318  41.7569875   7.2555213
  85.8147335  79.1866493  79.7377110  86.5988827  78.6781406  79.9445248
  85.1042461  78.7215424  80.1794243  93.5464245 100.3214455  78.8688707
  93.5857897  99.4811726  79.3256235  92.8275400 100.2213955  78.2448339
 103.1802815  33.8108325  93.8065529 103.4145837  34.0942144  94.6903038
 104.0035492  33.5027766  93.4276485   0.0741870  18.0653381  15.4331831
   0.9792215  18.0980682  15.7431368   0.0792129  17.3953246  14.7495989
  94.1828466  38.3688211   4.3662409  93.8774944  38.4434366   3.4621291
  94.2995215  37.4286222   4.5028166  60.3653193  64.5164442  84.3740273
  61.3170576  64.4226742  84.3336582  60.2259111  65.3687572  84.7867775
 114.0491569   1.6455554   9.0771632 114.5313299   0.8725213   8.7836413
 114.2776525   1.7332792  10.0025420   7.3111206  88.2459450  73.8787985
   6.6836882  88.3157063  73.1592894   8.0268407  88.8308239  73.6300135
  14.9554467  54.0442371  31.8908691  15.7664144  53.8599205  32.3647785
  15.1050842  53.6913204  31.0137773  96.6692651   6.9008207  15.6962351
  96.8399060   6.0950660  16.1839633  97.4674058   7.4184894  15.8021597
  94.9749523  28.6015153  88.7139797  94.9003154  28.4323239  87.7748108
  95.9158617  28.5758734  88.8879299  46.0668564  97.2332382  58.8930702
  45.3365326  97.3896313  58.2944012  46.8201733  97.0910549  58.3198929
  70.8638615 110.0601922  36.1019377  71.7673773 109.7499762  36.0414462
  70.7261366 110.5555402  35.2945380  74.3376392 107.6809464  10.8536391
  73.4565705 107.3091708  10.8952574  74.4926661 107.8257333   9.9202399
  33.3268070  70.8916092  61.8951321  33.5095119  70.1148176  61.3665056
  34.1882539  71.1928129  62.1839523  28.5671306  86.2149620  86.5974808
  29.3839264  86.0129166  87.0538330  28.5586524  87.1699524  86.5330982
  66.9560635  27.2704553   0.9899859  67.5084246  26.8304586   0.3438239
  67.5485361  27.4713563   1.7144541  47.1091551  91.9978963   2.7955966
  46.7336321  91.1592971   3.0638556  47.9491455  91.7680512   2.3983244
  43.3245134  78.5575533  74.8741102  43.4876251  79.3317699  74.3353891
  43.0240345  78.9081621  75.7125711  43.8595200  69.0912056  74.1503429
  44.4978952  69.3243694  74.8243904  43.5391998  69.9316692  73.8228512
 103.3783740  10.7575549  68.9934063 102.5932235  10.2405108  68.8133001
 104.1033906  10.1943816  68.7224531   6.1876518  62.0594501  78.7275553
   6.7355645  62.0365429  77.9430151   6.7628348  62.4024677  79.4114637
  50.6027555  88.5813904  85.5977726  50.4254198  88.7452984  86.5240192
  50.1926613  89.3162632  85.1416969  66.6356820  98.2742034  15.8140234
  66.8976039  98.3312379  16.7329268  67.4465174  98.4135066  15.3247695
 101.8630725  91.1531258  94.7731304 101.0367554  91.1117077  94.2917633
 102.3792725  91.8105698  94.3067169  64.8892486  30.2117872  11.7839865
  64.6044445  30.8111142  11.0941081  65.8257449  30.3849077  11.8800883
  26.3529229  43.4109497  83.4875488  26.6962552  44.2831278  83.6816025
  26.2540364  42.9963303  84.3446064  80.7770348  14.9573468  13.3852629
  81.4216286  15.3966951  13.9399771  80.4606426  15.6427621  12.7967600
  96.5447176  41.2520837  18.0328707  96.6678822  41.9811200  18.6408000
  96.3756800  41.6702127  17.1885829  29.2105985  61.3494968  62.3444414
  28.7990093  61.0198879  63.1433058  29.1985273  62.3014307  62.4440002
  19.2210674  94.6796894  68.1528997  18.5376644  94.6923161  67.4828005
  19.9247479  94.1576195  67.7675390  45.8046389  70.1959896  75.6587410
  46.6997528  69.8773336  75.5427361  45.4601717  69.6819639  76.3890553
  60.3787994  59.0222645  77.2687244  59.9229288  58.6740351  78.0349827
  61.0184193  59.6364307  77.6291704   8.1251967  69.9582338  76.2052202
   8.8201851  69.7708321  75.5742645   7.3731416  70.2049589  75.6669140
  90.7772827  57.8089284  23.8417487  90.7623971  56.9718885  23.3776717
  91.7057169  58.0347776  23.8986353   3.4161422  69.6293116  84.2294121
   3.5806793  69.8951721  85.1341057   2.7810374  68.9167356  84.3009090
  61.0148376 109.1786204  46.6696982  61.3088221 108.9775525  47.5581698
  60.7592672 108.3315335  46.3045172  43.2306099  84.6913147  55.1064301
  43.8703537  85.2091789  54.6177912  43.1787109  83.8629055  54.6296978
  31.0626435  88.3985519  57.0056248  31.9510698  88.5350418  56.6765404
  30.5061626  88.4715176  56.2302303  86.6867036  36.8806123   9.0763335
  87.0190126  37.7611017   9.2510752  86.5157891  36.8716382   8.1345610
   1.1861823  85.0609589  82.0993710   0.5330859  84.8706055  82.7727604
   1.9026361  85.4833698  82.5731754  35.2468634  97.8914833  67.1415377
  35.3905916  97.4282742  67.9667711  34.3259215  97.7322865  66.9347620
  28.3116889  59.7024059  76.9254017  29.0629196  60.2918100  76.8584251
  28.6938834  58.8249063  76.9130707 116.4498019  97.1069050  80.1553535
 115.5122841  96.9495010  80.0434685 116.8574280  96.2582111  79.9827480
  58.6629248  76.1207628  84.1988277  57.9267597  75.7763290  84.7044563
  58.3059454  76.8849182  83.7462139  86.9573874   9.4326591  11.3523726
  86.9454950   9.0383958  10.4802279  86.0379202   9.4553804  11.6175131
 104.3642479  66.4351749  79.7106218 103.7520068  65.7056189  79.6150064
 104.1896921  66.7812014  80.5858517  88.1719464 106.5764962  12.7259116
  89.1163701 106.7270194  12.6853899  88.0350751 105.7758389  12.2195010
 105.7773441  27.9064298  85.7521439 106.0510605  27.6063347  84.8853970
 105.3936868  28.7694883  85.5966759  20.8886623  48.9060211  79.7702837
  20.1140356  49.4660378  79.8209143  20.5400467  48.0287457  79.6118927
   7.4406457  63.2137680  62.7849245   8.2801771  63.6615086  62.6802874
   7.2370750  63.3010530  63.7161446   1.4870206  72.2305775  73.5258484
   2.1770164  71.7135239  73.1101656   1.7531273  72.2915173  74.4432926
   1.7387544  69.9184752  80.3636837   0.8905439  70.0416327  80.7898331
   2.3294403  70.5095053  80.8305931 114.7258914   7.4591207  10.9124808
 114.2427624   8.2394552  10.6406455 114.7531259   7.5149345  11.8676714
  13.4028530  85.9738255  73.5651207  13.0624104  85.2418327  73.0507994
  13.3377159  85.6790733  74.4734764  91.8766278  20.4486216  85.2900410
  91.1913318  20.3927458  85.9559822  91.4488810  20.8623446  84.5403099
  47.3384380  98.1169510  95.6028080  47.7561426  98.6702156  94.9427605
  46.7733574  97.5299358  95.1004887  27.5647926  53.5588932  93.3943558
  27.6893544  54.3289137  93.9491367  28.4038138  53.4475422  92.9472828
 107.5397790  20.3578805   0.6063609 106.6620648  20.0172805   0.4336123
 107.6688469  20.2222919   1.5450720  37.3272514  97.0322037  62.5398445
  37.4151373  96.3813019  63.2361555  36.5173864  96.7929554  62.0891714
  54.5797348  84.3972874  51.5335464  53.9518499  83.7632465  51.8799353
  54.0381145  85.0679302  51.1174726  79.0802779  11.7416477  30.9926276
  78.8963034  10.8046674  30.9258608  78.3636258  12.1609782  30.5163912
  99.2610377  12.8116740  90.9042549  99.3852061  12.0603407  90.3243256
  98.7029809  12.4812067  91.6082382  38.4975195  55.9888363  55.8210659
  37.7164674  56.0463762  56.3714123  38.4313917  56.7404461  55.2320528
  41.3207531  78.9277411  59.3410206  41.5921021  79.2730331  60.1915359
  41.0882044  79.7034740  58.8307285  49.7504091  79.2565823  84.4707489
  50.6948042  79.3116236  84.3247318  49.4257689  80.1348972  84.2722321
 104.6788299  23.6408853  27.7042536 104.3398226  23.0366658  28.3647208
 103.9812911  24.2862558  27.5895075  13.8076479  40.9105062  10.7051329
  13.9739735  41.0684728  11.6344409  13.2693274  41.6521501  10.4287104
 100.5626786  29.5420217  11.3085227 100.4232276  30.0737047  12.0921664
 100.0847662  30.0023126  10.6186251  55.5826283  91.9390678  94.7634697
  54.6697903  91.8011189  95.0162983  55.5338383  92.3058796  93.8806820
  45.9681749  96.5935707  66.3304186  46.3091803  96.9057178  65.4922581
  45.1088285  96.2290573  66.1185741  23.7555480  63.2557106  50.4235172
  22.9856849  62.8535604  50.8257818  23.4536958  64.1180277  50.1379776
   7.8350670  28.0267286  28.1185488   7.2984011  28.4107255  28.8119273
   8.4334309  28.7285566  27.8623538  93.1343341  55.7557058  37.4250750
  93.6253572  55.6314420  36.6128687  93.2288766  54.9252271  37.8915553
  32.6314211  47.5658655  68.7164927  33.4658480  47.5626612  68.2474947
  32.2031617  48.3752966  68.4378481  30.5964756  76.0518503  67.5246429
  30.2763963  76.0478449  66.6225529  31.4526010  76.4768553  67.4731302
  66.3438272  85.7553387  79.0443993  65.8612347  86.2625980  78.3916950
  66.7101288  85.0199223  78.5532665  69.7066850  23.4047736  70.0216866
  69.9959845  23.2746829  70.9248018  70.2134746  24.1561450  69.7137260
  34.6336126 100.5063438  86.4813232  34.8098302 100.7289886  85.5672073
  33.7831521 100.0675392  86.4613056  25.0996024  12.4400843  91.3540077
  25.7362205  11.7645586  91.5877151  25.5309969  12.9484023  90.6671715
  45.4389858  88.0921078  44.3238592  45.0771999  88.5765648  45.0659084
  44.9585199  87.2642326  44.3211460  24.4317174 109.5183277  79.8685741
  25.3119445 109.5310974  79.4927168  24.4793391 108.8665199  80.5679321
   5.6212170  30.1196813   8.9052443   5.9029991  29.7324704   9.7340350
   5.9711678  29.5323991   8.2352690  99.1607511  64.6750974   0.8640818
  99.5733416  65.0483655   0.0851874  98.3935678  65.2268552   1.0164599
  63.1889868  81.1034393  94.4476128  62.9269981  80.2051640  94.2459202
  62.8153753  81.6268349  93.7385941  61.4138836  19.8549403  75.4301691
  61.4236540  19.1838015  74.7477484  60.5780691  19.7279204  75.8790731
  91.5826720   3.9780081  76.8604374  91.7904157   4.5344389  77.6110744
  90.6851787   4.2155112  76.6273499 110.6990278   1.0984706  33.3223013
 110.2250040   1.5170383  32.6037364 111.0555923   1.8270301  33.8305335
  30.0947666  53.9697123  92.6404476  29.4912028  54.4342995  92.0607090
  30.8271623  54.5746613  92.7582073   8.9842123  89.9748993  82.4286842
   8.7395054  90.0212860  83.3529186   9.6708089  89.3087578  82.3958588
  15.6350453  43.8909292  34.8231654  15.0864679  44.4896936  35.3298907
  16.4424641  43.8172006  35.3319602  71.7365885 103.6562824  82.1231365
  71.6530609 102.7381325  81.8657494  72.6799583 103.7981701  82.2015667
 115.9751475  19.9966955   0.3700499 116.8184293  20.4426050   0.2908473
 116.0541141  19.2319297  -0.2001520   2.0090657  91.0961628  92.8175831
   2.7562037  90.5031681  92.8974247   1.4713407  90.7120419  92.1251011
  31.1809904  59.1806077   4.4679789  32.0100481  58.7046766   4.4191126
  30.7204897  58.9427518   3.6632494  20.5648470 103.3926582  72.4526978
  21.3052988 103.1624603  71.8914747  20.5013251 102.6678562  73.0746794
  38.7927986   9.3722952  75.1874876  39.0761488  10.2819193  75.0950813
  37.8623886   9.3872870  74.9631119 116.4486420  85.5193662  16.4711623
 116.8409980  86.0527849  17.1623568 117.0554436  85.5971765  15.7349829
  61.3756180 105.9662437  69.0764904  60.8552647 105.2014351  68.8304520
  62.0997238 105.6081581  69.5899868  33.8558340 102.2531319  75.1910019
  34.0143085 103.1968880  75.2117157  33.7186575 102.0131302  76.1074162
   4.0431407  58.4946585  91.4217567   4.2887843  59.1812992  90.8017445
   4.0800795  57.6861238  90.9107399  16.0199511 107.5423527  74.1059208
  15.9640515 107.8272247  75.0180387  16.1731315 106.5989590  74.1585970
  38.5827827  92.1687031  93.9266872  38.7412763  92.6913071  94.7128105
  39.0325689  92.6442146  93.2282543  15.1412046 105.0594902  90.6137657
  15.8368242 105.6071758  90.9776211  14.3403685 105.3849602  91.0248184
  12.8279376  83.4371376  57.5884295  13.2024062  82.6135540  57.2758341
  12.8285944  83.3538723  58.5419989  25.7800562  44.7049856   7.3360590
  26.3126785  44.0113496   7.7251772  26.2540466  44.9544381   6.5427546
  48.0187464  87.2851944  90.0343323  48.3698893  86.8331528  90.8015251
  47.1508312  87.5821877  90.3077316   0.1128800  77.3743104  23.5964159
   0.9389002  77.2312116  23.1344180  -0.4843300  76.7242860  23.2262282
  16.2068427  99.1568565  94.9369335  15.5932939  98.4332657  95.0642490
  16.2364304  99.2817211  93.9883804  94.7198218   3.7309493  80.1390076
  94.0290851   3.1260241  80.4095173  94.9510640   3.4499968  79.2536688
  88.2654256   3.9192427  80.1562691  88.5657424   4.7612227  80.4984951
  87.5214166   4.1400660  79.5959854  84.9155277  18.8335323   2.4982123
  84.9700988  19.4034051   1.7310767  85.6739194  18.2546424   2.4209837
  46.6023731  82.8361797  62.1800089  45.9150743  82.4535084  61.6346502
  47.2956371  83.0698395  61.5627432  25.1581461  25.0993585  14.1537623
  25.6044848  25.6199407  13.4859232  25.0554115  24.2353200  13.7548689
  14.6031983  30.1536989   6.6505484  14.6794922  30.0233888   7.5957636
  14.4615347  31.0949182   6.5491919 116.6564548  12.6057100  19.5184378
 115.9047520  12.0332908  19.3651061 116.6919816  12.7047157  20.4698424
  20.0440454  90.3625679  67.1962452  19.4092321  91.0598755  67.0319223
  19.8743296  90.0919151  68.0985594  10.4403669  38.0170106  29.3194441
  10.3215105  38.4808015  30.1483016  10.0695831  38.6044931  28.6609511
  51.9919157  86.9807816  77.9326677  51.7157936  87.7115154  77.3794794
  52.2233057  86.2869930  77.3151398  45.9347105 103.8981342  56.5237808
  46.0312939 104.7181511  56.0395479  45.4310322 104.1373253  57.3018122
  29.4944549  69.6578979  59.4261694  28.6472249  69.4672918  59.8287868
  30.1353955  69.2693043  60.0215006  27.1805382 102.3389626  86.9192028
  27.9517293 102.1713352  86.3775444  26.4517498 102.3580647  86.2989330
   9.7678566  82.4366760  57.5063896   9.2296356  82.5765800  56.7273045
  10.6646240  82.5894833  57.2085810  19.7763860  71.4737082  87.7423763
  20.1730537  71.6713333  86.8939495  19.6607161  70.5235386  87.7371979
  47.7041418  52.0911550  20.1857047  46.9358904  51.6934823  19.7759680
  47.4636252  52.1823167  21.1076979  45.0738955 102.8055859  94.3155956
  44.8395157 103.3740044  93.5819817  45.7183647 102.1984959  93.9518261
  14.8765404  20.8113622  18.4302573  14.1364700  20.2271270  18.5951857
  15.5054314  20.6020831  19.1208605   9.8701985  42.1066045   2.4920229
  10.7741720  42.3964071   2.3692374   9.4312222  42.3380327   1.6735034
  75.2240151  40.2445258  95.0279236  75.5031198  40.7595194  94.2708778
  75.3494233  40.8296431  95.7750225  46.1824322  74.8722219  88.7633228
  45.5861425  74.9325705  89.5096684  47.0532131  74.9925470  89.1421318
  15.9828217  55.2875184   1.9201426  15.0998003  55.3295183   2.2872118
  15.8468563  55.1184224   0.9878592  12.9561794  69.6749401  84.1961002
  12.2146809  69.3881559  84.7291756  13.4463525  68.8726807  84.0162563
 110.6150401   7.0993661   7.6961092 111.3337934   6.9842386   7.0745234
 110.7641399   6.4278364   8.3617262  26.4837670 105.6024551  91.4423466
  26.7552352 104.8165989  90.9680271  26.2850404 106.2396431  90.7562542
  24.5243096 104.9559879  82.7272320  25.4209924 105.2897072  82.6984787
  24.5523620 104.2491817  83.3721066  17.9147434  80.5906963  78.6837959
  17.9826605  79.6400404  78.7725687  17.4390113  80.7212639  77.8635168
  97.5651044   4.9876345  77.0911741  98.3151883   5.1884402  77.6508904
  97.1795958   4.2024458  77.4798870   6.1143286  14.7613811  30.7904772
   5.6274302  15.1066636  30.0421767   5.5057985  14.8330259  31.5258650
  22.0400262  74.8742723  93.4958172  22.2269535  74.8625708  94.4345093
  22.4662662  75.6696749  93.1766224  17.9929280  78.6810827  86.9136143
  17.8115129  78.8342619  87.8409004  18.3912241  79.4966459  86.6095734
  66.1549348   0.9049357  89.4851685  65.9809894   1.8301238  89.3119717
  66.4943117   0.8884562  90.3800297  33.5617924  65.3710747  80.6426811
  32.6920533  65.5288935  81.0099411  33.8087416  66.2057924  80.2445698
  49.3227100  99.9160957  92.3043919  48.9853525  99.0472031  92.0865536
  50.1070261 100.0109291  91.7639446 102.6658094  13.2515477   7.0045714
 102.4158895  13.9304494   6.3777785 103.5238731  13.5273217   7.3269133
  16.4197195 103.4069157  83.8938808  16.3797283 102.5739479  83.4239960
  16.1213112 104.0559196  83.2567120  99.2520535  43.5350370  33.1767993
  98.6203754  44.2512845  33.2416491  99.7191370  43.7010145  32.3579459
  46.0738277  91.4434910  81.0397911  45.6014729  91.4824200  81.8714142
  45.4856873  90.9690094  80.4522610  14.4703424  76.3173628  73.2881784
  14.6605647  75.4805326  73.7121582  14.3134940  76.9227982  74.0127993
  47.5506306  93.3525181  66.3228703  47.7821445  94.2766476  66.4157677
  47.2621107  93.0888844  67.1966457  12.5898821  29.0151548   3.7867789
  13.4468205  28.7547445   3.4490351  12.5585634  29.9627923   3.6554484
  62.4445295 108.7454510  76.5124750  61.9948053 107.9005241  76.5035391
  62.3668575 109.0485573  77.4170876   6.1323673   1.5818881  27.6984553
   5.9269173   2.4139785  27.2722487   6.4601500   1.0254239  26.9919638
  25.0552177  86.7318249  84.7168636  24.8516893  86.7808628  85.6508923
  24.9627113  87.6317120  84.4040108  64.4379658  27.5224818  92.3358059
  65.3215236  27.1839179  92.1911144  64.3980378  27.6932944  93.2767963
  16.1631572  46.1238670  89.7231197  15.6861365  46.8871927  89.3975258
  16.6462719  46.4494038  90.4826355  14.9966121  93.5718441  72.8862429
  14.7365606  92.7567196  73.3154011  15.6239569  93.3002186  72.2162533
  27.5821573  59.8398828  25.9952502  27.9433996  60.1199865  26.8362479
  26.7246658  59.4743108  26.2127261  54.9390173  86.7130089  92.5882244
  55.6289530  87.3674202  92.4788570  55.3497553  85.8869743  92.3328781
  24.5266366 102.0181847  73.3439589  24.2838216 102.4481201  72.5239420
  25.2354431 102.5566292  73.6959600  76.6569919  93.0883394  22.9943709
  77.6075524  93.1872235  23.0481295  76.5280980  92.2632705  22.5265173
 111.8258083  48.9691304  21.5058569 112.4169076  48.9629792  20.7529978
 112.1905721  48.3151864  22.1021132  43.8882256  60.3055191  63.7357426
  44.7990751  60.4893017  63.5059357  43.4458256  60.1978159  62.8937721
  45.7105637  56.6582203  89.7541618  44.9969101  57.1028090  89.2967129
  46.4987707  56.9158220  89.2760372  99.0189779  77.8202485  11.5218405
  98.7379659  77.6694536  12.4243502  98.7664831  78.7255620  11.3404612
   2.0446331  57.3917245  20.2381472   1.2648422  57.6246976  20.7420115
   1.7100460  56.8787240  19.5025401  95.6083322  42.5243615  15.7685618
  94.7980953  42.8565740  15.3820567  95.9003079  41.8424844  15.1635508
   7.2741348  31.0941648  19.1723589   6.8386252  30.4429197  19.7223048
   6.5671951  31.6654062  18.8721137   7.8216393  51.8378209   1.4425234
   8.7759192  51.8524694   1.3692526   7.6532824  51.4498567   2.3012309
   2.7384646  70.2103566  16.0858492   2.3385317  70.9653138  16.5175108
   2.0771296  69.9138498  15.4605917  46.5405273  88.8701630  71.8717718
  46.5243006  89.4552612  72.6291609  46.9349623  89.3929482  71.1736631
  17.5553209  42.8338002  16.6977362  18.2111437  42.7065133  17.3832469
  17.3402865  43.7654828  16.7420058  67.8702539   5.0588263  84.8653030
  68.1392759   5.2224768  83.9613724  68.6300558   4.6394766  85.2691364
 106.2887204  33.1727933   6.9464068 106.1433924  34.1092443   6.8115763
 106.2777675  32.7993917   6.0651164  24.1968226  63.7292767  89.2334175
  23.5520029  63.7836885  89.9387360  23.6733174  63.6799049  88.4335804
  39.5943928  96.1943150  77.6061058  40.2345562  96.9059467  77.6048756
  39.3293738  96.1089706  76.6902924  61.5042877  80.8122540  89.9412823
  62.1747017  80.7783699  90.6236458  61.8989086  80.3607845  89.1951752
  17.3794920  70.1137208   1.7599444  16.6680176  69.9605130   2.3816924
  17.5250704  69.2620801   1.3479476  13.1223900  37.8255510  20.0026183
  12.7002270  37.0099210  20.2723746  14.0567572  37.6182317  19.9881796
  23.7041712  90.8604908  81.6415405  23.6656809  90.5965042  80.7222652
  22.8200269  91.1694145  81.8392372  46.8699503  97.8859425  68.5689354
  46.4517784  97.6423454  69.3947840  46.2727165  97.5637054  67.8938723
  10.6717396  75.4495144  67.9114246  11.2799096  75.0007391  68.4987593
  11.2172246  75.7462740  67.1829939  32.4650073 105.5705547  81.6263580
  32.1481609 106.0159588  82.4121380  32.2523761 104.6486092  81.7714405
   5.2348697  74.0135002  45.7007551   4.8966655  74.4945097  46.4560556
   5.6739032  73.2516479  46.0789919  34.9427485  57.0337534  86.3523293
  34.5364118  57.3837519  87.1451950  35.5783343  56.3932180  86.6716671
  68.5961741  23.3779849  87.4865627  69.4568151  22.9632605  87.5460148
  67.9985875  22.6604975  87.2760296   0.1592874  53.6308432  31.8523765
  -0.3554373  53.9899397  31.1296463   0.6578715  52.9148197  31.4587379
  81.9386310   7.7969016  79.3100691  81.0539597   8.0157031  79.0173006
  82.4779481   8.5287322  79.0104198  14.8241186 108.8022995  91.7715359
  15.2155209 109.5582199  92.2092819  15.3941333 108.0692863  92.0039272
  42.2783089  98.3178902  65.5551100  41.7313051  98.2488918  64.7726393
  42.8426361  97.5454617  65.5217171  14.4977409  34.7479295   7.3474841
  13.5903675  35.0504827   7.3106246  15.0197918  35.5468606   7.2740035
  26.8111587 106.1474514  78.1473589  27.5192332 105.8410072  77.5808334
  26.8115592 107.0983982  78.0381489  43.2862377  97.2515678  95.1534081
  43.8327885  96.4662457  95.1256180  42.6771069  97.1454239  94.4227028
   2.6284964  29.1901159   0.4439501   2.8184063  29.7539377  -0.3058954
   1.7156679  28.9290475   0.3222041 101.3120473  78.2216024  25.2220015
 101.3966620  78.0588197  26.1614565 101.8614495  77.5531530  24.8126559
  29.4803047 106.4106560  50.4143906  28.6300945 106.8436337  50.3375673
  30.1108503 107.0665359  50.1169682   9.1731341   9.4927787  12.3021178
   9.4891293  10.3919982  12.3903613   8.2507879   9.5372104  12.5541739
  21.3771343  77.0970392  90.4521370  22.0276403  76.7812014  91.0792923
  21.6142130  78.0121040  90.3015041  32.5641131  76.6098356  58.2507038
  31.9020176  77.0022917  57.6816368  33.2894135  77.2343874  58.2404327
   8.5484106  24.7077083   4.0849738   9.0624125  23.9514589   3.8019232
   9.1462881  25.2100324   4.6385531  36.4998848  46.1014795  23.3792548
  36.9956667  46.8823480  23.6255793  35.7907612  46.0558080  24.0205626
  14.4177985  88.4156513  77.2807217  13.6649978  89.0008068  77.1963930
  15.0939357  88.9531517  77.6932335  20.8562469 105.9351158  65.4355717
  20.2276134 105.6276894  64.7824669  20.3703642 105.9225750  66.2601852
  21.5232372  91.6932678  87.6769066  20.8705473  91.3466358  88.2852364
  21.0534573  92.3600292  87.1759319  86.3523978   7.5545157  71.1942625
  85.9736985   8.4216441  71.0496759  87.2979278   7.6945723  71.1433840
  27.9251266  92.1080589  53.2934093  28.5606480  92.8214645  53.3517361
  27.1015644  92.5390434  53.0648613  31.7028362  10.5895089   8.7417273
  30.7679016  10.7279634   8.5901980  32.0790751  11.4696550   8.7375121
  44.5885658  93.9154625  63.0793810  43.8984728  93.4864235  62.5734949
  44.9818087  93.2106018  63.5939312   5.1480258  49.0916014  48.3522701
   5.2645916  50.0031471  48.0844355   6.0356230  48.7769890  48.5237980
  74.6777624 103.9823876  11.4759306  75.5280060 103.5460149  11.4220957
  74.5880312 104.4363032  10.6379942  91.2960708  27.3847627  11.2987570
  91.4737022  26.5149926  10.9407477  92.1608675  27.7415704  11.5013651
  40.5903244 103.6527061  81.9436359  41.1962605 104.1697407  82.4744320
  40.4958534 102.8289795  82.4219322  14.5684254 104.6607876  61.4453173
  14.4038332 104.8069763  62.3768616  13.6969495 104.6224403  61.0512495
 110.0315446   3.2459868  81.3622284 110.4275340   2.5212992  80.8782387
 109.3152017   2.8431738  81.8529701 114.2720124  59.1076517  65.1778889
 114.2561069  59.6765709  65.9475088 113.7145000  58.3669138  65.4160500
  38.0372643  98.6738777  94.2599678  37.9232478  99.3366146  94.9411488
  38.4609342  97.9412270  94.7071266 104.9275625  21.5813016  22.0589880
 105.4733026  20.9210967  22.4862151 104.0696514  21.4872884  22.4729685
  13.8209469  21.3626146  36.4707999  13.1820233  20.6634807  36.6094260
  14.6505291  20.9052038  36.3336710  57.3432302 104.2783356  68.6662483
  58.0925179 104.1808319  69.2538643  57.2069740 105.2239132  68.6067390
  30.4223807  18.1799125   2.7827506  30.0481875  18.1016588   3.6602931
  31.2006647  17.6230764   2.8037123  32.1039409  84.8615251   9.4150214
  31.7697644  85.6424342   9.8563151  31.5553713  84.7736798   8.6355452
  61.3160485   8.7367667  85.1322842  60.5086464   9.2017306  84.9128628
  61.3076681   7.9631461  84.5686626  94.2023200 102.2491084   0.9906439
  93.3016795 102.5490199   1.1136679  94.2595881 101.4449654   1.5066866
 107.6080191  87.5452423  86.0651779 107.4563080  87.4539471  85.1244926
 106.9593977  88.1885052  86.3510609  11.9113953  49.1948842   0.5673079
  10.9753592  49.2798280   0.3860526  12.2276957  48.5763120  -0.0911470
  21.6431332  85.0634098  70.2137661  21.6424775  85.0860214  71.1707020
  22.5593710  85.1979828  69.9716330   9.8796004 107.0805454  64.3841505
   9.9989271 108.0198956  64.2441225  10.1213610 106.6812038  63.5485029
  76.6826314   3.5772074  46.8203974  76.8242854   3.6790122  47.7615643
  77.4449009   3.0851782  46.5153027 101.0065067  23.5615825  14.5863871
 100.5294741  22.7352571  14.5098357 101.8943656  23.3035278  14.8340659
  95.5105067  11.7836236  12.3106055  95.8568466  11.6305541  11.4314799
  95.4588521  10.9119939  12.7028040 112.8397572  62.3480272  18.0324702
 113.5156501  62.2887182  18.7076621 112.2792113  63.0696916  18.3174376
  43.3870554  91.0391045  63.9598131  44.0965366  91.4755440  64.4313908
  42.7522993  91.7340279  63.7854815   6.1643648  98.0740452  76.3808537
   6.5785050  98.8698006  76.0469484   5.2720249  98.3422947  76.5999603
  11.7161114  20.3506517   2.0977263  10.9641487  20.9301662   1.9754462
  11.5625984  19.6275329   1.4896445  19.4678664  89.8758316  94.7818661
  20.2210474  90.4062748  95.0418186  19.1687012  89.4697285  95.5953789
  98.6048282  11.4309644   4.4558768  99.5350898  11.6537189   4.4909148
  98.3888734  11.4502620   3.5235552   5.9657192  66.9141388  78.3907032
   5.3526759  66.9987297  77.6604605   5.4180199  66.9843149  79.1725826
  42.9157925  89.9715614  76.1004591  42.4240398  90.1063347  75.2903652
  42.2978687  90.1965809  76.7959976  17.7611286  15.8465957   3.3389430
  17.8620035  15.6986284   2.3986392  18.1150849  16.7242622   3.4826235
  44.9520910  13.9548635   4.0328459  44.9028290  14.8629617   4.3314414
  44.1679561  13.5411977   4.3937449  42.3911762  85.1297951  66.5385675
  42.8213882  85.2738571  67.3814154  42.9843760  85.5205822  65.8969784
  18.1671238  71.8599987  65.5199385  17.4063516  72.2236538  65.0669384
  18.4906125  71.1759901  64.9336576  21.7726159  95.5831432  70.8715916
  21.5135241  95.1745701  70.0456619  21.8357730  94.8549271  71.4896059
  27.9889584  61.1916828  52.6729822  27.7531743  61.2853813  51.7500210
  28.6600971  61.8586731  52.8176355   5.6414121  90.4347134  90.3865337
   5.4168648  89.5371151  90.1413345   6.2780154  90.7109642  89.7272491
  93.5231006   8.6666440  23.3093314  92.7669084   8.9047193  22.7729373
  94.1880274   9.3189477  23.0888800  54.1316462  64.4425631  71.0191488
  54.4875193  64.8456573  70.2272511  53.4528017  63.8475752  70.7007265
  37.9513049  88.6884308  60.3545809  38.2649255  88.7128830  61.2586117
  38.7040925  88.9655590  59.8323345   7.0694096  15.7362270   3.6339430
   7.2631580  14.7990751   3.6128287   6.3586218  15.8195924   4.2695956
  73.4807700  35.2455186  14.2443327  74.0341688  34.5002984  14.0105967
  73.0334968  35.4763841  13.4301619 108.5832608  40.1526498  36.2537436
 108.9452017  39.5275640  36.8818335 108.0671752  39.6160650  35.6521086
  13.3030255  35.9480142  11.0411982  12.6811440  35.2382421  11.2015490
  12.9835541  36.3708543  10.2440981   9.3615776  82.6489449  91.7132282
   9.1736180  82.3496723  90.8236599  10.0179839  83.3365154  91.6009331
 104.8229659  57.5272989  21.9724707 104.8964203  57.1060895  22.8288702
 104.4341886  56.8582391  21.4090495  37.8493667  54.1473913  54.0029860
  38.0097342  54.8581123  54.6237898  37.4398994  53.4591913  54.5273447
  35.2975702  97.8473186  94.0208721  36.0168529  98.4615707  94.1677094
  35.0361872  97.5702286  94.8990154  29.4098091  87.3419189  70.4045582
  29.1402197  86.4942741  70.0509405  30.3195333  87.2114182  70.6721544
  92.9090715  35.1915597   0.6265788  93.5424447  35.0935029   1.3375334
  93.4150017  35.0274610  -0.1692434   7.8758115  66.2546492  75.2048397
   8.2842618  66.8485212  74.5749855   6.9388974  66.3152933  75.0184393
  21.5956235  83.4119415  56.4922857  22.4382949  83.7283039  56.1666250
  21.6878128  82.4593449  56.5094185  60.8359760   5.1782549  83.8018513
  60.2697867   5.2348746  83.0321407  60.9548539   4.2390383  83.9431763
  35.3968024  86.7305946  70.9213638  36.0050797  86.0953236  70.5436516
  35.9455729  87.4805927  71.1506748  11.6296894   8.8445901   2.1118311
  12.3513062   8.2895231   2.4074797  10.9167082   8.2328986   1.9281916
  32.9868555  84.2736244  47.2666740  33.8188004  83.9783955  47.6367283
  32.6414013  83.5058403  46.8112469  35.8964705  78.4219790  91.0436535
  35.8678389  79.0172005  91.7927361  36.4676237  77.7079439  91.3268089
  97.2281998  76.5956974  84.4472504  98.1383389  76.7454100  84.7031116
  96.9003039  77.4631357  84.2100430  69.5046348 104.2583953  13.3422045
  69.6594519 104.7500716  14.1487460  69.2140597 103.3961354  13.6393694
  81.3245309  17.0756101   3.0205588  81.6096694  17.3130512   3.9029078
  80.8825258  16.2336730   3.1301264  32.6414037  84.5642185  89.8385143
  32.7747440  85.5070877  89.7413063  32.4886942  84.4392204  90.7751560
   4.9005968  41.5338659  68.0160861   5.6266768  41.7624902  67.4357752
   4.1468317  41.4446306  67.4328951  55.9235925   5.7937182  71.1638308
  55.2543265   5.4905547  71.7773533  55.4285962   6.1417616  70.4221630
  99.0860904  13.7022924  34.7174983  98.8426102  13.5265207  35.6263690
  99.2163647  14.6499728  34.6834235  17.3186905  64.3497514  26.9424300
  17.5348360  63.6875390  27.5989203  17.2542555  65.1661634  27.4379687
   6.3546974  37.7259492   6.0973601   5.6974728  37.1520089   5.7038073
   6.2035401  37.6523542   7.0396761  95.7586688  41.9007338  57.5334740
  95.4312009  41.1856116  56.9879484  95.0011748  42.1730937  58.0514097
  25.6396604  68.8286495  87.4733925  26.4376259  68.3097029  87.3724842
  24.9492025  68.1811047  87.6154709  31.3382006  75.7809639  93.6704540
  30.5018902  75.6294346  94.1107464  31.8762136  75.0270987  93.9122295
  10.1765263  95.1484871  86.5328217   9.2624402  95.3824711  86.3717937
  10.2617228  94.2612743  86.1837769 104.3349493  86.4179944  32.4118475
 103.9106095  86.9785451  31.7622714 105.2715719  86.5283918  32.2481970
  31.0650158  72.1240902  46.9027233  30.5003452  72.4344635  46.1948729
  31.7805910  72.7590609  46.9341946  78.1346268   3.5013140  93.2858372
  77.3760265   4.0847147  93.3059597  77.9840201   2.8876914  94.0048790
  22.0859027  87.3075676  88.8846970  21.6491890  86.5561962  89.2858791
  22.0254922  87.9994869  89.5433617  71.6209835   7.1659888  91.6127968
  71.2190098   6.4954508  92.1650887  72.5293893   6.8812216  91.5131092
  35.9551501  88.5953236  92.2465515  35.2159882  87.9922485  92.3250484
  36.7114782  88.0865002  92.5386143  96.9489068  30.6576193  64.1508722
  96.2072200  30.1277579  64.4430780  97.1743602  31.1939085  64.9110031
  19.7914250  93.0299997   8.3570914  19.7334368  93.8676976   8.8165717
  19.4746191  92.3866414   8.9910941  23.9587808  81.1200237  82.2711182
  23.0940056  81.2259674  82.6675701  23.8976049  81.5831089  81.4356327
 110.9306717  89.9609947  71.5990400 110.6851292  90.4020119  70.7857513
 110.7245731  90.5942822  72.2865725  10.4382498  27.3458337   3.1160979
  10.0413210  26.9657373   3.8998084  11.0674889  27.9842233   3.4518675
 110.3810567  16.2298239  90.6645775 109.4693965  16.5130557  90.5946541
 110.4350490  15.4557742  90.1040745   4.4833548  38.7305211  19.8941664
   4.0386707  38.5152005  20.7140021   3.7826235  38.7626695  19.2428832
  50.8313990  86.7166233  82.1311760  51.4527559  86.5791798  81.4161587
  50.8765936  87.6557732  82.3105717   0.5395978 107.7587891  78.6300850
   0.8987552 106.9344044  78.9581442  -0.3931665 107.7141666  78.8403034
  17.4664099  48.6314916  12.3693804  18.3031971  49.0926790  12.3117785
  17.6107008  47.8132200  11.8941454  79.6938056  50.0146330  70.8149004
  80.2875012  49.4581355  70.3108454  78.9771098  50.2090491  70.2109289
 112.8958672  17.5584639  64.0016317 112.8780431  18.5043753  64.1471004
 113.3733195  17.2093428  64.7542191  89.9002934  96.7979813  42.9860878
  90.7068157  97.0953751  43.4071732  89.5822811  96.0922527  43.5491610
  54.4264317  76.7286968  86.3857269  53.4920692  76.6127205  86.5581989
  54.8414612  76.6373205  87.2434139  45.6375408  97.4798107  89.7845078
  45.7464838  96.8572617  89.0656185  46.4452267  97.9934788  89.7809887
  23.7815172  47.9774045  10.4220442  23.5776264  48.0757665   9.4920020
  24.6664507  47.6128053  10.4359869  33.5011959 103.2038307  78.1541348
  33.7997699 104.0760136  78.4117699  33.8934946 102.6159763  78.7997103
  24.5823145  76.3279867  79.1674089  24.1731596  75.4772425  79.0091181
  24.0488911  76.7260170  79.8553514  50.9122515  85.1261997  92.8649426
  50.9307432  85.3081131  91.9253635  51.5230656  85.7585812  93.2433987
  33.2349569  50.8702516  30.7719950  33.7350828  51.6611814  30.9733443
  32.3491556  51.1859845  30.5933814 107.6770610   3.5528792  75.1644897
 107.9483098   3.5352267  76.0822868 108.3806390   3.1015814  74.6980762
  93.7000102  23.8339079  79.3140841  94.0278357  23.1282843  78.7565327
  93.6630219  23.4495581  80.1899433 108.3966506  81.3697576   0.3661971
 107.5615490  81.6258859  -0.0252481 108.1636274  81.0430383   1.2352137
  45.4908514  79.5812941  90.9355736  46.3067102  79.6842766  90.4456806
  45.7627869  79.5660257  91.8532085  33.2863212  81.8727303  90.8824539
  33.5790396  82.7363491  91.1735058  32.9465222  82.0199108  89.9997807
  16.8231583  74.7779512  68.1982803  16.6862369  74.1698790  67.4718332
  16.1146617  75.4159594  68.1133652  27.3551638  43.5447072  16.6459136
  26.9423849  42.6848459  16.5653281  28.0637009  43.4121656  17.2757105
  21.2415767  91.5799713  82.2207642  20.4466414  91.7935753  81.7322159
  20.9433198  91.0008907  82.9221535  83.7473256  47.1649598  16.6036849
  84.5258677  47.6966714  16.4381651  83.9343435  46.3277482  16.1790328
  47.4897671  92.6987267  83.5619259  46.8016958  93.2947445  83.2660389
  47.3261452  91.8868923  83.0819321  53.3301973 108.7591839  77.2474337
  52.6118326 108.9251614  76.6369963  53.4640503 107.8122044  77.2080135
  40.6678152  99.6686459  84.7768021  39.9808884  99.4067764  85.3898239
  40.9612989  98.8479519  84.3811131  16.8096096  62.4009942  17.1626715
  16.2074501  63.1417226  17.0922236  17.3727066  62.6198625  17.9051356
  15.8115852 102.0481586  61.0042810  15.6929529 102.9969025  61.0494995
  16.5595126 101.8728161  61.5753269  91.0650134  33.7450361  10.2746539
  90.8402908  34.4103479  10.9251074  90.2280808  33.5087442   9.8747305
  95.7591361   5.0391615  82.9070950  95.5441350   4.3962229  83.5828495
  95.5649489   4.5938338  82.0823479  55.1285744 102.6011086  78.1003046
  55.8521986 102.4370670  78.7050295  54.3428755 102.3865795  78.6031771
   0.8216197  49.0729570  20.5816798   0.8184487  49.8989248  21.0654025
   0.2784569  48.4855508  21.1071829  94.7864264  11.8202818  92.9586887
  95.3235310  11.0308398  92.8913593  95.2201861  12.4544943  92.3878479
  98.4322947  33.7758769  74.2467690  98.1682795  33.5414446  73.3570671
  99.3300170  33.4526385  74.3232250  35.6046534  97.7866173  74.9448395
  35.8088732  98.4479141  75.6060553  35.3622103  97.0102215  75.4494858
  45.5620337  54.2194700  73.8214731  45.4885149  53.6202240  74.5642614
  46.4998913  54.3964577  73.7484360  48.7442714  10.2196158  68.2731915
  49.4003254  10.0168456  68.9400578  47.9683113  10.4770125  68.7710476
  39.9838710 109.4334507  85.7517815  39.2740464 109.4287205  86.3939285
  40.0769520 108.5171986  85.4909134  79.4225758  16.3203562  87.0804501
  79.1982860  17.1709383  86.7030430  79.7227687  16.5231074  87.9664612
  24.4395764  42.3680162   5.2918009  23.9996893  42.2246503   6.1297659
  25.3393967  42.0776223   5.4408888  42.1419525  88.0992699  67.9997873
  42.2372437  87.4443436  68.6913204  42.8536272  88.7196064  68.1576920
 109.5549476  73.0358266   0.6061034 110.2133191  72.8015088  -0.0480218
 108.8954294  73.5274743   0.1166682  23.1746657  64.5058107  26.8956332
  23.0943806  64.0870332  27.7526049  23.8602287  64.0086984  26.4494090
   8.7204773  69.3907308   8.2078700   9.0674288  69.9714040   8.8851218
   9.1934235  68.5679197   8.3325343  87.5067759  13.0278587   7.7832751
  88.3179105  13.5154008   7.6397566  87.5064427  12.3571395   7.1003584
  58.9707644  73.1430959  31.3284258  59.1035540  73.7289476  32.0736556
  59.2442782  72.2832631  31.6479926  90.5508554  83.7627363   7.7154021
  89.7860921  84.1080808   7.2548537  91.1357916  84.5149850   7.8059725
  29.6199083 101.1494160  74.5863485  30.0737047 101.8105984  75.1089668
  29.8527145 100.3173161  74.9982357   9.7667581  86.5018272  79.6843243
  10.1597357  86.8746567  80.4734993  10.3869462  85.8293056  79.4027090
  32.1248555  75.3453732  69.7365570  33.0179644  75.4534340  69.4095850
  31.5709639  75.7049322  69.0436268  56.3251734  65.5045223  46.9213057
  56.7330408  66.2912893  46.5595484  57.0415878  65.0413227  47.3553944
  41.3113165  84.0801525  86.0686588  41.5265131  84.9415588  85.7110310
  41.1044025  83.5470200  85.3010750  52.1319628  68.6136389  92.0396709
  51.5923166  67.8306484  91.9304085  51.8793917  68.9611483  92.8950500
  85.8999461   4.5361460  89.4909763  86.4966029   3.9306010  89.0510368
  85.4857892   4.0098322  90.1748562  58.1521100  11.4196623  90.6441879
  58.1795973  11.6246546  89.7095966  58.9029199  11.8845309  91.0135365
 108.8721293  18.6309756  74.2287970 108.4823054  18.3520354  75.0573254
 109.1594953  17.8178347  73.8135290  46.8375587 103.1717491  81.7360401
  47.6834774 102.8566456  82.0544243  46.2009096 102.8174019  82.3568058
  47.0134163  82.5639343  95.4919910  46.1832476  82.6079559  95.0175381
  47.6702976  82.4145508  94.8119736  27.6370890  84.5755624  38.7752680
  27.2655518  83.7384748  38.4969191  28.5131390  84.3553304  39.0918974
  40.3639507 100.3716278  70.5371857  40.7691097 100.0327110  69.7389269
  41.0914707 100.4717636  71.1511230  17.3466093  51.3687276   2.5859122
  16.6386206  51.7298364   2.0524458  16.9045622  50.9889936   3.3452754
  40.8427191  81.9475460  72.6450777  41.7665434  81.9853592  72.3973846
  40.6117296  81.0218525  72.5678158  82.9015085  74.9714517  13.0672507
  83.3673674  74.9461412  13.9030509  83.0828786  75.8441304  12.7182917
  66.2823391  36.7089605  19.9613528  66.2551666  36.0915803  19.2303710
  65.5054128  36.5003061  20.4800848 104.9683827   2.8218306  90.2737617
 105.0047463   2.8060473  91.2301350 105.0944442   1.9091643  90.0141811
  55.5069179  23.8432635  88.4025192  55.5999881  23.2217349  89.1245079
  56.1331159  24.5388735  88.6030769   1.3064749  98.1581353  10.6635432
   0.3955156  97.9962682  10.4182200   1.2573273  98.4954500  11.5579943
   4.8212589  24.4744624  67.3771954   5.2713550  24.0964163  68.1326532
   5.2239574  25.3355158  67.2646856  77.9403162 104.4862461  89.7135735
  78.2248020 105.3418159  90.0349808  77.9756403 103.9175892  90.4827309
  93.8307214  27.2490644  14.0105013  94.4971955  26.6529130  13.6689620
  93.7354851  27.9164647  13.3309893  41.4695787  92.2492886  90.4930496
  41.7500496  93.1642342  90.5141544  42.2749710  91.7553806  90.3393555
 115.0175822  10.0934457  37.0110182 114.4439519   9.9664449  37.7666907
 115.6730950  10.7231378  37.3110537 111.5422762  41.9689893  23.4003977
 111.3157022  42.4943971  22.6330332 112.2140873  41.3637590  23.0864005
  10.2850468  57.5698995  12.2937445  10.9975178  56.9314241  12.3248724
  10.7232077  58.4118890  12.1700530  27.2110057 108.4567547  90.5574036
  26.4842725 108.9823532  90.2229881  27.1866226 108.5897732  91.5050030
  32.9175258  82.4527645  81.7232227  33.7343526  82.4110794  82.2205067
  32.6079226  83.3501530  81.8459797  36.8196964 103.4817219  87.5863457
  37.1211791 104.3452168  87.3040009  37.2335243 103.3506870  88.4394646
  62.5414795   1.4637602  72.3288488  62.8839320   0.7040728  71.8578529
  62.3047441   1.1238230  73.1917715  69.7182554   4.6659602  89.1676712
  70.1928634   5.4972018  89.1639137  69.1479868   4.7122897  88.4002781
   3.0930198  13.5954512  69.1192722   3.7729133  13.0277575  69.4821644
   3.4234584  14.4831694  69.2571259  91.6030425  12.4133814  50.6887245
  92.1052617  11.6064490  50.5753088  90.8112830  12.1396292  51.1517715
  39.5852358  49.0014409  21.2646155  40.1132757  49.6258497  20.7671122
  39.2531950  49.5064592  22.0068697   2.8997547  51.0555505   4.3721632
   3.4730560  51.6708802   3.9150862   3.3940727  50.2360677   4.3905310
  66.6102266 108.7153625  86.5540600  66.4591217 108.3017731  87.4039650
  67.0275927 108.0340385  86.0269642  54.8850012 104.8096657  85.0735188
  55.6984234 104.9925995  85.5437374  54.2050457 104.8514748  85.7459354
  33.4451747 101.0963726  63.5862780  33.6059475 100.1613426  63.4593630
  32.5170732 101.2097931  63.3813524 107.2991932  41.8653440   2.6008944
 106.8396557  42.6264619   2.9555087 106.9760120  41.7871904   1.7033057
  31.7670774  99.4879627  42.2434139  32.5284600  98.9894581  42.5400877
  32.0607901 100.3989792  42.2476768  34.5367415  52.7911710  21.3594012
  33.9387066  52.3071908  21.9289164  34.1984398  52.6436281  20.4762129
  99.8846930  14.5175780  81.5201283  99.8003549  15.4539622  81.6998386
 100.6967086  14.2618979  81.9577217   5.7280029  42.0538844  75.1585865
   5.4031623  41.5294684  74.4266796   5.9170306  41.4149130  75.8457613
  56.8458748  67.0446491  91.8714714  56.7675114  67.4523687  91.0089970
  56.3344812  67.6095343  92.4507904  13.2534058  66.1405896   1.8049197
  12.6396305  65.4097127   1.8779997  12.7283747  66.9152784   2.0059733
 101.0200566  18.7878264  74.6143436 100.5538577  18.3686007  73.8910580
 101.8587607  19.0531195  74.2369509  27.6708293  85.3902149  79.1225958
  28.2772493  86.0891342  79.3675470  28.1868577  84.5876503  79.1990709
  53.3173926  60.2675390  36.9395976  53.0818636  59.4218683  36.5580134
  53.3622057  60.1012849  37.8811793  11.1815722  65.4978036  18.8483958
  11.5323956  66.3145017  19.2036013  10.3033192  65.7266568  18.5442023
  64.7533178  54.7887087  94.5813847  65.0393534  55.5600739  94.0920925
  65.4277182  54.6651030  95.2493191  34.8464704  78.7605858  88.3557796
  34.8376441  78.5453606  89.2884350  35.0276232  79.7000885  88.3284855
 103.4849727  22.1467828  14.6662764 104.0792787  21.9069671  15.3772692
 102.9012168  21.3933849  14.5776515 105.5721796  58.7899541  18.6382346
 105.9346974  57.9748391  18.9852004 104.7049415  58.8556814  19.0380053
  99.0548343  38.3650626  91.7111778  99.7960204  38.0768527  92.2439194
  98.2836741  38.1369627  92.2303295  57.4850065  75.8288240   9.6948676
  57.5330717  74.9586438  10.0907378  56.6693289  75.8194017   9.1940646
  55.5699062  99.9343967  83.2987976  55.1113081 100.6920815  83.6618805
  55.1686668  99.8004341  82.4401379  49.1058905  46.3066816  12.9886965
  48.5723765  45.9131479  12.2982459  49.2266924  45.6043386  13.6277155
 116.3437522  61.1398362   0.5255084 116.2985480  61.5493631  -0.3384824
 115.5638135  60.5866670   0.5694632  87.7787495  54.5613050  40.2179102
  87.2532416  54.5609807  39.4178633  87.2382778  54.1005849  40.8596663
 107.9157961  53.6965322  25.5204253 108.7434209  53.7903356  25.0487570
 107.7189291  54.5783662  25.8364157 106.2843716  79.5570230  17.0527796
 106.2932551  80.2944040  17.6630454 105.3566683  79.4095754  16.8687777
 105.8824194  32.1849775  22.7972750 106.7957580  32.3765134  23.0102496
 105.5681694  32.9751539  22.3578410  56.0685587  89.2848110  49.2885876
  55.2209330  89.0235043  49.6484137  56.4974308  88.4595108  49.0623713
 113.2547081  48.8329458  16.5625433 113.3811224  48.9971971  15.6280570
 113.7606013  49.5196294  16.9970088  46.9925356 100.6850052  90.3149223
  47.9439068 100.5832100  90.3426075  46.8561411 101.6185951  90.1535797
 111.2349260  56.8718862   4.8731284 111.7910922  57.4865102   5.3518157
 110.4745090  56.7450761   5.4405074  87.9150867  89.3018246  89.5523834
  87.0368862  89.1151428  89.2205048  87.8040218  90.0791168  90.0998402
  51.4943457  82.8331375  55.6455421  50.9131908  82.0955181  55.4600620
  51.9846630  82.5624561  56.4217806  32.7464104 107.4292088  93.3307648
  33.0076861 107.7998924  94.1737175  33.3245897 106.6758442  93.2108784
 105.7336200  78.8753843   2.6878218 104.8287285  78.7038564   2.4270873
 105.9371460  78.1827878   3.3163981   3.2315809  98.3156967  79.4545364
   3.4428948  98.8938999  78.7215614   2.7291238  98.8652611  80.0559902
  46.7577171 100.8055305  93.3838654  47.4152708 100.6651878  92.7025795
  46.1602545 100.0627804  93.2967377 109.6243537  18.0327367   0.2136950
 109.8510158  17.3301935   0.8230261 109.7563112  18.8370084   0.7156615
  52.5085884   3.6957968  65.6488848  52.0971090   2.9409636  66.0697651
  52.8227729   4.2335452  66.3757610  22.1173763 109.5896816  83.2605267
  21.9753265 109.4251060  82.3283386  22.7990937 108.9668083  83.5125542
  35.4804070  69.4027089  10.7405715  35.4358370  70.3204583  11.0088496
  35.6075937  69.4362401   9.7924475  16.4196236  64.5266294  49.2468695
  15.4857857  64.7329950  49.2070155  16.7082626  64.5456075  48.3344225
  16.8304140  40.7372522  21.5858798  16.6931851  41.6755246  21.4553122
  17.1066315  40.6603956  22.4991278  93.9284438 107.2641288   1.2295203
  93.5532683 107.8315411   1.9029669  93.2121438 106.6789876   0.9830527
  29.1093397  83.9118195  72.5451851  29.5146847  83.0778217  72.7826262
  28.9526081  83.8424301  71.6034603  39.9369747  50.0717687   2.2823958
  39.0540821  50.2917051   2.5796561  40.4995281  50.2791833   3.0285506
  79.4686908  24.1863001  78.3221149  79.9557990  24.5509184  77.5831890
  79.9191350  24.5243205  79.0961123  77.0155090  25.2450598  85.6845951
  77.9337758  25.3869570  85.4546356  76.6845459  24.6628321  85.0007057
 104.2466462  71.7134332   4.2793421 104.9026049  71.3558053   3.6809687
 103.4642184  71.1854696   4.1203074  59.7989035  86.0800266  87.6740646
  59.4188404  85.4617882  88.2982254  60.7283735  86.1085701  87.9010010
  42.6585197  86.2459087  70.1269007  42.5640154  85.3246021  69.8850489
  43.5801458  86.3366699  70.3689671   9.6965105  44.5621633   5.2427153
  10.5042059  44.9050855   5.6251578   9.9376280  44.3241071   4.3474917
  43.4381390 106.3741398  81.4083004  43.3081484 105.4978943  81.0456276
  42.6015425 106.8177509  81.2684917  20.7889397  67.8274488   4.8079733
  20.4682953  67.0718431   4.3155531  21.5898163  67.5161313   5.2297644
  -0.2073496  65.2093171   5.5897383   0.6358654  64.7747278   5.7176260
  -0.3665512  65.1507520   4.6476893  47.7110100  85.0455189  87.6903725
  48.3741140  84.6462822  88.2535267  48.2063818  85.4032040  86.9535542
 114.0367735  28.8039636  15.4126124 114.3360651  27.9419374  15.1235442
 114.8166335  29.2159700  15.7844977  99.1096247  44.7586774  11.6677336
  99.8344982  45.3817605  11.6172270  98.5849083  44.9379205  10.8874945
  92.7687091  18.7764967  59.6844387  92.3071641  18.6744536  58.8520956
  92.1016711  18.6092413  60.3502655  36.6701269  99.8159981  88.2173634
  36.4879346 100.3197289  89.0106392  35.9106541  99.9707317  87.6556683
  92.9268426  25.0521887  51.9562006  92.0186919  24.7679175  52.0595741
  93.3453053  24.3438853  51.4668846 106.7116940  71.5767144   8.8974051
 106.5264142  72.2937345   9.5038561 106.5682638  71.9539975   8.0294661
  67.8509712 108.9007092  56.2016726  68.3886576 108.7455654  55.4251099
  68.4831333 109.0349960  56.9077730  36.0635788  36.9722699   9.3882994
  36.1312945  36.1031389   9.7835974  35.6503946  36.8175172   8.5388522
  31.4853048 100.8174610  70.4287958  32.1560526 100.1367283  70.4830027
  30.8327127 100.5631733  71.0812473 108.0899275  29.5677041  22.1915297
 108.0523169  30.5133485  22.3349814 107.9479230  29.1880750  23.0586771
  64.8517054  24.8271788  82.0140076  64.8008245  25.1316870  81.1079597
  65.7668561  24.5715655  82.1297455  13.7219460  41.8379449   7.7229933
  13.2204039  41.6484975   6.9300227  14.6102745  41.5446328   7.5203280
  26.8070006  89.4776630  59.7006226  26.2450194  89.2968750  58.9471483
  27.2949266  88.6653519  59.8358822 111.9002170  29.5493353  87.8376007
 112.1572751  28.6425532  87.6705837 112.1302766  29.6984614  88.7546921
  89.3524170  23.2185745   9.7251372  89.4755376  22.7724790   8.8872389
  90.1687074  23.6991309   9.8628478  83.9618653   0.7358492  84.8095036
  83.7638635   1.0256995  83.9189911  83.4160870  -0.0403272  84.9356651
  79.4465274  57.4214781  55.8451462  80.1453799  58.0634726  55.7198858
  79.5725125  56.7891921  55.1376486  38.3020306  97.6602173  83.3722305
  38.1666088  97.9975796  84.2577076  39.2529678  97.5976562  83.2825851
  17.6389074 102.7981472  66.1755514  17.7412188 103.1861591  67.0445824
  18.4779024 102.3705387  66.0038900  28.5344315  93.4593201  61.1310196
  28.3316255  93.8713741  60.2911949  28.2725310  94.1072083  61.7851400
  58.5740137 109.7484398  86.5391159  58.4738302 109.6397591  85.5933952
  57.7172756 110.0540543  86.8371677  67.7346611  81.0293674  85.3957844
  67.8950453  81.6223907  84.6617317  67.3111629  81.5762901  86.0574150
  67.7458334  90.3460693  64.7245741  67.4421167  90.3440094  65.6323099
  68.4243345  91.0208321  64.7005653  26.1224730  33.5595083  22.4002985
  26.2690384  34.5043420  22.4455504  25.1701147  33.4655809  22.3796324
  76.7724562 109.4292450  88.7998486  77.2375727 109.8991585  88.1076908
  76.4389801 110.1181412  89.3746853 109.3061865  68.6576890  26.0248618
 109.7488439  69.4765710  26.2478308 108.3807814  68.8946008  25.9637503
  20.2445013  46.3904905  14.5875220  20.7747967  46.1914396  13.8159041
  20.5318577  47.2628450  14.8570876  90.3642577   2.9838408  49.5202780
  90.3523845   2.7048434  48.6047220  91.0504311   3.6501158  49.5587444
  26.3683319  87.6218700  80.8672237  26.8447447  88.0121803  81.5999794
  26.9722605  86.9719791  80.5078697  52.3479319 101.6934586  82.9289722
  52.1694708 100.7534027  82.9031181  52.5368214 101.9264793  82.0199871
  18.1862623  56.9069528  16.5513949  17.3977453  57.4334192  16.4198546
  18.6567862  56.9685125  15.7200961  39.9740434 109.6629810  63.7288713
  39.9234080 110.5304337  63.3273840  39.7225833 109.0601540  63.0291557
  61.1117906  12.0965613  71.1975050  61.9277471  11.6103781  71.3161325
  61.3902158  13.0022181  71.0615396  40.3375006  83.7470818  67.6029205
  40.5607176  83.4888935  68.4972048  40.8912754  84.5079899  67.4280214
  15.0453258  85.5595970  92.5701618  15.6588912  85.6330013  93.3011723
  14.1836238  85.5137253  92.9843998   2.9121477  34.8660993  15.0805811
   3.8216478  35.1209497  15.2357916   2.4777968  35.0039338  15.9223513
  74.9794740  12.0584715  48.8199663  75.6020278  11.6494883  49.4211245
  74.9800080  11.4889945  48.0506086   7.6903088   4.3604087  13.7824301
   7.1580774   3.6342429  13.4573988   8.4849531   3.9442062  14.1164164
  25.6110740 109.6441650  45.6650686  25.0687313 110.2051353  45.1106215
  25.5213475 110.0159836  46.5425253  54.9256277  68.8040066  93.0328941
  54.2226028  68.5447502  92.4372673  54.8371553  69.7540951  93.1086826
  51.5003920  75.3295517  84.2543793  50.5579233  75.2643919  84.4084454
  51.7608261  76.1355019  84.7002983  25.5808520 104.2769146  64.8226547
  24.9869704 104.4156837  65.5604076  25.5002832 105.0729847  64.2972946
 107.0911044   0.6126536  91.2606525 107.3660439   0.3841628  90.3727150
 107.4521178  -0.0833475  91.8097305  88.5482615   2.2442759  90.5004787
  88.9404077   1.4450110  90.8520794  88.3364028   2.7672900  91.2736511
  43.5737514  95.6882954  65.3440285  43.2242489  95.4382420  66.1993361
  42.8963900  95.4233837  64.7217464  36.8345523 103.1156921  68.0870104
  36.3190961 103.8909912  68.3093786  36.1835027 102.4546051  67.8518057
  14.8514540  62.6345872   6.2208323  14.6424992  63.5608243   6.0997729
  14.0249855  62.1795129   6.0592894  19.0060246  93.8546944  83.8846493
  18.2417071  93.3018112  84.0470219  19.0682757  94.4112682  84.6609116
 113.3899629  46.1566877   5.2970938 113.5344565  46.6955423   4.5192770
 112.4939597  46.3595342   5.5659155  91.7497748  16.3655795  78.4232044
  91.5254706  15.6481780  79.0158749  91.1863107  16.2317122  77.6610899
  52.3360491  83.9319515  82.2971439  52.7849913  84.6255493  81.8138218
  53.0012417  83.2540989  82.4166107  41.7695427  78.9410019  93.3028412
  41.3710690  79.6531582  93.8031292  42.1453905  78.3629560  93.9667988
 113.1275905  45.0778531  32.4894576 113.1646526  44.2942762  31.9409422
 114.0050543  45.1488542  32.8652911  53.7533552  61.1891031  19.5029692
  53.5371382  60.2620935  19.4022421  53.0696947  61.6488313  19.0156416
  19.4772243 101.1884880  64.6509314  20.3654814 101.5145016  64.7956610
  19.4326282 100.3800964  65.1615572 109.4507951  28.2659472  46.9669247
 109.9859828  28.5149516  47.7204514 109.5535678  28.9907301  46.3501883
  81.4685795  19.9312162  36.0891966  82.0437736  19.2086124  36.3406519
  81.9944796  20.7176875  36.2345366 101.3434714   5.0292815  54.0731049
 101.7434377   5.5838049  54.7429991 100.6076116   4.6089495  54.5181608
  76.7798233 108.7166977  84.2446613  76.8145180 109.4869804  83.6774826
  76.4459610 108.0189419  83.6808300  89.1607905  51.9702482  -0.0504728
  90.0770283  52.2180223   0.0734000  89.0407920  51.2065362   0.5139498
  41.8444967 101.4404202  73.1007719  42.2356415 100.8775997  73.7689590
  41.9860554 102.3301315  73.4241962  29.3280584  64.6626806   3.6909155
  29.3567354  63.9737939   3.0269579  28.4271557  64.9848985   3.6629824
  82.1195287   8.9385260  84.4516373  82.7831811   8.2501639  84.4075489
  82.2485846   9.3409861  85.3104782  39.1451437  65.5990075   3.1364302
  39.5753605  65.6330919   3.9908175  38.7021525  66.4438485   3.0574660
  45.8271582  84.1348886   2.3204760  45.9483606  83.1998300   2.1555476
  46.4951975  84.5613336   1.7837195  52.1185261  30.6552924  79.3672419
  52.5150603  31.4235438  78.9564133  52.4151224  29.9182738  78.8333321
 106.8891734  17.6201380  63.4805346 107.8354854  17.6760233  63.6132050
 106.5924186  16.9881953  64.1353703  71.4100021  13.6664427  89.9387264
  71.8735475  13.3945788  90.7308388  71.3767952  12.8773535  89.3979168
  68.7838125 104.1958141  90.3314877  68.9620638 103.8453102  91.2041855
  68.4235954 103.4545517  89.8446465  65.2986831   8.0231131  52.9157734
  65.6108684   8.3010233  53.7768984  65.8770198   7.2999609  52.6732635
  11.3459999  18.0082940   8.7699751  10.9010489  17.1864175   8.5631709
  12.0025761  17.7673387   9.4234900  60.6116170   7.5153483  91.2311554
  60.8921141   8.4227980  91.1124706  61.4210314   7.0354594  91.4066410
  46.9444323  90.5723190  73.9063931  46.2948942  91.2055874  73.6009359
  46.7896080  90.5060005  74.8486567  74.1853476 106.5504456  94.9803925
  74.9611425 106.0110760  94.8272324  73.9093494 106.8266964  94.1064739
  18.1732685  37.2220563  30.5182318  17.5903780  37.8084230  30.0359015
  17.5924475  36.7334031  31.1014132  14.8208077  37.9316758  32.6348834
  14.0377361  38.4793710  32.6901679  14.7241051  37.3026513  33.3498721
  68.6324120 105.0156498  80.2131844  68.3508921 105.6985950  79.6044397
  68.6652803 105.4522324  81.0643864  62.1712112  93.9719105  40.0674248
  63.0198383  93.9491272  40.5096292  61.7781162  94.7990322  40.3459644
  77.2447390  18.4678973  75.8636808  76.4704222  17.9080809  75.8064795
  76.9001526  19.3593825  75.8113909  70.0903887   1.7921580  70.6258440
  69.2713899   1.5846289  71.0757399  70.5431575   2.3930014  71.2176371
  97.0692271   9.9495162  79.2873144  96.7315835  10.8431567  79.3475246
  96.3881225   9.4086874  79.6871185 107.8291530   8.4415472  76.8268013
 108.7262124   8.3133830  76.5184355 107.9225844   8.9574564  77.6276398
 104.4126767  -0.1511346  58.5114431 105.1740045   0.4281081  58.5442877
 103.7960595   0.2963675  57.9320002  62.9997587 104.6142673  80.0782967
  62.4654627 105.3322887  79.7388601  63.8217497 104.6766567  79.5918083
 103.3045006  92.9153347  87.9972363 103.8380814  92.1464634  87.7963448
 103.8969040  93.5016632  88.4678650 101.0326827  44.9785375  25.8460860
 100.3767979  45.6757020  25.8494238 101.3143981  44.9190950  24.9332194
  66.5356588  98.7676239  81.3611794  65.5840921  98.8653278  81.3265038
  66.7333174  98.1096077  80.6947231 108.7931174   3.8975466  69.0344715
 108.3004159   3.1644095  69.4032383 108.8329476   4.5398844  69.7430229
  95.2111215   5.5460776  87.8002262  94.3389434   5.3531111  87.4562836
  95.8069772   5.0659789  87.2251701  75.9120578   6.2721289  76.3707876
  75.7044953   5.4078139  76.0156822  76.0331339   6.8253554  75.5990934
  70.9340638   6.6805972  84.7115707  71.1501831   5.9305800  85.2656555
  70.9670276   6.3363780  83.8190174  94.8351020   3.5262049  61.5574551
  94.0028066   3.1396330  61.2852716  94.7137565   4.4675959  61.4338017
 105.6311024  89.0108060   2.1181826 105.2399528  89.7725438   2.5459628
 105.1140941  88.8917779   1.3214640  21.6835816  51.9762563  30.2878241
  22.2256310  51.6513299  29.5689158  21.7040903  52.9284143  30.1918368
  92.8151989 102.7793026  49.0992117  92.8834248 101.8247318  49.0800428
  93.3602142 103.0435467  49.8403978 105.7841700  13.0645407  83.4139824
 106.0161418  12.5242079  82.6586914 105.9915656  13.9584578  83.1417179
  45.4628641  46.5073442  13.0288271  44.5217020  46.6788625  13.0609564
  45.5730612  45.6857251  13.5073905  84.8815793  -0.3502523  90.8243179
  85.1094884   0.3991545  90.2741528  84.2736739   0.0048197  91.4728546
  30.0299597  59.3090153  54.9576044  30.4046798  59.9584866  54.3626213
  29.3448424  59.7830629  55.4289055  23.1849635   7.1241988  93.2087612
  23.3538783   7.7577342  92.5113869  23.7671531   7.3904265  93.9203835
  82.2357863  19.2409838  69.8787642  83.0651683  19.2558897  69.4011354
  82.1768063  18.3519495  70.2285910  86.2784404  22.4867857  89.7975731
  85.9680671  23.2435263  89.3003368  85.5437297  21.8734015  89.7837543
  40.9475136 100.1602554  55.6072378  41.1191702 100.2165127  56.5472364
  41.7007303 100.5882645  55.2001762   5.6082804  61.8156099   8.3081774
   5.9901125  61.2298631   8.9618926   6.2317211  62.5388574   8.2413725
  50.1873446 109.4217682  81.6176605  50.0576448 110.2435112  81.1442280
  50.7529974 108.9026928  81.0459709  49.6188927 104.8378563  55.6055164
  50.5078363 104.5318222  55.7853889  49.3709850 105.3277302  56.3896084
   6.3919289  61.6505575  11.5029101   5.4570086  61.5633439  11.3170294
   6.4508850  61.6127157  12.4575381  26.6271288  56.8127870  23.4493403
  26.8473322  57.3950147  22.7221827  25.9461004  56.2387418  23.0987601
  37.0698833  88.4611893  54.8062658  37.2979498  88.8095665  53.9443779
  37.0493627  89.2291641  55.3772497  95.5132294  91.2555790  90.6248856
  96.3027287  90.7555866  90.4176807  95.6690311  92.1188545  90.2418613
  27.3943169  65.3534650  22.8498320  27.5041134  64.9667596  23.7185339
  27.7043564  64.6783685  22.2462134   1.7990524  76.6182184   7.7629141
   2.5693686  76.0506868   7.7902941   2.1321995  77.4854802   7.9933314
  97.4971026  27.8436697  74.1664362  97.3162526  28.7466086  74.4276619
  97.6674622  27.3857535  74.9895477  77.0313341  25.9014463  17.2241358
  76.7297537  26.6758584  16.7491965  76.3217432  25.7039785  17.8354697
  39.1151667  81.6328526  66.0423040  39.5117116  82.4837399  66.2293291
  38.9942312  81.6284847  65.0927877  25.5996544  35.1588582   9.5518546
  25.0190003  34.4007062   9.6173052  25.4493363  35.5002736   8.6703352
  82.8472203  24.0858878  63.1687307  82.8809470  24.6818484  62.4204540
  82.6120347  23.2388724  62.7899170  40.1963234  99.5915127  67.1130896
  40.9020519  99.2058182  66.5940332  39.4957876  99.7542000  66.4814091
  33.1283457  41.3114499   1.2502818  33.0336411  42.1621751   0.8218722
  32.3177321  41.2020921   1.7474513  20.3710044  11.0983122  61.2918329
  19.4172443  11.1783064  61.2785006  20.6441653  11.3417853  60.4073381
  92.2893876   4.5205248  49.9886751  93.0145091   4.5723094  50.6113720
  92.2137469   5.4067172  49.6348858  92.7197284   4.7842635  73.8419962
  93.1762952   5.4552973  74.3494225  92.9512137   3.9605750  74.2711687
 101.7724818   7.0839919  78.1998205 101.8182057   6.2825907  78.7212610
 101.0445279   7.5758112  78.5798597   3.6404384  10.9725893  76.6210461
   3.0809558  11.6603602  76.2602377   3.3287204  10.8565272  77.5185919
  10.0540192  52.3959016  17.9834227  10.9700377  52.1524476  17.8497366
   9.6350367  51.5921735  18.2911543  73.5044193  94.9521446  80.3260517
  72.8389692  95.3873062  79.7931004  74.1449070  95.6375980  80.5161953
 101.8334961 104.3976974  82.0275593 101.4781666 105.2258015  82.3503971
 101.9618225 103.8689041  82.8150463  29.5903952  51.9783258  23.2669310
  29.2143423  52.1918058  22.4129729  29.1855032  51.1443471  23.5052161
 100.8132428   4.9794901  82.6949787 101.1241931   5.3568305  83.5178757
 100.3000182   5.6785143  82.2897720  41.8710024  39.0167379  15.6630282
  41.8744738  38.1190728  15.9953265  42.5267107  39.0165281  14.9656920
  36.0640109  24.1680087  82.9650211  35.4466499  23.7760199  82.3474026
  36.6105808  23.4371603  83.2537365  59.4766409  40.3852510   0.4462866
  58.5554201  40.5553388   0.2496962  59.6949846  41.0145234   1.1337332
   2.9135955   6.4323939  77.2389889   3.6364711   7.0504702  77.3469353
   2.8829063   5.9527911  78.0668020  40.8484419  10.0758971  79.3781471
  41.2195574  10.7846011  78.8525581  41.1710854   9.2758406  78.9633608
  52.5037575 105.9151649  71.6315079  52.2359276 105.1205349  71.1699247
  53.4605026 105.8884621  71.6190243 102.3303288   8.3696021  68.0989313
 102.2703904   7.4493350  68.3553362 103.2693786   8.5331763  68.0113792
   5.5441696  19.4127368   2.0703272   4.8505432  18.7539005   2.0379500
   6.2107165  19.0309047   2.6414256 104.9568147  26.2491263  62.9344893
 105.1709670  26.6105116  62.0743847 104.0953559  25.8483923  62.8181744
  33.0214739  96.1038589  64.4382477  33.6060524  95.8349705  65.1469088
  32.1489644  96.0969067  64.8318338   1.3129646  22.7785491   2.9612021
   2.2226889  22.9957437   3.1648116   1.3125450  21.8276595   2.8514342
  19.2529423  69.4971608  11.8230872  19.4352324  69.7416257  10.9157614
  18.8211186  70.2656888  12.1960787  98.2881802  20.8362044  81.8991756
  97.8197831  20.1734866  81.3915825  98.5232562  20.3920210  82.7138424
   0.0828607  67.0221757  10.0658087  -0.6559127  66.7058515   9.5458178
   0.8517773  66.6277265   9.6542124  97.3533935   0.3362788  57.7750015
  97.3936242  -0.4722559  58.2857752  96.4327258   0.5959071  57.8096390
  53.1814718  93.6195850  71.8150091  52.4906826  93.2163811  72.3408175
  53.3498812  92.9878902  71.1158466  89.4130248  11.1041773  89.7441864
  88.4911364  11.0186327  89.5012093  89.6336907  10.2640189  90.1462841
  99.9641580   2.9808177  88.2662964 100.5427712   3.7280310  88.4183407
  99.4557256   2.9034365  89.0736008  88.4481371  51.7183637  20.5492167
  89.3022228  51.4277601  20.8690886  88.6250925  52.0645761  19.6745448
  51.2528610 105.0822735  79.8476458  50.7721138 105.4410744  79.1017389
  50.6208324 105.0907993  80.5664635  83.9159584 101.9520283  53.5261488
  83.9412880 101.7906761  52.5829887  83.3494663 101.2623215  53.8720036
  87.8192014  10.6109179  84.7496223  86.9450540  10.5181159  85.1284218
  88.4155148  10.4378546  85.4781151  86.8117809  84.5896149  70.1366186
  87.2163582  85.3238392  69.6746016  86.1363220  84.2723560  69.5371723
  72.0680046 108.1975746  81.1641121  72.3542261 107.6845264  80.4084015
  71.2362909 107.8002453  81.4222145  96.3952321  36.4959086  51.6036320
  96.5031976  36.7654646  50.6915379  96.1508769  37.2990931  52.0634317
 115.2935523  10.1808871  84.9485111 114.9144000  10.8475436  84.3757629
 115.7081431  10.6783713  85.6533909  96.6304302  91.3820171  67.4793577
  97.3993778  90.9246731  67.1390915  95.8873558  90.9376431  67.0711899
  93.0351800  18.1007613  84.9176693  92.4830836  18.8823260  84.9416828
  93.9032716  18.4127940  85.1731873  56.9349939  77.6369237  27.3631815
  56.6203673  76.7333078  27.3364405  56.2535269  78.1138944  27.8368144
   2.9752762  65.2663469   8.6460738   3.7166006  65.7744169   8.3166365
   3.3265383  64.7906446   9.3987803 101.7532539 109.8011684  47.3015356
 102.4666214 109.7220516  47.9348469 102.1340752 109.5075417  46.4738941
  89.3062878  84.2395115  77.6282215  88.9583778  84.9388790  78.1814623
  89.0652180  84.4959259  76.7380762 107.7301377  44.5035780  54.1930580
 106.9920224  44.5173396  54.8023415 108.4996432  44.6392859  54.7459316
   3.3267272   4.4368495  54.5108557   3.3404887   5.1945151  55.0956583
   4.2387355   4.3246401  54.2427397 111.7290616  33.2553506  73.4821320
 111.5790915  34.0593338  73.9794731 112.3947894  32.7843404  73.9833164
 116.4176351  45.6966591  61.0474253 116.4293552  45.0143576  60.3761864
 117.3396886  45.9147453  61.1833906 104.4254583  27.0249391  67.9889488
 104.1602271  27.3597002  68.8455820 104.8617666  27.7651691  67.5671339
  18.7980390  14.3303943  80.0987339  19.5238447  14.7944665  79.6815109
  18.1383669  15.0066459  80.2528381 111.1741387  46.7290401  70.3057241
 111.6847759  47.1511030  69.6148205 110.3154647  47.1495199  70.2597761
  13.4160113  26.4462399  56.9338894  12.6965582  26.1526155  57.4928188
  14.2027295  26.0979176  57.3533869  83.6079794  28.4984303  78.8829803
  83.4996777  29.2175317  79.5053959  84.1591268  28.8623214  78.1901217
   1.2420304  53.1539202  66.6574526   1.8622363  53.8807058  66.5994883
   1.6084471  52.5794077  67.3296928  10.9362197  26.1409760  50.4834318
  11.5444875  25.6053114  50.9926510  10.7021701  26.8605208  51.0696983
 116.9541694  40.6074476  44.9868822 116.2340757  40.8976984  44.4270134
 116.7825542  39.6774769  45.1349735  12.9090732  88.3360706   5.4192786
  12.3170394  88.9966832   5.0596575  13.0489415  87.7219902   4.6984629
 104.0489453  33.3403158  75.0872660 104.1967517  34.2780447  74.9645805
 104.2303830  32.9550743  74.2299986  95.8994537  33.8692856  52.6085949
  96.0938125  33.4674001  51.7618704  96.2016850  34.7731590  52.5197220
  99.6624070  17.1941793  81.4626884 100.1451939  17.2776902  80.6403828
  98.8257557  17.6276457  81.2942982  11.7136562  34.2415285  57.8677177
  12.4921370  33.9867926  57.3724318  10.9817767  34.0354776  57.2862339
  22.2110915  25.1791883  78.4094667  22.4098754  24.6866965  77.6131153
  22.5790501  26.0486102  78.2515240  20.6962323  12.4440193  83.4842682
  20.0985432  12.4690020  82.7370262  20.4467416  11.6543210  83.9642334
  56.2608111   0.5091571  11.6105418  55.8857739   1.3475370  11.3409094
  57.1445215   0.7264566  11.9072966  15.6102073  42.9534435  44.3855715
  16.2459552  42.2381639  44.4064188  15.5830371  43.2230520  43.4675264
  10.1849878  14.4208300  31.9377947   9.6369565  14.0872526  31.2274289
  10.9064651  13.7946653  31.9979644 106.1779033  98.3869146  77.7710104
 105.7261001  97.7140354  77.2617531 106.6818296  97.8972947  78.4210539
 110.3991192  10.2383292  53.8505030 109.7894501  10.8055711  53.3785152
 111.2629699  10.6037664  53.6595821   4.4165131   0.3258765  83.8297176
   4.2224503   0.0267417  84.7180271   3.5998964   0.1927851  83.3484077
   1.2856370  44.2679119  55.9699440   1.4309999  45.1001406  55.5199432
   1.3960755  43.6047268  55.2886057 114.4836842   9.2037070  65.9142113
 114.0723347   9.6751451  65.1898003 115.0764416   9.8426723  66.3099289
  20.6455469  51.2728548  69.5396757  20.5427623  50.6134605  70.2258730
  19.7525215  51.4560032  69.2477989 109.3225932  33.3773494  67.6051807
 109.0044236  33.7114525  66.7665052 109.5937520  34.1587543  68.0869579
 105.9058541  45.6587458  44.5479631 105.8466261  46.4910412  44.0789175
 106.1665707  45.0251436  43.8795280   7.4045092  64.1109467  41.7865753
   6.5172058  64.0916395  41.4280319   7.4715358  64.9647093  42.2141552
  83.4732419  10.8057499  48.3710432  83.0654102  11.3673902  47.7119017
  83.2909566  11.2419665  49.2033386  87.4011289  99.0711140  57.8953123
  87.8279095  98.4775876  58.5132265  87.0175510  99.7541820  58.4453297
 113.4626069  43.8532162  82.5360012 113.6465755  43.4289169  83.3740711
 114.2558923  43.7152004  82.0184326   3.1195176  26.1957169  58.2001638
   4.0704647  26.0864854  58.1997967   2.7767193  25.3106451  58.0761862
   6.1107206  82.3580456  90.8828068   5.2974766  81.9057751  90.6585026
   6.3926595  81.9515705  91.7022705  28.9638430  76.3742600  10.6230216
  28.3109337  76.8488775  11.1374907  29.7962964  76.7869268  10.8531622
 107.0172214  50.8398008  55.3431511 107.7978336  50.7765579  54.7928047
 107.0791518  51.7048836  55.7481575 116.7679285  32.1611476  87.1222496
 116.0597176  32.8050494  87.1146488 117.0085306  32.0588613  86.2014484
 102.7526390 104.9693190  45.2294350 102.2781264 105.5202275  44.6068859
 102.3124015 105.1193826  46.0660410  41.0767740  71.8699835  42.5651507
  42.0043993  71.9761000  42.3542456  41.0187365  72.0726143  43.4988551
  40.9701920   6.9761568  23.7505913  40.2670431   7.5111616  24.1188002
  41.3067770   6.4775789  24.4951463  86.0553246  28.9448810  35.2040005
  85.6136614  29.2460155  34.4099712  85.8845335  28.0034184  35.2306843
   6.7769426  52.9677296  71.6313171   6.6694450  52.0170069  71.6596985
   6.1929107  53.2953262  72.3152924 114.4862261   4.4016370  72.2569942
 115.1742875   4.0326327  72.8107405 114.0832513   5.0816476  72.7968359
  30.7297206  20.7312346  71.5439749  31.3854241  20.2727628  71.0185337
  30.6409287  21.5864348  71.1232853 107.7239000  24.1727662  78.7071896
 106.9488203  23.8898802  79.1924286 108.1509703  23.3581972  78.4420061
  17.2689998  31.5885329  67.4572563  17.3019111  31.3482404  68.3832216
  18.1853795  31.7091560  67.2083950 111.8787807  14.0388203  68.4575367
 112.2103291  14.6126020  69.1482496 112.3761466  14.2891252  67.6789427
   5.1740831   6.2334514  66.4166546   4.9182507   6.1102766  65.5025387
   4.6171981   5.6271338  66.9050074   6.1502504  27.7090144  77.1245766
   6.2501037  28.2812405  76.3637733   6.1210769  26.8254638  76.7575359
  28.6114115  90.6886802   7.4085669  29.2147780  91.2736831   7.8667788
  28.9127082  90.6976138   6.5000681  69.1234057  98.7584399  91.0992813
  70.0131690  98.4617709  91.2904453  68.5751974  97.9903161  91.2595463
  92.4474984  18.6526608  94.5246315  93.2962495  18.2387888  94.3679047
  91.9802242  18.0352390  95.0873661 111.1147218  47.7991629  65.4006386
 112.0232129  48.0942059  65.3387785 111.1525630  46.8637609  65.2010870
 101.3533669  68.3910084  89.4320965 100.9241837  69.1992998  89.7126293
 101.0363036  68.2485580  88.5402393  41.9753650  82.3318373  12.2600894
  41.3734257  83.0476938  12.0564990  42.7543643  82.5174914  11.7357592
  18.0936801  34.5200181  70.7781029  17.2388196  34.5708442  70.3504801
  18.7241387  34.5655823  70.0592995  34.3974206  84.9990783  21.0547785
  33.7696409  85.5551849  20.5933909  33.9216554  84.6890293  21.8253283
  25.6809306  17.6822865  76.9005823  25.0457120  17.9884362  77.5478840
  26.3437295  18.3722329  76.8705082  31.5706444  48.9636374  83.1634045
  31.8643975  48.8780308  82.2564220  32.3542929  48.7934494  83.6860466
  14.2596138  21.6301894  53.2122946  13.6730349  21.0182905  53.6569738
  15.0989640  21.1717319  53.1730604  83.8886171  14.0396678  76.0497236
  83.6181074  14.4444001  75.2255583  84.1088300  14.7777247  76.6180658
  20.3221828  86.9254266   1.6729502  21.0307485  87.1929346   1.0876231
  20.5795688  87.2634469   2.5306944  82.3996657  86.4534365   9.3397002
  83.1590671  85.8897625   9.4873957  82.4398536  86.6702305   8.4082369
  25.7297778  46.9873428  61.0251522  26.1238408  47.8396368  60.8392954
  25.1158094  47.1579790  61.7394066 100.3444892   5.9507215  51.7940998
  99.5394271   6.0851902  52.2941256 100.9563761   5.5689323  52.4234343
  63.7128687   9.7411251  60.0044584  64.1789436   9.4197506  60.7762861
  63.6200762   8.9714682  59.4429827   8.5725600   0.3031476  48.4458542
   8.6609244   1.2048950  48.1371832   7.9901546   0.3651311  49.2029476
  86.5252715  18.8844526  82.3903275  86.7236858  18.5525477  81.5147114
  87.2619515  19.4579065  82.6017189  11.0914099  19.3602502  88.3295918
  10.9757805  20.2101159  87.9046345  12.0116210  19.3472993  88.5927963
  12.7149844  35.7009125  59.9340725  12.2882426  35.1721621  59.2598724
  12.4374270  36.5975928  59.7465706  43.6853409  56.8910803  16.8910174
  44.5258105  57.3449738  16.8291811  43.0609840  57.4854009  16.4748435
  33.6762238  49.0791559  91.3550186  33.7774420  49.6872520  90.6227589
  32.7383327  48.8896561  91.3811016  44.8505831   5.0641805  58.6166239
  45.6316090   5.5263829  58.3123255  44.7295761   5.3654724  59.5170784
  50.0548941  89.8439251   3.9468436  50.3428668  90.7541667   4.0158419
  49.8896402  89.7151385   3.0128531  20.7988501  25.6850958  47.5157118
  21.0540795  24.8269725  47.8544044  20.4520035  26.1497021  48.2773352
  71.1886853  72.6159654  11.1271243  71.6903728  72.3664366  10.3510623
  71.8503112  72.7623139  11.8031935  19.9694014  28.1120300  45.6120348
  20.3438449  27.9505205  46.4780283  19.7763932  29.0495467  45.6056023
  58.6901569 107.8725975  64.5579004  59.3653201 108.2695817  64.0076399
  59.1778242 107.3673584  65.2083969  23.4268880  31.3604140  15.2757668
  22.7310610  30.7043672  15.3164959  23.5235667  31.6633821  16.1785936
  96.0104328  33.0812621  55.2642250  96.2001472  33.4939814  54.4216681
  95.0898772  32.8259563  55.2039909 106.9307523  57.7284908  61.3835859
 106.4051192  57.6139164  60.5918694 107.7275854  57.2249651  61.2169981
 111.5943801  32.3333287  93.1681252 111.7734205  32.4082780  94.1054440
 111.6481769  31.3947105  92.9883099   8.5696852  27.5253272  59.6169043
   8.8167787  26.6400051  59.3497372   9.4022620  27.9634142  59.7933388
 115.8842902   8.6597466  71.9172430 116.2079039   7.7880925  72.1446753
 115.1375952   8.7976104  72.5000572 111.2048351  18.8508761  89.4840813
 110.8652144  17.9607272  89.3917465 110.5056434  19.4102824  89.1458130
  68.2564455  25.4108429  59.5439529  68.2592540  24.8528194  60.3216648
  67.3564010  25.7306933  59.4819117  29.9790740  22.3472643  63.6577225
  29.1519833  21.8654537  63.6609268  30.5186629  21.8925166  63.0109739
  16.9915128  47.5549221  51.8247938  16.0839248  47.4487972  52.1098423
  16.9250953  47.9576302  50.9589720 115.1910202  36.1586952  72.0605755
 114.5385201  36.4862370  72.6796007 115.8614395  35.7540011  72.6110220
  44.6104092  75.6740628   7.2066264  44.6261060  75.5086408   8.1492953
  44.2210037  74.8842941   6.8313174  43.5573363  86.5762006  15.5099539
  43.5966745  87.5315796  15.5539469  44.0590197  86.2805949  16.2696700
 109.7456902  75.4756927  83.0272484 109.9517178  75.9687567  83.8213921
 109.8544031  76.1085749  82.3174095  28.3439374  53.5712385  63.5588312
  28.1491065  52.6822376  63.2622623  28.6898375  53.4579849  64.4441319
   2.5121832  23.1764770  85.3714275   2.2307581  23.3313179  86.2731266
   2.3769201  24.0154409  84.9308872  21.3148713  34.6075821  44.3635559
  20.7384968  34.5004940  43.6068821  20.7402682  34.4928813  45.1204634
  15.7587337  62.7406597  69.9236155  15.1685297  61.9872332  69.9391174
  16.5841794  62.4055338  70.2737045 115.6174035  39.1162109  71.3412666
 115.5401478  38.1622767  71.3246775 115.8211624  39.3241835  72.2531128
 116.0939673  55.5557823  63.5522842 115.1507960  55.5768871  63.3903790
 116.4710992  55.2418280  62.7304363   8.1074029  30.1421213  42.2172737
   8.7369871  29.7578359  42.8273344   8.6291796  30.3738570  41.4489746
 117.0249841  33.6775494  55.9009457 116.4892579  34.0081882  56.6219950
 116.4416599  33.0920649  55.4180670  27.3434210  15.7841873  68.2535505
  27.2326112  16.7116165  68.0441952  26.4516544  15.4572308  68.3722305
  26.0406542  49.2030859  77.4517202  26.1448002  50.1519918  77.5221252
  25.1088285  49.0519953  77.6101589 117.0067555   3.5885289  51.0746193
 116.3032058   2.9622105  50.9044027 117.1701238   3.5155019  52.0149422
  65.8125210   9.9200773  11.1129622  65.9303630  10.7322549  11.6056304
  66.6695190   9.4948243  11.1436800  42.1237659  11.2839603  93.7183285
  41.6886425  11.7877090  93.0304813  42.7770996  10.7601011  93.2546902
  38.8007474  66.8464279  91.7292500  38.6577249  66.4251900  90.8817101
  39.7347903  66.7273283  91.9013309  48.7560058  67.8404651  19.0243487
  49.6939951  67.7128444  19.1661982  48.3365768  67.2561596  19.6559290
  37.8989839  77.7537881   4.0129237  37.0752010  78.2322799   3.9198641
  37.7484446  76.9265281   3.5555224   6.0336965  76.7727280  34.3719172
   6.7841035  76.4077425  34.8408604   5.4699463  77.1260071  35.0601125
 103.3325713  70.9656954  42.3653841 102.9119616  71.8177652  42.2500658
 102.6081961  70.3400278  42.3725605   4.8986295  69.8261547  89.3389034
   4.4509521  70.6720638  89.3549538   5.8249706  70.0433922  89.4434643
 114.9378325  59.2620134  78.1659794 114.3559193  58.8823652  77.5075865
 114.4381025  59.9895620  78.5363483  37.9717835  74.9750398  22.8085951
  38.4718295  74.7775505  22.0166449  38.5863440  74.8176442  23.5253768
 112.3962020  26.3854241  91.1627388 112.1843221  26.8413782  91.9772625
 113.3177936  26.5910840  91.0058784  13.4206927  53.7806225  71.6420889
  12.4789774  53.6909819  71.4959097  13.5603416  53.4340048  72.5233316
  29.0910316  73.1321526  83.0568981  29.1248775  72.5402641  83.8083935
  29.4646382  72.6254034  82.3358822   1.5861690  36.7595601  70.3300714
   1.9200386  37.6557350  70.2896786   1.5942772  36.4597487  69.4210720
   4.1167241  52.7906895  63.7241745   4.1317070  52.2002506  62.9709244
   4.4808418  52.2725439  64.4419289  27.5788832  24.9575210  81.2121201
  27.2550750  25.8580709  81.2318420  28.2002425  24.9104500  81.9387054
   6.2725395  27.1107030  87.9202271   6.7572618  27.6958275  87.3380756
   6.5461081  27.3681879  88.8006210  13.2880998  57.3255873  34.5387864
  12.7029693  57.3852825  35.2939630  13.5463226  58.2305288  34.3637490
  45.1536989  42.8241348  93.1756973  45.3529024  42.0800638  92.6074409
  44.2303848  43.0129766  93.0082035  45.9963417  58.6010313  77.7589464
  45.6824684  59.2639971  77.1439695  45.9290028  57.7765751  77.2773170
   4.9395376  24.5511794  75.6321430   4.8884994  24.2421556  74.7276402
   5.7328260  24.1438532  75.9800100  34.1448748  87.5867329   4.5139269
  33.5680491  86.9083582   4.8650889  34.9807528  87.1416913   4.3743662
  44.0705061  75.9669161  60.1552153  43.5943651  75.5829763  59.4189310
  44.9819994  75.9920454  59.8640394 103.4197074  43.1363726  71.7108202
 104.3722039  43.1424999  71.6162539 103.1050974  42.6703739  70.9361601
  16.4793456  36.8656230  56.7888689  15.7940197  36.4285827  56.2833452
  16.4327574  36.4611936  57.6551819  42.1183300  65.8162795  12.0894293
  42.4045783  65.3996514  12.9022746  41.6754180  66.6159735  12.3732428
  26.2808037  57.0540714  77.2438669  26.1210966  57.7021980  77.9299116
  26.1820269  56.2099218  77.6841927  23.8205892  52.4712185   1.9590907
  23.7654156  51.5374945   2.1624331  23.0193740  52.8441684   2.3267798
 112.1407383  39.3581820  49.2290163 111.6302627  40.1213551  48.9584446
 112.0134249  38.7228370  48.5244894   4.2958942  52.3275423  76.9842482
   3.9101624  53.0292416  76.4597893   3.8131720  51.5423822  76.7259169
  16.4993227  69.3878222  71.2079048  17.4054348  69.6027279  71.4292860
  16.4789963  68.4311342  71.1842060  72.7010452 110.1207782  40.4436445
  73.5601469 110.2842177  40.8328247  72.8615367 110.1214694  39.4999933
 109.6825039   9.7812635  86.6429710 110.0286549   9.8352718  87.5337505
 108.7571650  10.0096750  86.7313290  91.4379221  38.7456226  83.2061100
  90.9554821  39.1064763  83.9499283  90.7996493  38.1971908  82.7499771
 112.7671402   5.1722467  78.5895586 112.8523883   4.2190751  78.6102390
 113.6520478   5.4879415  78.4065056  18.4857261  50.4402590  76.9290829
  18.6550474  49.5873260  76.5289927  18.1712937  50.2337551  77.8092623
   7.3419553  20.9446383  66.0375166   7.8518420  21.5592456  66.5652561
   6.4784729  21.3511157  65.9639883  83.8108831  49.4573259  52.1609306
  83.2533842  50.1023197  52.5961447  84.0660077  49.8768282  51.3392496
 101.8182790 101.1883985  61.4999485 102.0452415 101.5052175  60.6256819
 101.9922959 101.9321178  62.0768642  48.7135869 107.7007209   1.4218764
  49.4515437 107.2740327   0.9864573  48.7484890 107.3790847   2.3227458
  22.5394273   4.8971727  51.0717535  23.4658146   4.7175825  51.2323332
  22.4752378   4.9929914  50.1215267  11.8401837  26.6038823  75.0147009
  12.4256217  25.9033489  75.3023577  11.6390920  26.3890743  74.1038465
  22.1549082  55.5547619  69.3163204  22.6064324  55.1390648  70.0508642
  22.8481197  55.7394648  68.6826181  12.8367329  27.7505565  46.2818289
  13.7545609  27.7959466  46.5497112  12.3571825  28.1657076  46.9987059
  35.2731562  81.2775707  87.4971008  35.5083466  82.0975780  87.0629311
  34.4660449  81.0000420  87.0637608  44.2027807  56.4211178  55.1165342
  45.1552153  56.4378214  55.0225735  43.9496040  57.3434591  55.1541662
  38.6282973  79.2952500  18.7132697  38.3620998  79.3586837  17.7960162
  37.9320032  78.7877212  19.1301875  63.6968898  97.3942398  87.8243542
  62.8723180  97.2968232  88.3006191  63.7415587  98.3262800  87.6109600
 110.9113341  41.0705853  52.5835848 111.6676783  40.7328510  53.0632830
 110.1753240  40.9546089  53.1844759 108.3155894   8.9429772  94.7207355
 108.1824219   9.7369325  95.2385521 108.6707597   9.2562985  93.8889217
  17.0375276  19.1236627  56.8758488  17.3807001  18.8160670  57.7148056
  16.1042368  19.2638111  57.0357227   0.0431542  39.3646574  56.2378502
   0.6591157  39.2084885  55.5220079  -0.0438961  40.3171492  56.2754202
  18.7335503  44.2156506  55.7869625  17.9974461  44.7284508  56.1207533
  18.5458505  44.1059113  54.8547840  70.4707246  34.1763115  76.9963551
  71.0089594  34.1949582  77.7876711  70.7406049  33.3782887  76.5418720
  11.1061466  70.0617599  57.2667837  10.2359676  70.1842546  56.8872881
  11.6879439  69.9814987  56.5109396   2.1260804  47.2976623  17.1052317
   2.6281589  46.4836292  17.0665030   1.6970056  47.3552637  16.2515311
  85.4406177 106.4123755  87.0194435  85.9727489 106.0450470  87.7252293
  85.1084255 105.6486713  86.5476036 109.0029460  40.7227802  61.6729641
 108.2098728  40.1869774  61.6864824 108.6831390  41.6222668  61.6030931
  61.3397712  88.9036737   0.2720980  61.9592518  89.1071401   0.9728674
  61.0497111  88.0111490   0.4604964 107.0454668  15.7779562  65.8437157
 107.7996730  15.4866624  66.3561106 106.3263231  15.2182472  66.1366129
  19.7217536  31.2519073  66.2913370  20.4013777  30.6423378  66.0036421
  19.8377156  32.0207691  65.7330894  93.4590631  33.4658456  35.2461648
  93.8754159  33.0839491  34.4734836  93.3400899  34.3889213  35.0225377
  90.9321504  40.9243298  63.4034586  90.5146557  41.2453747  64.2027473
  91.5603858  41.6078186  63.1702423  23.6840034  55.3844643  93.6882973
  23.2808948  56.2233257  93.9120102  23.3934164  54.7876120  94.3778992
 110.4606050  43.5967875  93.7062931 111.3627946  43.6557293  93.3919525
 109.9254041  43.7751675  92.9330063  21.2099099  24.8488092  63.2659149
  20.9688687  25.7441640  63.0282784  22.0676613  24.7165227  62.8621864
  91.5276724  48.8066721  41.4450169  91.3895112  49.5309591  42.0553875
  91.3796097  49.1903162  40.5806494  28.6656070  57.8562975  88.8617039
  28.8697147  58.5056162  88.1886864  28.6614490  57.0206594  88.3948803
  29.4022870  54.7815990  82.0149040  30.2426314  55.2201176  82.1481514
  29.3057060  54.2119694  82.7780724  15.3039241  33.6798024  75.7673645
  14.4265568  33.2974291  75.7831573  15.2392876  34.4509554  76.3307238
  32.9137230   4.4737533  45.4761791  33.0404282   4.1235808  44.5943880
  33.6783504   4.1712731  45.9661627  28.0163145  21.8058205  48.6895275
  27.9924321  22.2195458  47.8266907  28.9481521  21.6822028  48.8701677
  65.3117680  97.3992573  92.3494911  66.2642848  97.4145912  92.2561741
  65.0000762  96.9679259  91.5538597  13.8252616  53.9634371  64.4280767
  14.3043602  53.8417339  63.6083937  14.1345441  54.8048592  64.7636127
   1.2927829  17.0742619  74.2700243   1.1164132  16.1523247  74.0825224
   0.5199659  17.3733389  74.7491264  93.1446582  49.8805809  58.7623644
  92.9038721  49.9255657  59.6876907  92.6627165  50.5998755  58.3542252
   6.3545567  56.9948912  88.5643387   5.6016767  56.5594625  88.9640999
   6.8340451  56.2911034  88.1272984  32.5548553  49.1599607  71.4564466
  31.7341852  49.0295076  70.9813499  33.2193708  49.2321968  70.7712936
 117.1835468  41.8089294  70.9608746 116.5186775  41.1222887  71.0128927
 116.6866635  42.6264095  70.9934282  10.3132427  29.7178102  82.0956516
  11.1266303  29.8034739  81.5983677  10.5246019  29.1005659  82.7960587
   4.5613754  19.2214870  81.1793041   4.5742622  20.1640534  81.3455391
   4.0277937  19.1246641  80.3905392  24.1506410  38.5812259  63.3318853
  24.8013473  39.1384411  62.9048920  23.5573626  38.3222723  62.6267624
 104.9554580  29.8248982  90.0066471 105.2381235  30.7383275  89.9621677
 104.9344402  29.6259952  90.9427166  45.1893920  84.0433203   5.0278143
  44.7779292  83.1827222   5.1072077  45.2322328  84.2022453   4.0848689
  63.5001146 110.0964479  43.6328077  64.1269683 109.4124053  43.3974934
  62.7416419 109.9289686  43.0734301   9.4317299  45.4720163  85.8759785
  10.0231671  45.5191898  86.6271210   9.3288726  46.3811398  85.5946541
 114.1339352  49.9302244  58.6110163 113.8769096  50.5767679  59.2683983
 113.6174073  50.1566601  57.8376102 112.7020215  13.9171171  86.7026234
 112.5384354  14.4050229  85.8955097 113.6237654  13.6649776  86.6474247
  13.9902651  25.2380538  76.0454178  13.8445795  25.9579206  76.6592598
  14.4656706  25.6371355  75.3167534  25.3413343  33.2596755  76.2053061
  26.0506129  33.0332828  75.6037235  24.8411703  32.4492550  76.3016844
  95.8975917  46.5100956  73.3031607  96.2574964  47.1780777  72.7196360
  96.6633754  46.1315393  73.7350178  15.7437724  99.8009501  23.9832453
  16.4196342  99.1512452  24.1764407  14.9336451  99.4074832  24.3074469
  67.3658055  95.4483901  12.0101790  68.3146042  95.5193816  12.1149306
  67.0076627  96.0688268  12.6450209  43.9912748  66.9674444  57.7009916
  44.1539145  66.4883709  58.5135603  44.0192509  67.8893995  57.9568100
 104.3216675  32.5152898  72.6586056 104.0273672  33.0636477  71.9313335
 105.2631598  32.4155283  72.5176334 102.3441249  19.8996508  88.5284233
 101.8807846  20.0826168  87.7110672 102.3553508  20.7380128  88.9902210
   3.7886056  56.3178349  44.9359608   3.7868267  57.1149683  45.4658699
   3.0757421  55.7897282  45.2953529 113.3979523  62.3965120  76.1612988
 112.8355646  61.6221952  76.1418152 112.7907535  63.1348372  76.1121225
  87.6536709  36.1196756  74.0453815  88.1855899  36.5834522  74.6920729
  88.2543450  35.9474874  73.3202839  97.8677111   2.6748487  68.8565969
  98.6355930   2.5666872  69.4177485  97.6887267   1.7955162  68.5234737
  50.6617135  49.1396664  12.9279856  51.0392553  49.4247357  13.7601046
  50.1413864  48.3683346  13.1527953  97.5597184  60.4045057  44.0477228
  97.9736334  61.1082363  43.5480499  97.4263507  60.7762671  44.9196386
   4.0448505  19.8595536  61.7801857   4.7634828  19.8208225  62.4112988
   3.2870182  19.5242977  62.2592735  23.2823181  17.2531486  73.2520151
  22.4578285  17.6801443  73.4846592  23.1116486  16.3194144  73.3754873
   1.7816506  33.5323262  63.4089231   1.3785021  32.9158545  64.0201998
   2.4725395  33.0272698  62.9801750 109.5071458  51.1713314  65.8806753
 110.0321704  51.7189264  66.4643860 110.0408357  50.3889418  65.7418585
  22.2856951  30.7434630  94.2417908  21.4650154  31.1357212  93.9437199
  22.5107384  30.1111960  93.5592747   5.5462950  41.2636662  50.4548645
   5.9095442  41.6962719  49.6821165   5.1384008  40.4675770  50.1141310
   3.3557835  27.6280737  87.9419136   2.9776406  28.0218267  88.7281704
   4.2366454  27.9988027  87.8883171 108.0941713  15.4379033   7.7107863
 109.0352428  15.6127071   7.7030615 107.7581895  15.9671306   8.4341578
   9.4103462  28.5909772  94.0258408   9.5899749  29.5082092  93.8193130
  10.2398646  28.1419325  93.8630867  23.8293171  27.4860287  71.8515539
  23.8321424  28.3736181  71.4932108  23.0428791  27.4500561  72.3960304
  20.0614548  13.2844841  68.1098080  20.3025174  12.3596478  68.1627035
  19.4256330  13.3257937  67.3954868 108.3162832  67.0674038  60.5997086
 108.2044535  66.1892319  60.9637690 108.5470950  66.9189215  59.6826982
 106.4727252  81.1064434  85.5174637 105.5161076  81.1396122  85.5214787
 106.7438429  82.0220280  85.4508495  99.9216908  28.4836173  72.5615692
  99.5645958  28.5644460  73.4459782 100.4569953  29.2687869  72.4467278
 110.9345030  79.3908869   0.4803423 111.6124367  79.8073517   1.0125021
 110.1692271  79.9568830   0.5814890 105.4967111  19.6246600  62.4728060
 104.9899286  19.6495914  63.2844591 106.1888462  18.9855134  62.6421356
  18.7661350  48.2432556  68.5268402  17.8458774  48.3473682  68.7687492
  19.1658366  49.0873957  68.7363529  11.4077675  35.3013921  69.2710447
  11.3767433  35.9950042  69.9299574  12.0989692  34.7130752  69.5749474
 115.0192739  34.9773502  90.5701351 114.8001043  35.8817244  90.3458500
 114.3503749  34.4526553  90.1302433 113.3156412  51.6896963  60.3560400
 113.0014491  52.5857449  60.2351570 114.0076479  51.7651176  61.0130548
  68.0569953  76.0341488  13.6298613  67.6612419  76.5553771  14.3283801
  67.3772353  75.9782038  12.9582743  25.9276247  27.8942752  82.5459576
  25.1370144  27.6136613  82.0850563  25.7774830  27.6391959  83.4562397
 115.8205676  29.4854140  93.6137199 115.5652441  28.6297369  93.9584827
 114.9955943  29.9616981  93.5198879 111.1005318  22.3711514  70.7303858
 110.3515464  22.2183371  70.1542759 111.4955896  23.1782627  70.4006386
  17.0697081  45.0210571  53.3086061  17.0176435  45.6718731  52.6086330
  16.8116903  44.1992140  52.8911924   0.3550706  23.1374836  70.1130438
   0.6282847  23.5917473  69.3160295  -0.4083313  22.6250148  69.8469162
  28.2158613  17.6639903  79.8707438  28.4340358  17.1828723  79.0725231
  28.8351250  18.3936942  79.8873949  45.9188998  97.0073901   6.5662341
  45.3310317  97.2782956   7.2713904  46.0431403  96.0685406   6.7053751
  58.3388424   0.6203832  78.7204790  57.6297665   1.2523931  78.8388348
  58.3046818   0.0724637  79.5046043 112.6306804  56.5919256  65.9874916
 111.6748404  56.5483809  66.0140419 112.9179814  55.9406471  66.6274309
  14.4352812  82.0890389  26.1414198  14.6684832  81.5595017  26.9039397
  14.2427343  82.9549824  26.5010027 108.3799833   6.5550292  88.4061432
 108.8982117   5.9580755  87.8664017 108.4607779   6.2064934  89.2939663
 101.0696178  27.7481723  94.2378235 101.3131695  27.6195288  95.1545429
 101.4657002  27.0076013  93.7785816   2.0156360  46.3581085  62.0396614
   2.4766999  45.6218100  61.6377687   2.4405071  46.4714622  62.8898764
  17.0461023  25.7168198  75.3148127  17.2108853  26.3180113  76.0412073
  17.5857008  24.9508667  75.5107212   8.0882657  45.7680893  52.9877138
   7.6693189  45.3115559  53.7172985   7.3922491  46.3061333  52.6104879
 107.7650672  17.6869464  40.3502512 108.2950103  17.2897053  41.0413313
 108.4029304  18.0880737  39.7599435  32.8972292  60.1355076  51.5999985
  33.2821774  59.2738295  51.7598724  32.4150538  60.3350449  52.4024439
  18.8443589  49.3857145  74.0208435  19.2761540  49.8046589  73.2763481
  18.0343783  49.8820639  74.1383171  15.4970849  23.7479973  72.5592518
  15.2224231  23.4047484  73.4095287  14.8309505  24.3984699  72.3370314
  12.1532917  41.5748501  79.9377632  12.4337065  41.8042517  80.8237553
  12.9113460  41.1349344  79.5529842  34.6968600  51.0022907   6.4089732
  33.9947298  51.0579337   7.0571570  35.3341913  50.4027994   6.7971091
   5.1238674  50.4075527  74.5283365   5.0443226  51.3365126  74.3116808
   4.3476021  50.2171230  75.0550032  13.4607565  40.9731770  75.5927277
  14.0701997  40.9471464  74.8550749  12.8358519  40.2709866  75.4120159
  30.4745436  22.8605199  78.9198637  30.9676027  23.2147479  79.6598959
  30.7498598  23.3914399  78.1724977   9.6574432  36.8106818  94.8649788
  10.4656374  36.3845539  95.1504135   8.9994693  36.1158442  94.8874760
 100.9603513   3.0944442  20.8351569 101.8639434   3.0523395  20.5221419
 100.9952557   2.7260064  21.7179160   4.7941700  40.4736280  91.2565899
   4.6196982  40.3769922  90.3204060   5.6340235  40.0343132  91.3903141
   3.1217283  26.0179400  52.2077274   3.3006942  26.0091734  51.2674475
   3.3556089  26.9028616  52.4878120   4.9858323  49.7084475  87.1258545
   5.8992970  49.9662113  87.2498417   4.8864585  49.6274710  86.1772823
 109.1212987  31.8808556  70.2577353 108.9479356  30.9420562  70.3272581
 108.6311715  32.1582532  69.4837475  22.6726007  37.1502876  93.2926369
  23.5757709  36.8793869  93.1279182  22.5087309  37.8407884  92.6503086
  24.9622464  75.4240465  70.7739353  24.7999287  76.1565399  70.1795197
  25.4982066  75.7975626  71.4735508  97.2302395  88.0782795  50.7424784
  96.4630585  88.5234165  50.3825808  97.9764133  88.5429001  50.3635502
  26.9302535  87.8302956  53.2998800  26.4050698  87.0524693  53.4880400
  26.7767477  88.4092999  54.0464878  29.8647642  58.2399130  93.9447403
  30.1500225  57.4457455  94.3965816  28.9423513  58.0825806  93.7431622
 103.9802366  30.6559849  62.3818493 103.4379678  30.1853728  63.0148554
 104.6524316  30.0243950  62.1259546  17.8429723  41.6600752  63.6436033
  18.3543181  41.9051456  62.8724384  17.1838772  41.0511684  63.3103561
  35.5984044  27.0567417  83.4708309  35.4641366  27.4493194  84.3334389
  35.8427358  26.1499190  83.6557865 115.0029876  40.2291679  43.0983257
 114.9521079  40.0031948  42.1695709 114.2804771  40.8418179  43.2356882
   0.2624584  54.6455431  75.6661749   0.6553690  53.8286448  75.3587198
   0.9812698  55.1109457  76.0938931 109.3218302  64.4548702  69.3134785
 109.1931593  65.1877403  68.7113333 110.2499335  64.4946337  69.5442915
  19.4558251  42.3032093  88.4034061  19.9981952  43.0521202  88.1560230
  18.6432242  42.6923513  88.7266350 104.8981112  48.7397480  20.6511641
 104.1104477  48.5426235  20.1442528 104.6025317  49.3526459  21.3243818
 102.3074907  29.0376449  63.7541723 101.9746082  29.6527863  64.4076395
 102.3659199  28.2028770  64.2189074   7.5757831  18.6743414  81.9266987
   7.8243160  19.5856071  82.0818043   6.7127258  18.7280071  81.5162277
 115.8293647  48.6552906  56.2596178 115.1728636  48.0886889  55.8544016
 115.6168255  48.6388016  57.1927786  98.9767652  35.1091671  78.4618425
  98.2076221  35.5260277  78.0734062  99.3483191  35.7792997  79.0355158
  27.3773694  49.3084669  72.7485466  26.6206193  49.1928577  72.1739244
  27.0820427  48.9882421  73.6008787  29.0880799  36.3997984  93.2518864
  29.3427920  37.0673680  92.6149368  29.9175930  36.0633636  93.5909271
   9.6391356  32.4202800  83.5923386   9.8225576  31.7982531  84.2963791
  10.3027177  32.2330356  82.9283810  24.9335837  45.4408121  91.7513657
  24.0340042  45.7074738  91.9407845  24.8425341  44.6339607  91.2444878
  43.0323193  83.0514894  15.8114581  42.5616765  82.3002182  15.4504637
  42.6395625  83.8101564  15.3797202   1.6560760  36.4914608  92.9124641
   2.6045653  36.4192986  92.8057289   1.2952614  35.8915305  92.2596741
   7.7610350   5.8349895  76.3795233   7.2034132   5.5119348  75.6717634
   7.4818569   5.3396100  77.1495199  28.3154005  79.6508871  15.5137400
  29.1806126  79.7261868  15.1112895  28.0705112  78.7344776  15.3854613
  19.0704238  62.9604292  92.5645447  19.2496347  62.9845619  93.5045147
  18.3910728  63.6218357  92.4331856  28.8573766  55.1365137  58.5198593
  29.2300534  55.1459980  59.4014788  28.2323194  55.8614445  58.5162401
  32.5475168  52.5222206  64.3016243  33.4542203  52.6733541  64.0346432
  32.0713639  52.4087763  63.4790421  12.7799892  44.9032259  66.4522505
  12.6868773  45.0929070  67.3858356  12.8382194  45.7639885  66.0376024
  12.2490060  39.3500829  86.6845226  11.9517577  40.2385092  86.8809128
  11.5194321  38.9531040  86.2087440   5.7658237  53.8765287  84.1937351
   5.4955959  53.6826611  85.0913048   6.4979023  53.2819080  84.0302849
  51.0680389  58.3011055  43.9151573  51.8023252  57.8137207  43.5416460
  50.7245398  58.8144064  43.1838799  21.1546111  43.8328314  57.5567293
  20.3016067  43.6908340  57.1462965  21.5752864  42.9732180  57.5384188
   7.8222138  38.6786747  63.5067129   8.1156528  39.5868587  63.4337282
   6.9869363  38.7334275  63.9709806  82.2712249  80.5688773   8.2327799
  81.6635436  80.2019273   8.8748889  82.1322793  80.0441514   7.4443678
  24.9456739  49.7151661  71.4229536  24.5773935  50.5900574  71.5461063
  25.3335714  49.7395372  70.5482149 106.6958445  12.3663962  51.1980534
 107.1068572  12.1150601  52.0251751 105.7938081  12.0554316  51.2746191
 110.6818664  10.1032638  24.0043215 111.1859978  10.8955478  23.8189463
 110.9969104   9.8137759  24.8605876  15.8927631  47.8461933  79.8786974
  16.4853859  47.2635841  79.4037294  15.0496578  47.7416182  79.4377089
  98.5342472  32.4567389  83.5473156  98.5842889  32.9524469  82.7299976
  99.4258493  32.1388984  83.6896324  19.5206666  40.9795904  72.9042339
  19.9430943  41.1543608  72.0632601  20.0340438  41.4797592  73.5386658
  80.1142997  73.1771169   9.5408110  80.5430001  73.2227038  10.3954272
  80.8173245  72.9506038   8.9319758   9.0844017  64.7908926  67.8837919
   8.8047886  65.1617050  67.0468092   9.0056622  63.8443995  67.7646828
  64.3543953 110.2675830  19.3751864  64.4977278 110.0692759  20.3005843
  64.3779320 109.4148122  18.9410548  48.1771183  64.5471048  72.7442217
  47.6563644  65.1826620  72.2531796  47.8532124  64.6149302  73.6423969
 111.6904979  61.6064024  63.9278603 112.0901849  62.2848129  64.4721365
 112.4261659  61.0656691  63.6403990  27.9718494  54.7148609  75.0979900
  28.4875846  54.0111113  75.4916716  28.1808376  54.6717930  74.1648769
  30.0620055  97.0048962  23.1392817  29.1475260  97.2250710  23.3167223
  30.3428769  97.6517878  22.4920802  23.2776022  40.9875965  47.3440981
  24.2255187  40.8648300  47.2929382  23.1646824  41.7423964  47.9218197
   2.7256995  73.8157654  61.6440105   3.3168024  73.0717421  61.7591619
   2.8443846  74.0768528  60.7307816  32.5918508  55.4100513  76.5949535
  32.1131968  56.1612082  76.9455051  33.4910369  55.7233763  76.4973450
 110.0689589  28.8368034  64.3289280 110.3139781  28.7404156  63.4086514
 110.4107755  29.6951652  64.5791531   1.3273397  79.6785784  49.2640638
   2.2655839  79.7581434  49.4361067   1.0456042  80.5693913  49.0559673
  30.2805781  53.0011606  65.6128597  29.8376155  52.1564150  65.5327368
  31.1356020  52.8628540  65.2053881  15.1090670  49.6967793  65.9002638
  16.0500157  49.5217133  65.9143305  14.7324765  49.0282393  66.4725065
  17.3511505  30.8503461  77.1248913  17.2463369  30.5934310  76.2087917
  18.1301773  30.3779626  77.4184942  85.8149117  93.3303057  29.6882586
  85.3129453  94.0128861  30.1336245  85.2923602  93.1140242  28.9160018
  28.8850570  69.2839193  72.9128790  29.8235250  69.2003727  72.7439833
  28.4678459  68.8818312  72.1509790  22.0536828  65.3356314  45.6262016
  22.7130032  64.7830629  45.2064466  21.5096188  65.6499100  44.9040794
  35.5481935  16.4683390  79.7059298  35.2454376  15.6960392  79.2283106
  34.7481751  16.8671119  80.0482464   5.6776053  33.3308053  95.0687885
   5.5211759  33.1351805  95.9926319   5.8354247  32.4767065  94.6665001
  53.9322519  64.6815491  86.7349434  54.0742874  64.4678402  85.8127785
  53.8317108  65.6333685  86.7474937  27.7096105  67.6025152  60.6104708
  27.9480815  66.9925070  61.3085079  27.4904871  67.0414305  59.8665619
  27.2302127  23.4537888  61.3870716  27.5222540  24.0986180  62.0313835
  27.0229864  23.9702773  60.6082726  20.8779383  50.5272007  61.7042637
  20.0505781  50.5150509  62.1854687  20.8483887  49.7422886  61.1572075
  22.8297687  63.1008387  80.2393150  22.5852585  62.4245834  79.6075439
  23.7829947  63.1572342  80.1729107  50.8136034  49.7388506  86.5661144
  51.2220907  50.6006861  86.4847851  49.9619484  49.8362970  86.1401749
  13.3236861  55.5634165  80.7874107  13.6449492  56.0829449  80.0504589
  13.5626197  54.6629000  80.5678272  44.8340940  83.7600803  57.4551582
  45.0667238  83.2010651  56.7137957  44.3660736  84.4967461  57.0620680
  77.8458923  97.3304473   3.6988120  78.3238715  97.8202925   4.3680052
  77.2245735  97.9625235   3.3373217 113.4228163  45.0686789  88.1603813
 113.7858286  44.7774839  87.3239231 112.5538599  44.6688795  88.1965256
  25.0907946  68.9527130  73.7789536  25.7589984  68.3342981  74.0744114
  25.5685759  69.7687435  73.6304712   3.7224716  61.4452839  43.1629467
   2.8372693  61.5581131  42.8166533   4.1124424  60.7698250  42.6080513
  45.0961065  61.9201803  82.0839405  45.4383898  61.1486626  82.5354195
  44.6837521  62.4386978  82.7748299   7.2540140  26.4027357  73.8557196
   7.4478006  25.5972838  73.3762121   7.5067669  26.2105966  74.7587299
   2.9696986  89.6810341  78.0605698   3.1312281  90.0291729  77.1836805
   3.5383695  88.9135265  78.1220531  26.8815160  41.7549181  51.5892553
  26.3284254  42.5196934  51.4297533  26.3048530  41.1296558  52.0282745
  22.6099968  49.2445469  68.7125540  22.1181178  49.1001511  67.9042006
  22.4446082  50.1611996  68.9330721  47.5879192  53.3902216  75.5180025
  48.4419346  53.7554216  75.7493258  47.1531439  53.2467175  76.3586044
  45.6165683 104.3863498   3.3797698  45.3740686 105.2403603   3.0218653
  46.3993490 104.5593653   3.9027934   2.8884775  17.1954250  12.4346499
   2.4819643  16.4502858  11.9922118   2.4446804  17.2424220  13.2814459
  36.8573809  66.8291759  81.1618423  36.9703102  67.6918316  80.7627106
  36.7323589  67.0107460  82.0933151  95.1102901   8.3331966   6.1173872
  94.3489385   7.7543592   6.1564211  94.9626506   8.9705800   6.8160777
 116.2171618  64.4132471  88.5237885 116.3517207  64.5550108  87.5867558
 115.9911020  65.2778149  88.8667870  21.7693830  66.9076824  80.0609589
  21.2596822  67.6732826  80.3260994  21.6379786  66.2759113  80.7679462
   5.9303445  87.0245075  93.2166290   6.3663459  86.4274406  92.6086521
   5.1465321  86.5514946  93.4961414  45.5223417  77.0440102  75.5727911
  45.4314089  76.2857580  74.9957180  44.8266602  77.6403999  75.2960682
   7.2325963  51.4325714  89.6092224   8.1464696  51.4614058  89.8924732
   7.2190756  50.7790136  88.9099979  79.2942931   2.9142999  11.2914042
  79.4546482   2.3077440  12.0143179  80.0609470   3.4873914  11.2850527
  48.9872122  60.4091883  87.2629642  49.5346546  61.1138058  86.9164753
  49.1578817  59.6664333  86.6838074  25.7733464  56.2663984  74.2183113
  26.3963223  55.8987522  74.8451805  26.3155007  56.5607071  73.4864092
  20.1361966  26.5849185  81.2390900  20.8469844  27.1931863  81.0365582
  20.4430580  26.1057115  82.0087814  68.9279646  96.8561040   9.4654326
  68.9810819  97.6251851   8.8980441  68.9105600  96.1136685   8.8615183
  80.3310508  93.1099878  29.0202860  79.4064015  92.9349957  29.1952948
  80.4192752  94.0574728  29.1238169  29.3104148  66.7675829  67.7867365
  29.4328117  67.4687004  68.4267998  28.4813571  66.3586330  68.0350447
  29.7953105  49.0990543  70.4130077  29.1722202  48.4595346  70.0680399
  29.2479396  49.7785330  70.8066082   1.1041272  72.3558283  82.1599197
   1.0554186  73.3002663  82.3079109   2.0350838  72.1830940  82.0195103
  30.9086370  84.1112423  70.5326700  31.3946271  83.7701225  69.7818804
  31.4701676  83.9264011  71.2854958 104.6484035  34.1769075  83.8632870
 104.0549415  34.9278426  83.8747025 104.1823929  33.5110044  83.3576775
  17.3710692  39.8995209  41.6312981  18.1130481  39.5527196  41.1358881
  17.3407137  39.3635583  42.4237967  28.2925510  51.1582851  71.0968637
  28.1095099  50.6733370  71.9015741  27.4305940  51.4220381  70.7748508
  52.4958277  84.6649551  76.0598183  53.3151722  84.9644756  75.6658792
  52.4775839  83.7234783  75.8880281  29.1358447  44.5545483  69.2591047
  29.3489027  44.5616865  68.3259439  28.1793070  44.5314932  69.2862129
  34.6997213  51.3728476  66.5621710  33.8021660  51.0547113  66.4651489
  34.9836850  51.5648890  65.6684637  20.9945369  35.0853610  72.5104666
  21.5474463  35.5434704  73.1434441  20.6648493  35.7764602  71.9360828
 115.1819452  59.2809677  48.9332962 115.9110142  59.9011898  48.9364338
 114.8886845  59.2514467  49.8439884  37.8793812  77.7517271  66.7074060
  37.4242282  77.4608946  67.4976540  38.7073064  78.1109524  67.0263529
  17.5449157  59.4094181  68.9341545  16.7513716  59.5268631  69.4563866
  17.7708769  60.2918482  68.6400604  30.2291036  47.6915312  76.0108566
  29.7136235  48.4807968  75.8448124  30.9307432  47.7224874  75.3604889
  23.0147338  68.1176329  51.2986898  22.5876188  67.5972700  51.9791508
  23.6625981  68.6419773  51.7693996  13.1739569  71.7067671  33.1973195
  13.5663629  70.9221029  32.8145075  13.5705376  72.4324369  32.7152848
  48.3554888  60.4719305  80.0080013  47.8831577  60.1646376  79.2342424
  48.0443764  59.9097252  80.7174873 104.7149831  54.0466499  80.0856495
 104.4816726  53.9664078  81.0105133 105.4467481  54.6636248  80.0758934
  10.2965677  59.8361015  60.9862375  10.0473022  59.3836641  60.1803827
  10.4764616  60.7348919  60.7104683  30.4185319  17.8496349  62.4311256
  30.2420640  17.5549650  63.3245802  30.1459336  17.1167910  61.8789864
  23.1160188  69.7081518  71.3627386  23.9249539  69.3092108  71.6832113
  23.0861783  69.4766092  70.4344463 101.1240900   8.9079809  12.4820475
 102.0085395   8.5814618  12.3166232 101.1677873   9.8389768  12.2639422
  29.1535115  58.1994057  70.3120136  28.5651422  58.4434891  69.5975351
  30.0303459  58.3761644  69.9712038   1.1555585  18.4056258  83.2014084
   1.9541055  17.8865147  83.2966805   1.4565992  19.3140340  83.2214451
  50.8728075  53.2066536  79.5511866  50.1930571  52.5862169  79.2880678
  50.4441643  54.0616941  79.5136881  19.3751144  67.1047974  47.2074509
  19.8072052  67.3029947  46.3766384  18.4832895  67.4349070  47.0983267
  25.0614476  65.7445192  76.4003754  24.1426015  65.9882545  76.2883663
  25.5505991  66.5137339  76.1083603  28.9129663  30.2387166  79.4891691
  29.8154259  30.5098534  79.3209934  28.4121084  31.0543656  79.4796991
  65.0003433  60.9723759  94.6065998  64.5151472  61.6227961  94.0988922
  65.8116627  61.4169168  94.8523140  31.0492229  78.7734509  57.3178148
  30.2171659  79.1418695  57.6147652  31.6096640  79.5353794  57.1708202
 107.1971286   0.7870244   9.3154196 106.2628973   0.7430887   9.5191721
 107.5046218   1.5716552   9.7693400  13.4929490  51.7775965  66.0319567
  14.0723562  51.0179090  65.9736872  13.7789524  52.3519897  65.3216696
  16.0727501  51.0609055  39.6634507  16.6645527  50.3768301  39.3503284
  16.3612151  51.2355471  40.5592823  15.3321493  24.4493032  84.5836830
  16.2493646  24.3876600  84.3169403  14.8571670  24.6201634  83.7703991
  26.7315602  71.2544632  61.5190792  26.7441297  71.6093874  62.4079609
  27.3644304  71.7885065  61.0389709  31.4922762  76.7889261  76.1080217
  32.2819638  77.3269176  76.1645126  30.7847714  77.3725176  76.3820410
  64.4146776  50.7646751  78.2221651  64.5296431  49.9628448  77.7121830
  64.7861719  50.5583429  79.0798664  29.1819894  99.1670428  10.4386858
  29.5166385  99.7649251  11.1070971  28.3389729  98.8712798  10.7823042
  23.5738611  39.0030813  73.1000900  23.0127931  39.4502759  72.4664927
  23.0947566  38.2049131  73.3228445  56.5079492  93.1432782   0.2382330
  56.9333917  93.5296856  -0.5272241  57.1061641  92.4516402   0.5210928
   3.5388389  31.4940596  62.4652147   3.1423077  30.6253982  62.5316906
   4.4682062  31.3472033  62.6411200 108.6027372   1.5980911   6.9067530
 108.9539397   2.3467874   7.3887686 108.1768859   1.0613155   7.5751547
  22.8780127   7.0767349  82.2741604  23.6378384   7.5443649  82.6208973
  23.2457447   6.2960327  81.8600273 115.8894791  53.7949610  68.0770636
 115.7723259  54.6644640  67.6943493 116.7009375  53.4692144  67.6876354
  38.0144548  56.2062645  63.6642551  38.1402755  56.1405134  62.7176428
  37.6477551  57.0804214  63.7969875  41.4550066  69.9902487  40.1612711
  40.8275795  70.3136826  40.8077669  41.2024117  69.0781975  40.0177956
  25.2707481  44.8429251  46.6553164  25.1201844  44.2606831  47.3999977
  24.4087696  44.9428177  46.2512732  35.3191257  54.7745419  81.6748238
  35.9901714  55.1336241  82.2553253  35.2942228  53.8412571  81.8859768
  43.5134584 105.9790240  17.7720217  43.1236208 106.1133920  16.9081931
  43.6872980 105.0386201  17.8126959   2.3551495  43.4044980   4.4531302
   3.2664282  43.1140565   4.4911818   2.2629912  43.7905835   3.5821108
 114.3290257  61.6320229  95.2769852 113.7774461  61.5492630  94.4990730
 115.2087706  61.7839766  94.9317455  28.2375860  44.5666027  81.5473461
  28.7330770  45.2566910  81.9883728  27.3730373  44.5931292  81.9573212
  16.0274184  52.4129152  60.3702211  15.8131146  51.8418980  61.1079550
  16.7452025  51.9657326  59.9218416  28.2232881  78.2398176  72.9637861
  28.7535000  77.4519300  72.8440380  28.5820484  78.6528492  73.7492323
  74.7170848  79.4540177   1.1159377  74.4192094  79.4837008   0.2067523
  73.9592689  79.1349159   1.6059546  38.7123609  66.6985464  85.7715893
  38.0763412  66.0234308  86.0080814  39.4911075  66.4844513  86.2853527
   1.0068367  45.4798889  79.8910713   0.1439899  45.0846624  80.0156593
   1.5429041  45.1109123  80.5930138  13.7921345   2.0789830  74.4016647
  14.2641723   2.2460432  73.5858774  13.0620646   2.6978660  74.3869925
  58.7391991 100.5896674  13.4304194  57.8191155 100.6619750  13.6842875
  59.2022914 101.1611424  14.0429549   4.7028142  24.9543738  91.1837006
   5.6382382  25.1240611  91.0722542   4.4909936  24.3207836  90.4981899
  91.4189172   8.7746810  27.7986483  92.2507680   8.6613559  28.2584433
  91.6682363   9.0554952  26.9181876  15.6053317  34.1322255  73.1001091
  16.5476990  34.0587401  72.9491901  15.5128551  34.1100454  74.0525723
 100.6693023  42.2979784  79.6871758 100.7622438  41.9306898  80.5662060
 100.2196353  43.1320858  79.8224258  15.4689360  45.3882360  59.2240047
  15.1477695  45.4356813  58.3235407  16.2811422  45.8946753  59.2156076
  54.0519571  71.5132999  92.8471756  53.2015419  71.5948629  92.4154663
  54.5977211  72.1792316  92.4289513 103.2972873  12.0803451   2.8317408
 103.7916386  11.8200588   2.0544962 103.9671696  12.2929954   3.4815554
  16.3527262  41.0343170  57.2009277  16.3123143  41.8662405  56.7292261
  17.0991647  40.5760765  56.8148184  14.9729192  70.8310032  85.5160999
  15.8086777  71.2497997  85.3103065  14.6891248  70.4431438  84.6883011
  17.7577031  56.8844795  84.2802525  17.0081472  56.9381142  83.6873531
  17.4018621  56.5016842  85.0821686  18.3847773  32.1561575  85.1278210
  19.0833426  32.4243641  84.5309067  17.9848981  32.9777169  85.4130650
   2.4412769  54.4520426  62.6055336   2.9243931  53.6709166  62.8751183
   2.4783796  55.0311995  63.3667421 102.2061508  42.8672504  68.9399910
 102.9134052  42.6170826  68.3454847 101.5133374  42.2290182  68.7699842
  15.3213429  34.6601057  83.3637714  15.6719339  33.9414835  82.8375530
  14.3749368  34.6176767  83.2268429  48.7845659  24.6302176  30.5364108
  48.6054230  23.7205219  30.7743096  48.1537390  24.8252273  29.8434019
 103.5627919  52.9940510  91.6527748 103.8938397  53.4773064  92.4098110
 104.3488281  52.7318954  91.1735535  26.4050174  72.9490709  81.9358730
  26.7459750  72.6981068  81.0773945  27.1681476  73.2806301  82.4090862
 105.5372589  61.0930729  76.8174219 104.7591167  61.3764429  76.3373947
 105.2905994  60.2496719  77.1969891  44.9211740  72.6117516  45.1357603
  44.7927094  72.0057964  44.4059992  44.0349531  72.8417969  45.4149055
  95.9569984  57.8853703  73.7217999  95.1196938  58.0123758  74.1679192
  96.5979462  58.3142805  74.2887688  19.5861840  54.0599012  90.7627106
  20.2647328  53.7013721  90.1906395  19.3560970  54.8993540  90.3644466
  64.8931503  56.0237360  84.3368816  64.5135975  55.6871891  83.5251522
  65.7945108  55.7016230  84.3313980  40.0130177  79.3520784  67.8585148
  39.8696828  80.2463055  67.5486088  40.7333326  79.0245056  67.3199224
  37.5673223  72.7574396  53.1145620  37.8149176  72.8954887  54.0288210
  36.6365600  72.5367308  53.1491899  68.3933777  80.1395307   5.3466944
  68.1202525  80.8323561   4.7453360  69.3323082  80.2823602   5.4660372
  13.7750709  45.6849432  83.4773827  13.3943522  45.7250071  82.6000690
  13.4036648  44.8917961  83.8636589 104.2213684  68.1174803  53.1004524
 105.0916045  68.0135393  52.7155876 103.6967176  67.4262476  52.6965046
  30.2119541  47.5554657  53.5869789  30.5575323  47.0704556  54.3363619
  29.8521447  48.3574104  53.9659977 106.9918370  83.9618492  36.9678545
 106.1710041  84.4118786  37.1677065 107.6503348  84.4225883  37.4877882
  19.2114508  51.5421629  55.8572245  19.3545556  52.2888088  55.2756166
  18.3374357  51.2252092  55.6294680 113.6727359  39.4110656  86.6266918
 113.8832086  40.3395844  86.5277576 112.8110155  39.4038844  87.0433712
 105.6209219  42.3546647   7.8592448 106.2219990  41.8987989   8.4484152
 104.7687137  41.9531774   8.0289034  38.4012365  72.7202892  55.9160328
  38.1721473  72.0462036  56.5558434  38.8723063  73.3815432  56.4230537
   3.7525481  71.2531471  82.0660019   4.6351898  71.0182619  81.7796421
   3.6007732  70.7132053  82.8416729 104.5090216  30.4050994  85.3328896
 103.5837095  30.3516626  85.0937748 104.5919567  31.2458611  85.7828522
   6.7586493  31.4865971  76.7950106   6.5882421  32.1620154  76.1385012
   6.5545124  30.6637359  76.3506460 111.6941870  12.2475051  20.6193594
 112.5416005  11.8691348  20.3849368 111.4106620  11.7451572  21.3832335
  30.8078194  27.5804090  91.1231613  31.4645433  26.9056010  91.2951565
  30.2821207  27.2257900  90.4061413  53.3164549  80.4243183  81.1486340
  52.4353170  80.7634163  80.9910297  53.8889694  81.0005283  80.6422329
  17.1290314  98.9707661  66.2202787  16.8609846  99.4576359  66.9995975
  16.5637982  98.1982899  66.2142801  25.1005888  23.0697370  80.1670361
  25.5753398  23.4924340  79.4513798  25.7570004  22.9529428  80.8538532
  51.1894530  94.2414270   1.1703257  51.2207574  94.3401490   0.2187399
  51.0159832  93.3103405   1.3089518  13.4930420  26.1112595  24.4279242
  13.2131147  25.3268600  23.9561272  12.6877487  26.4622450  24.8081112
   9.5035237  51.9676733  53.2549953  10.2952182  51.7058372  53.7249851
   9.4837040  51.4001703  52.4844217  31.4470482  65.0107574  77.7794886
  32.1826243  65.5130768  77.4290180  31.0561228  64.5918369  77.0127344
  13.5456777  45.6646681  47.9846382  14.2694271  45.4321337  47.4029636
  12.8465605  45.0531244  47.7533722 116.6401304  78.3345938  63.7756729
 116.2907786  79.2121172  63.6203003 116.5325053  78.1971216  64.7168159
  22.9406357  46.1792898  78.0950546  22.0625472  46.1453581  78.4745836
  23.1866431  47.1031094  78.1427479 101.8321215 102.0813500  58.8191748
 101.5371382 102.8814082  59.2540598 101.0433327 101.7271476  58.4085894
  19.3486798  66.4882183  93.6403561  20.1216960  66.9669247  93.9395428
  18.6293030  66.8455791  94.1609573  60.0750560  91.1407624   3.6888175
  59.6777386  90.3113828   3.4233050  60.7394833  90.8930550   4.3317942
  11.5690100  72.8718472  93.6529350  12.0151377  72.7429533  94.4899464
  12.0673800  72.3409414  93.0316448  17.3130012  28.9880705  66.6019297
  17.6170111  29.0501499  65.6964159  17.2246575  29.8973083  66.8877888
  23.2335448  54.3575430  61.0718393  23.2262015  53.4004021  61.0798550
  24.1555643  54.5908976  61.1797953  28.2045650  63.6159182  81.8377590
  28.7500477  63.6597109  81.0524178  28.8063335  63.3494091  82.5327969
  14.2648995  48.1977177  67.9976177  14.6670485  47.3303223  67.9514265
  13.3772731  48.0335379  68.3160496  20.5868196  44.5947504  87.4890518
  20.4497385  44.5885849  86.5417385  21.5178132  44.7903013  87.5950718
  58.6373025 108.1381522  18.6751704  59.0582508 107.3306762  18.3801894
  58.7587637 108.1385480  19.6246295  58.2683826   8.3302593   1.4615302
  57.4087680   8.3630895   1.8813090  58.5671676   9.2396163   1.4561133
  52.1083862  99.1211043   2.5135664  52.2221857  98.8466607   1.6036372
  52.8663629  98.7563239   2.9703383  15.0968289  41.0511208  71.1451960
  14.6328413  40.2389240  71.3483810  15.6263638  40.8386135  70.3766489
 104.6885341  70.0163555  95.0815678 104.1868752  69.2077160  94.9782467
 104.4680243  70.5354834  94.3081951 105.7601791  61.9235945  61.1008310
 106.0128730  62.6983404  61.6029692 106.2003713  62.0306158  60.2576160
  34.4315195  61.5364647  61.2040377  33.5018158  61.3159275  61.2610388
  34.4779491  62.2031736  60.5187845  19.4938231  49.9130344  45.6086016
  18.5367358  49.9077654  45.6223774  19.7254884  50.8199358  45.4083776
  45.9006596  88.3081532  83.5401154  45.3149986  88.5583496  82.8255272
  46.5745497  87.7727985  83.1211853  10.0283360  79.2209816  79.2555380
   9.4436347  79.9783421  79.2831421  10.0553143  78.9727831  78.3314705
   7.8866059  45.1636076  49.3352032   8.7117982  44.7115183  49.5109940
   7.6421076  44.8816967  48.4537411  47.0834017  62.7785683  35.7990265
  47.1519136  62.1384382  35.0906658  46.3883400  62.4386883  36.3625908
  44.2027521  74.9669075  90.4846573  44.2960215  75.5247021  91.2569141
  43.4965611  74.3614531  90.7103825  97.2842353  78.8803291  63.2749796
  97.7535253  78.4675169  63.9999485  96.5995150  78.2524395  63.0444479
  36.5430164  90.4285145  81.5059853  35.8443022  89.8668575  81.1704636
  36.6549015  90.1538467  82.4160767  26.1281633  46.4621687  50.3452444
  25.8688068  47.3604965  50.1403618  26.5631652  46.1514568  49.5512247
 109.7708439  62.9806852  83.3153343 109.3957900  62.7223825  84.1572666
 109.1533213  62.6457310  82.6651764  20.5534625  68.9231443  55.1966429
  19.6793830  69.2838764  55.3452778  21.0213590  69.0837049  56.0161114
  76.8418640 104.4966327   6.2187247  77.2695059 104.7551928   7.0351176
  77.1017569 105.1689015   5.5888514  84.8403681  44.5682668   7.3079638
  85.0828183  43.7893724   7.8087382  84.5612538  45.2011346   7.9696421
  23.5511620   7.5161027   3.7841944  23.4814245   8.1493377   4.4986109
  24.1581137   6.8520593   4.1111235  21.1634016  96.3553810  53.8976622
  20.8800220  96.6526794  53.0330563  20.7657313  95.4902267  53.9956760
  13.5143232 100.7979774  57.2045326  12.6101303 100.6051731  57.4525166
  13.6148429 101.7345524  57.3747063  91.9772977  18.1539668  80.4061794
  91.6999549  18.9755953  80.0009155  91.8576688  17.4965132  79.7208452
 112.8470540 105.6602955  85.2658749 112.6718345 106.2314987  84.5180416
 112.6661667 104.7782326  84.9410915  24.9538541  85.1506042  66.7660284
  24.1397119  85.5781364  66.5002823  24.7201514  84.6585655  67.5531149
  35.6839919  73.8566637  58.0226898  35.2277064  73.4267759  58.7460375
  36.2218976  74.5272779  58.4436035  38.4983516  79.4169807  89.8633385
  37.6961613  78.9423800  89.6454430  38.8985825  79.6125221  89.0160942
  23.5784006  54.4051409  71.4751148  23.2697630  54.7310972  72.3205280
  24.0895152  55.1282787  71.1117077  94.4445896   4.4430732   6.3058333
  94.9792946   4.9902629   5.7305960  95.0373257   4.1881894   7.0128970
  27.5148201  84.0739727  65.3925323  28.0751824  84.8056030  65.6512785
  26.7222214  84.1817474  65.9182739  29.4404864  93.1522179  34.6536565
  29.1769314  92.4672985  35.2681994  29.1993713  93.9700508  35.0886798
  51.4171219  56.7461824  64.1603851  51.9794083  56.7278099  63.3859634
  50.5300093  56.8283558  63.8103676 102.5655854  16.8055629  33.8042120
 102.5087416  17.1421146  32.9099326 101.6571009  16.7645597  34.1028933
  45.2050638  79.8096704  57.1370649  45.4482412  80.4714680  56.4896679
  45.0672674  80.3042030  57.9449558  43.1265736  84.4561577  88.4539890
  42.7429914  84.0916443  87.6563549  43.8714457  83.8857746  88.6438751
  31.1512804  57.6768398  59.5950222  30.2761197  58.0611420  59.6463680
  31.4495301  57.8779793  58.7079906 104.6004552 100.7205449   4.3955855
 103.9827079 100.2580605   3.8292555 104.0966147 100.9244214   5.1835017
  26.4650202  57.3877525  68.4222031  26.8093181  58.2534933  68.2026863
  27.0855474  56.7757940  68.0263710  43.9679670  68.8961267  62.4856663
  44.7361374  69.3949652  62.7637005  43.5761166  69.4266176  61.7919302
  10.3240144  50.5589581  71.4169121  10.2246284  50.7009268  70.4755306
   9.5600778  50.0370646  71.6623926  30.4923415  69.2085505  53.3411455
  30.3436708  70.1538277  53.3171272  29.6233320  68.8329315  53.4824371
   2.9381020   4.2203426   6.4747099   3.6605389   3.6938237   6.8168978
   2.1564514   3.8493346   6.8841128  60.4601902 103.2985984   2.8259425
  59.6851534 103.0037175   2.3478274  60.4030150 104.2539416   2.8089194
  10.7480764  65.9382248  39.1534615  11.1203229  65.8965826  38.2725930
  10.2744520  66.7697811  39.1742682  39.3414569  56.5491533  49.2684984
  39.6360612  56.2904596  50.1417208  39.6382070  57.4542665  49.1739750
   8.7318492  63.5149097  55.5743742   9.0125978  62.8522730  56.2055063
   7.7792108  63.4271049  55.5427027  27.6839876  79.1832113  43.6657763
  26.8658495  79.2866898  43.1798029  27.6009083  78.3322954  44.0962124
  98.6161459   5.9176873   1.6137270  99.3672431   6.0995292   2.1785502
  97.8539741   6.0684346   2.1728377  45.6887436  61.3211203  56.4821434
  46.0675335  61.2012529  57.3529959  46.3516331  60.9774256  55.8832407
  10.0755191  44.0284824  64.6411514  10.9202874  44.1980314  64.2242002
  10.2831769  43.4540749  65.3781509  27.7416182  60.1712227  82.0277596
  27.8946495  60.9730530  82.5276375  27.9210615  59.4644690  82.6478577
  44.9849749  64.9663544  70.5573177  45.2475214  65.8694792  70.3793478
  45.1205444  64.5095062  69.7271729  95.7361436  27.0927285   5.0324778
  95.8170557  26.6583204   5.8815817  96.1116147  27.9621648   5.1715140
  39.8036242  61.9150114  76.8800497  40.2788448  61.0998154  76.7192698
  39.7059894  61.9516659  77.8315544  21.3218069  69.0605593  93.9092064
  20.8279061  69.4181681  93.1713676  22.1946597  69.4434643  93.8212299
   5.4035837   0.8359765   3.0742030   6.2959940   0.4934072   3.1240038
   5.4673702   1.7228936   3.4285216  46.1941862  70.7067633  84.5511627
  47.0601845  70.4132605  84.2680931  45.5826998  70.1801968  84.0363312
  91.2571078  31.2760711  65.5079508  91.7257386  32.0103574  65.9047413
  91.3404923  31.4200091  64.5653152  70.2454060  99.2851125   2.0986132
  71.0243505  98.8152753   2.3964743  69.8284286  99.5921431   2.9036479
   8.0667615  62.3946190  69.8688793   7.2791851  62.6685047  69.3988323
   8.0590957  61.4390993  69.8127079  64.8100662  62.6278925  45.6643724
  65.5641937  62.0594406  45.5082083  64.0566778  62.1092796  45.3821039
  50.5358076  51.1201477  93.0443478  50.2214670  51.7331505  93.7089157
  50.9365463  51.6761017  92.3760986  50.7073069  56.0541296  78.9815903
  50.8367443  56.2237024  79.9147129  51.2656784  56.6953373  78.5419226
  10.8623540  49.0721798  83.6157227  10.8463073  49.5847321  82.8074837
  11.4333498  48.3299828  83.4173775  56.9743627 106.1443864  25.9820513
  56.7348832 106.5626536  26.8090491  57.4713582 106.8129454  25.5106120
  15.4113543  54.1189384  62.1990061  15.3149295  53.4251928  61.5465879
  16.1784518  54.6137094  61.9109201  33.9520001  67.1860456  55.5681944
  34.8337531  67.4220848  55.2800417  33.6882043  66.4799643  54.9781990
  34.6546793  48.0399799  66.5895510  35.3304744  48.7107229  66.4913654
  34.1627550  48.0737114  65.7691240  51.5732288  66.8187857  86.5585518
  51.4668703  66.7624331  85.6089497  50.8448648  66.3080263  86.9118786
  24.8546600  61.6726398  84.1790771  24.4710326  62.5161505  83.9391708
  25.7986760  61.8309402  84.1817093  26.6964650  65.8490992  53.9415979
  27.2740102  66.4618778  53.4864330  26.1762452  66.3998413  54.5266533
  44.3735027  68.4169865  69.6559095  44.3494225  69.3503189  69.4448471
  45.1416826  68.0859423  69.1905689  32.6374865  71.3102674  85.1487160
  32.8850579  71.7774963  85.9466076  32.1898770  70.5238295  85.4607773
   8.3894414  46.5263081  62.2153854   9.0830958  46.1200905  61.6957092
   7.5930721  46.3860989  61.7031670  95.3539265  14.3047904   8.7067084
  94.6133876  14.9070787   8.6354212  95.0290084  13.5893392   9.2533259
  31.6443729  59.8274755  72.7319384  32.4733186  60.2765512  72.8975010
  31.5999079  59.7503996  71.7788839  55.9444857  61.6363907  15.0614989
  56.5061951  62.4091816  15.1207101  56.0936832  61.2989521  14.1782606
  40.7965469  89.1104984  74.3726015  41.0421085  88.2423401  74.0528536
  39.9002051  89.0037537  74.6910524  14.5984680   0.1266717   6.1880641
  14.7547323   1.0343789   5.9275202  13.6532385   0.0095271   6.0929541
   4.8375615  59.8411179  89.0981293   4.5971352  60.6979799  88.7456894
   5.6301582  59.5989609  88.6191845  20.8871746  47.8112459  60.9088039
  20.3953958  47.3039103  61.5545559  21.3832951  47.1566296  60.4172993
  69.2204380  52.7388191  83.1529427  69.5773983  53.1881475  83.9190483
  68.3053398  52.5713491  83.3782959  16.3015556  62.7408695  73.1876087
  17.0910716  62.3395634  73.5507202  16.6034114  63.1933308  72.3999596
  92.0697046  50.0225591  12.4362902  92.0530522  49.2141294  11.9240527
  92.8847397  50.4529809  12.1780543  25.3407192  66.2998915  62.6329660
  25.4840302  66.6128969  63.5261202  25.8818913  65.5132771  62.5651121
  39.7779560  51.8718100  77.4191380  40.6042433  52.2375584  77.1033716
  39.9162841  51.7425489  78.3574295  51.0143948  61.0750198  80.2480412
  50.0573778  61.0646152  80.2637196  51.2394619  61.0093260  79.3200064
  15.5242383  48.9194965  57.6357555  14.7895670  48.6908436  58.2051468
  15.3963375  48.3837175  56.8529320  35.5272079  84.0462303  75.6915522
  35.6593466  83.8669014  74.7606325  35.9941125  84.8674583  75.8458996
  34.2162466  60.3799963  73.6695385  34.4032788  61.2989378  73.8613605
  34.9276257  60.1066256  73.0903673  37.8943634  70.8032465  57.9223061
  37.0386481  70.3793144  57.9876184  38.5192323  70.0786352  57.8957129
  91.6817570  69.2517853  29.4733858  91.4009953  69.4886160  28.5894656
  90.9405041  69.4873428  30.0313139  51.1022282  74.9987650  72.0895433
  51.1807489  75.7108116  71.4546728  50.4094887  75.2842855  72.6852083
  57.4523926 101.6295624  34.0688801  57.0131207 101.5246201  34.9128342
  57.9725456 102.4270630  34.1671324  12.5939476  63.1552362  53.2784700
  12.3289382  62.7998686  52.4301100  13.2704222  63.7988424  53.0677938
  38.0042338  64.0264893  93.4542847  37.1382737  64.3340588  93.1864357
  38.4186697  64.7929668  93.8504982  46.4205027  72.2622585  78.7694454
  46.3341331  71.8421888  77.9136896  45.8669233  71.7397165  79.3497276
  37.9627132  65.5726004  89.4920826  38.3536863  64.8291063  89.9509716
  38.3714652  65.5617237  88.6266136  36.4041996  83.4915352  86.3102627
  35.9754705  83.3162117  85.4725933  36.3918877  84.4452763  86.3906288
  72.6390284 109.4256221  26.5644602  73.5395736 109.1295682  26.4317946
  72.1296901 108.9421616  25.9140162  99.2766202  35.0547647   3.3222060
 100.1795423  34.9282216   3.6136679  98.9692176  35.8139657   3.8175349
   5.5708087 104.6891652   1.2786536   5.2900661 103.9128028   0.7942156
   5.0124038 104.7013436   2.0559935  54.3972731  84.2564106  95.0506878
  54.0029573  85.1139069  94.8911667  53.8741207  83.8801575  95.7584858
  71.3081879  92.1880089   9.2365603  71.6080278  91.7849789   8.4217696
  72.1132583  92.4214350   9.6987395  45.5877972  52.8639650  71.3052654
  45.2925920  51.9799137  71.5232897  45.6995153  53.2949591  72.1526098
 108.8670974  69.5362616  77.4097157 109.5265883  69.0545225  77.9089499
 108.1692618  69.7111654  78.0411196  29.0572429  78.2444286  91.6816807
  29.0355611  78.6526728  92.5471878  29.9105167  77.8124905  91.6419125
  14.8117805  97.7415752  38.0078983  15.2722180  96.9292641  38.2185507
  15.4839778  98.4203911  38.0679011  20.6461930  69.2396259  78.0683994
  19.7657418  68.9340496  77.8500938  21.1625624  69.0640450  77.2817850
  38.1035042  54.5735884  72.6855755  37.8249907  53.6735725  72.5163460
  37.4853849  54.8962975  73.3413315  41.7610645  69.0870762  64.7341871
  42.2834587  68.7218142  65.4482746  41.3379335  68.3273935  64.3340969
  65.5125112  93.5654054   6.2976126  65.8431119  93.0467687   7.0310645
  64.5658249  93.5985170   6.4351706  21.2554772  27.3578595   1.8447833
  22.1363003  27.5196504   1.5068392  21.3194973  27.5474786   2.7808241
  22.4805069  49.2181444  49.7545958  21.5497231  49.3929291  49.8936081
  22.8509355  49.1778755  50.6362963 109.7009552  30.9257077   1.7623286
 110.3511346  30.4135656   2.2431712 109.2514646  31.4355325   2.4363284
  30.2936387  73.1069613  72.0164633  29.4959521  73.5817432  71.7829895
  30.5557060  72.6667786  71.2078905  46.4291239  73.8365555  69.0796709
  47.3552513  74.0488815  68.9637518  46.1982298  74.2246771  69.9236393
   8.2653177  59.6574306  69.8918533   8.2114482  58.9975834  69.2005253
   8.8121921  59.2539835  70.5659389  11.5987575  80.4734898  55.8856201
  11.4703858  80.2655888  56.8111086  10.7159066  80.4748440  55.5157471
  13.4500623  33.7443304  69.9963188  13.1662953  33.0670643  70.6103373
  14.4049489  33.6780167  69.9910927  32.7529931  61.3498449  91.6818047
  31.8867755  61.3835907  91.2758923  32.7670169  60.5135012  92.1471691
   5.4532868  47.2514343  61.6554832   4.8567227  46.5029430  61.6453362
   4.8998654  47.9956055  61.8924665  17.7222311  88.8945007  53.8608074
  17.1925831  88.2044888  54.2602873  18.0766404  89.3843460  54.6028852
  88.0456567   1.8611287   5.2275900  88.9156545   2.0879220   4.8991065
  87.8214121   2.5750255   5.8244948  30.3901458  64.1470385  72.7119970
  30.9997654  63.4669399  72.9984665  30.9229779  64.9406433  72.6618814
   1.0792072  56.1675549  54.8853111   0.7067037  55.8087730  54.0798616
   1.0185030  57.1164799  54.7753286  15.8911705  58.2488060  70.9913397
  15.5659354  57.3944521  70.7075644  16.4591670  58.0533838  71.7366076
   2.9866838  64.7904634  87.1895695   2.4731724  64.0204668  86.9453526
   3.6209732  64.8903513  86.4796925  98.5723274  57.7998209  40.9630346
  98.8846641  58.2626343  40.1855469  98.5649782  56.8777800  40.7060957
  39.5643806  57.8692102  58.5613537  39.1005158  57.6148176  57.7636433
  40.4906416  57.8264618  58.3237743  57.4084854  53.4977388  77.6948977
  57.1660376  52.6773977  78.1244278  56.6448259  54.0632296  77.8101158
  32.6066375  74.4784164  46.1460257  32.0826149  74.9113750  46.8199539
  32.0373464  74.4572020  45.3768110  17.8534348  17.5149154   6.7857794
  17.1530230  17.7660608   6.1836390  17.4936707  16.7762803   7.2769217
  76.1377703  13.7150907   8.3357291  75.1912633  13.6030196   8.2474379
  76.4961310  13.3825826   7.5127844  32.1236277  65.3553772  65.0269413
  31.6054368  64.5645237  64.8777294  32.8469443  65.2889490  64.4035435
  15.2601635  75.7980871  93.2554436  14.5741570  76.2703419  92.7836418
  15.3188646  74.9528837  92.8100014  38.4001088  83.0798054  26.7268157
  39.2855453  83.0916595  26.3633680  38.3976555  82.3344231  27.3273301
  23.9488775  15.3427076   3.2230143  23.0657322  14.9760007   3.1804232
  24.5236141  14.6091413   3.0044035  42.5852966  71.4017916  73.2167006
  41.9462919  71.4443016  72.5052929  42.5422096  72.2644711  73.6292076
   8.7769336  73.3481407  57.3505688   9.1983247  73.2065105  56.5028620
   8.7457865  74.3000078  57.4464989  30.3617072  97.1251392  44.2864609
  31.2590027  97.1448231  43.9537382  30.1953650  98.0209255  44.5799208
  44.6699667  50.2255297  71.1754990  43.8333607  49.7820330  71.3156128
  45.2768612  49.5234966  70.9408331  15.7047462  48.6843681  76.8518209
  16.4300668  49.2183542  76.5277815  15.9319162  47.7906656  76.5950823
  49.2947626  76.0708189  87.2960377  48.8713646  75.8204746  88.1171894
  49.2090225  75.2984524  86.7371655 116.7333239  81.4068127  52.3484468
 116.2592989  80.8776760  51.7069292 117.6127871  81.4970684  51.9815254
 101.9940818   9.7212505   3.0750517 101.9200838   9.4223785   2.1687274
 102.7197516  10.3453397   3.0629591  15.6566095  51.3560152  84.0544987
  15.4550326  50.5108690  83.6528397  16.4471316  51.6529369  83.6037827
  34.4311070  59.4130039  87.9722214  33.7360168  60.0690079  87.9198837
  34.4917822  59.2021561  88.9039326  21.7292452  61.3188362  78.4371901
  21.5698314  60.5852461  79.0310526  22.5618172  61.1082220  78.0144644
   3.5297170  66.2572527  40.2075005   3.4159189  65.7998037  39.3744206
   3.5230514  67.1854877  39.9739075  27.8092146  85.0347900  74.9050570
  26.9029093  84.8642921  75.1615238  27.9042411  84.5997620  74.0577364
  23.0755520  71.5373325  78.1321669  22.7126145  70.7032108  77.8342533
  23.8204336  71.6952419  77.5521278  35.3870440  53.8367987  59.9797678
  36.2109566  53.5222626  60.3518820  35.3693700  54.7700787  60.1916742
  24.9193120  84.4099426  75.7103348  23.9766669  84.2498589  75.7553720
  24.9983239  85.3625107  75.6593323  49.9791908  88.7808990  91.7839527
  50.0138950  89.7371864  91.7608929  49.1894913  88.5819435  92.2869682
  36.0143733  74.6613503  42.9135227  35.6980753  75.3025293  43.5499763
  36.9027138  74.9498606  42.7041292  38.3767748  49.7202682  69.4033718
  38.5047913  50.6498671  69.2144489  37.6256704  49.6975851  69.9962950
  67.0318860   2.5642622  94.6731091  67.0527619   3.3497942  95.2196693
  67.2017068   1.8448008  95.2811909  23.7320924  49.8321152  84.6228313
  23.2439876  50.6019449  84.3306923  23.0820060  49.1298246  84.6431160
   7.4092156  83.1835461  64.0608597   6.7093968  83.0527782  64.7006893
   7.1647763  83.9855862  63.5991096   7.0056183  20.8497428  -0.1225229
   6.3824684  20.1754140  -0.3930612   7.1658547  20.6699800   0.8038859
  27.6555514  48.4806347  52.3439312  27.9761076  47.5819540  52.4203920
  27.7168798  48.8331604  53.2317352  50.4278898  71.9804335  92.8363895
  49.7421026  72.4847937  93.2740498  51.1497974  72.5998974  92.7298641
  54.6447754  65.5081081  73.2818222  54.5096588  65.1860571  72.3906088
  53.8080883  65.9061909  73.5220623  25.0230575  58.8803053  51.5573645
  24.3229628  58.4893942  51.0345984  25.6310201  59.2410183  50.9119940
  42.6876450  50.3243876  87.4917889  43.4983110  50.8283281  87.5632191
  42.4711418  50.0898170  88.3941936  14.0743184  44.0798807  37.4523163
  13.6803651  44.7950172  36.9527006  14.7168648  44.5083380  38.0178165
  53.4655666  69.6476030  80.7564926  53.1802416  70.4217577  80.2712059
  52.9715538  68.9257288  80.3678036  29.6991515  68.2125092  75.1681757
  30.6341124  68.1757498  74.9663591  29.3357587  68.8074875  74.5122957
  40.4946995  59.4452763  45.6730747  40.6101274  60.1966524  46.2547445
  39.5817685  59.1851711  45.7960892  28.7777615  50.4550219  66.9343376
  28.3240461  50.5434275  66.0961533  28.6776423  49.5313501  67.1646309
  16.2413532  23.4165811   6.4965395  15.5572636  23.3932018   5.8274321
  15.7826836  23.2259702   7.3147826  44.5034885  74.2472029  67.2539139
  45.0252199  74.0492296  68.0316210  44.8445797  73.6586666  66.5804815
   8.3509523  52.4461842  83.6676121   8.6840481  52.9828548  84.3868160
   8.3919454  53.0194044  82.9021263   9.8893816  10.1947545   3.9334349
  10.6123955   9.8509597   4.4581084  10.0304253   9.8268890   3.0610709
  44.4493532  53.0261517  81.2744713  44.1670895  53.6509657  80.6065083
  43.9757204  52.2211838  81.0648727   9.6710426  22.8820705   0.0575118
   8.9442713  22.2593116   0.0718646  10.4549153  22.3344182   0.0144534
 111.2810672  31.6322946  17.9872088 111.4804209  30.8435582  17.4828391
 110.7072795  32.1431016  17.4161677 116.3743489  62.7932215  64.1466665
 115.9576033  63.4999084  64.6397638 116.4254649  63.1245422  63.2500935
  40.5655670  67.3728132  69.0884161  40.7020712  67.0511818  69.9795675
  39.6169329  67.4766636  69.0139484  39.5605683  66.5336514  65.7362556
  39.0921211  66.9975233  65.0422716  39.1181707  66.7989492  66.5425634
 116.9069067  55.3668690  52.5842333 116.2949670  54.8705673  52.0406818
 116.8986756  56.2481117  52.2106457  57.3495770  65.8476543  87.7280045
  56.4538336  66.1119032  87.5181293  57.8720522  66.6366196  87.5838280
  19.2269695  37.8935671  85.1005173  18.4042382  38.0181241  85.5736256
  19.8164558  38.5523391  85.4676056  14.9342895  77.2308874  84.1673183
  14.5748162  76.6409779  83.5047340  15.6406355  77.6944447  83.7174034
  29.2925644  80.9598255  68.7572145  30.1108742  81.3942909  68.5167122
  29.4979739  80.4939365  69.5677662  52.7319998  96.7881976   9.1735510
  52.1778590  96.0230265   9.0196948  53.1164223  96.6358434  10.0368170
  20.5473804  56.3061666  65.8990669  20.8280659  57.2193718  65.9582663
  19.7089660  56.2829113  66.3603163  31.3240409  64.7019529  57.4195862
  31.0206079  65.5599546  57.7162266  31.0666347  64.1017675  58.1194067
  20.2883554  59.9683046  56.5307951  21.2188125  60.0089741  56.7517710
  20.2248120  59.2587805  55.8914423  68.6010069 101.8403874  14.6168570
  68.5927767 102.5263081  15.2844481  67.7296847 101.8794976  14.2225222
  41.7526913  62.7664661  34.0012169  41.4812231  63.3100414  33.2615781
  42.6612520  62.5354195  33.8079143  31.4117432  52.3128605  58.4997082
  32.2860312  52.0256472  58.2363510  31.0830617  52.8021240  57.7455044
  10.6877358  21.4099359   5.0060801  10.4758293  22.2717189   5.3647666
  11.0097534  21.5906429   4.1229682  15.7510078  59.9732780  61.9353437
  16.4175582  60.6597519  61.9088697  15.2879882  60.1207018  62.7600336
  28.2826066  41.5603733  88.4344673  28.1239986  41.2350416  89.3206024
  28.0695891  42.4924660  88.4798145  52.7175743 108.6160384   6.8606429
  52.6022524 107.6738225   6.9837813  52.2325593 109.0132533   7.5839762
 114.6097269  48.2649517  80.6920433 114.1358548  49.0404415  80.9925270
 114.1848218  48.0292320  79.8673439 114.4765365  24.2972278   6.6412882
 114.9917639  23.8083171   5.9996180 115.1015389  24.9039506   7.0381407
  35.3326893  52.2911406  63.9345312  36.1070800  52.7917290  63.6777067
  34.9062300  52.0683336  63.1070518  56.5464020  57.1907187  62.8949690
  56.0717630  57.3027182  63.7186241  56.3378382  56.2985992  62.6177454
  61.9113398  79.3876553  87.4107838  61.1306953  79.1825008  86.8962669
  62.5152588  79.7833204  86.7823315   8.2907087   6.4628600  23.7523322
   9.0160782   6.9067621  24.1916708   8.4081299   6.6717195  22.8256087
  21.7524600  77.9741049  44.3179893  21.0555100  78.3453560  44.8589706
  22.5601244  78.3220243  44.6959591  21.0542369  42.1995544  74.9558783
  21.1599803  42.2894907  75.9029627  21.9032073  42.4546957  74.5947933
  81.8895054  37.7321482  87.7579594  82.2805786  36.8649530  87.8641033
  81.3816261  37.6684785  86.9491100  45.4682732  72.8476334  75.7784653
  44.5369864  72.7516031  75.9777546  45.7647705  71.9582939  75.5850744
  25.4193044  45.4250288  79.2573452  25.2317238  45.4704571  80.1948833
  24.6217489  45.7474613  78.8376141  26.6502500  64.3750525  40.7563639
  26.7894816  65.0172615  40.0603676  27.5297904  64.1736174  41.0758448
  27.5492024  50.9677744  64.6657324  27.5566864  50.2825356  63.9974308
  26.6483045  50.9771872  64.9890423   5.8272791  36.4502573  56.4647484
   4.9930316  36.9169593  56.4152384   5.7977426  35.8290362  55.7371187
  -0.1565030  75.7114124  26.1871624   0.0443036  76.1718130  25.3723383
   0.6465270  75.7776785  26.7038679  37.6649976  63.0110931  73.3081388
  38.5548115  62.6730680  73.2071209  37.1723771  62.2807026  73.6824179
  58.4060127  17.4865473  87.1779060  57.6729101  17.6698721  87.7654266
  59.1631836  17.8831995  87.6086998  24.9302292  58.6819601  61.5216398
  25.1893592  59.6033525  61.5109968  24.4920897  58.5466576  60.6814241
  29.0922141  51.3813591  61.7965555  28.7695193  51.2598801  60.9036112
  28.7529922  50.6271124  62.2784996  21.7690158  91.4090347  74.5358658
  22.2475266  91.2853432  73.7161398  21.2271118  92.1829987  74.3824196
  14.2818248  51.0501051  44.6809483  14.5314753  51.1762762  43.7655354
  13.5712838  50.4095125  44.6493244  86.2026280   6.4757919   0.4725604
  86.9082767   6.7694282   1.0488181  85.7240665   7.2752666   0.2533583
  88.1810379  64.1099167  70.4416943  87.2527122  64.0729046  70.6720495
  88.1875515  64.2909336  69.5017862  17.8224540  78.2033348  66.6975737
  17.9170632  79.1449070  66.8415356  16.9758642  77.9853106  67.0874214
  95.1384032   9.7699737   0.3580813  94.7095979   8.9522218   0.1058249
  94.6393872  10.4510879  -0.0928064   6.0278392  63.6480045  52.2220230
   5.2139097  64.0796518  51.9623423   5.9509516  63.5423565  53.1702614
  26.4125371  64.2523956  50.8748722  25.5582714  63.8222218  50.8373117
  26.3397288  64.8661089  51.6058207  41.6972589  50.2442265  82.8159618
  41.1038589  49.5018959  82.9302216  41.5571356  50.7847357  83.5934258
  31.7042994  93.3973598  68.9448547  31.8099213  93.5717678  69.8800850
  30.7575488  93.3352375  68.8182259  44.3421030  83.1807041  50.8861017
  44.9179363  82.4953842  50.5470037  43.4737253  82.9483032  50.5572557
  80.6396294  70.9787083  29.2840409  80.4164886  71.1409998  30.2006125
  79.9081278  70.4611540  28.9474726  47.8974819  86.3994122  69.5975208
  47.7437735  85.5109596  69.9188614  47.0644474  86.6592979  69.2041492
  23.2888865  66.7694569  73.1636381  23.0681396  66.5664482  74.0726423
  23.8269925  67.5591803  73.2184696  39.3557501  74.7490501  57.2837543
  38.4431720  75.0192499  57.3858738  39.8463202  75.5702829  57.2497702
 106.7730081  17.6472520  17.5982146 107.6863540  17.3652124  17.5483756
 106.5920365  18.0260515  16.7379813  42.2674990  82.4405670  45.8045912
  42.1283960  81.6744328  46.3612986  42.8245211  82.1224308  45.0941372
  16.8855739  40.8580256  81.5546513  17.7567804  41.1550856  81.2919998
  16.7728877  40.0200415  81.1059666  44.8946381  53.1700563  76.4527416
  45.2508307  52.5858879  77.1221495  43.9582157  53.2133436  76.6463041
  29.6303153  82.3641872  54.8001862  29.6128225  82.3442841  55.7570219
  30.4802394  81.9898796  54.5683384  40.7926750  74.0976858  85.4268932
  41.3430262  73.6522532  84.7827435  40.8716059  75.0262117  85.2081680
  27.4291515 105.6066895  53.5391998  27.8747773 104.7600651  53.5094881
  26.9001818 105.5710888  54.3361664 109.7299081  68.5115671  66.1170006
 110.0600272  69.3781185  65.8796358 109.2193585  68.2332277  65.3566742
  23.0385995  61.6016912  65.1250839  22.6027846  61.0593367  64.4677019
  22.8262496  61.1835909  65.9595490  53.6189795 106.0810661  77.2378588
  54.4378328 105.6340027  77.4519825  52.9443550 105.4110241  77.3481464
  11.8744356  36.6816091  16.9075636  11.9351704  36.9881868  16.0028224
  11.7550928  37.4791669  17.4232058  13.0356240  56.8248272  68.6317396
  12.3621333  57.2626209  69.1522980  12.6403713  55.9894228  68.3825350
  42.6256752  65.1845551  76.6134357  41.9650555  64.7551632  76.0698938
  42.5837421  64.7228956  77.4508953  48.8983011  65.5247736  51.7870569
  48.4875250  65.1461697  52.5643301  49.4739199  64.8336172  51.4596510
  22.0271349  76.5778923  35.9990954  22.9606295  76.3840342  35.9140205
  21.6677785  76.4126205  35.1274419  24.4755697  73.0831861  50.9667921
  25.3735709  73.3944845  51.0804558  23.9303589  73.8358402  51.1958838
  13.1546378  70.1839542  66.1263752  13.6971867  69.5047474  65.7256842
  12.4590898  69.7019720  66.5737438  23.2844901 104.4836617  78.1483173
  23.0130935 105.2293301  78.6836243  23.0022025 103.7162399  78.6459208
  39.8935437  84.1551495  50.8319426  40.7646990  83.7651634  50.7596588
  39.8677874  84.5216560  51.7158222  17.3521459  72.9267550  59.0105629
  17.7210820  73.7996721  59.1452217  16.6722059  72.8482676  59.6797085
  43.9907837 104.4804096  68.9643574  43.0789185 104.7463131  68.8459539
  44.0469360 103.6229801  68.5425758 117.1440375  27.9994249   0.2819399
 116.3615501  28.0414151  -0.2677675 116.8141902  28.0927324   1.1756472
 114.4847381   2.3933028   3.6606459 114.3449080   2.8324842   4.4995741
 113.6135877   2.3462533   3.2667975  43.3940744  67.1356678  41.0126209
  43.4109735  67.9775429  41.4678097  42.5147915  67.0835733  40.6379509
  52.8177786  63.7342644  81.2289333  52.2236681  64.1060066  81.8809032
  52.4973631  62.8424644  81.0937977  26.3435221 100.6218147  71.0512257
  26.2564993 101.5631676  71.2012959  25.6308556 100.4084110  70.4488993
  10.9002221  97.8582764  88.1834507  10.4359412  98.4775543  87.6202679
  11.3387191  97.2634983  87.5750160  47.8597069  55.9502745  64.4019985
  46.9296265  56.1763144  64.4114065  48.2560110  56.5912485  63.8118076
  35.5625010  66.7268848  64.8903561  35.9645581  65.9890604  64.4318867
  35.8934450  67.5009823  64.4348574  13.1570084  19.0466546   4.2218260
  12.9281695  19.7998857   3.6773066  12.8146536  19.2649125   5.0886492
  36.3471985  63.4871244  53.8911629  37.2480845  63.3523655  53.5970974
  35.8704758  63.7320518  53.0980825  52.6033449  98.8127804  64.7715664
  53.1009579  98.0481148  64.4818974  53.1943130  99.5518208  64.6273375
  37.8964996  68.0075359  74.6766520  37.2218966  68.0169153  75.3556633
  37.8286147  67.1374083  74.2835855  83.5261649  35.8553637  80.5659866
  83.7177152  36.3750018  81.3466930  82.8291148  36.3382567  80.1219463
  46.4868307  97.5405598  52.8553247  46.3622189  97.8735352  51.9666052
  47.4155283  97.6845551  53.0370283  59.7196054  75.0266933  49.3317509
  58.7986517  74.8903179  49.5541763  60.1184797  75.3388500  50.1439619
  13.9665294  64.2452383  93.0588722  13.3511138  63.6913967  92.5785065
  14.1062498  63.7857628  93.8868809  50.2507401  80.5209732  34.1494346
  49.6589041  79.7707081  34.2048001  50.0842619  80.8939838  33.2837701
  39.5992899 101.4534283  82.9796314  38.7524867 101.5802574  83.4074974
  40.1547337 101.0681248  83.6573124  18.1281734  71.7067194  70.1697922
  18.6210239  71.7062378  69.3492270  17.4103773  71.0918283  70.0184202
   5.9755785  37.5266122  11.6331915   6.7289669  37.0265435  11.9471411
   5.2192862  37.0956086  12.0312933  16.7830801  65.3015757  46.5674543
  15.9698939  64.9644804  46.1915207  16.6417336  66.2457705  46.6364002
  25.0869298  99.2204762  73.0845833  24.6175933 100.0496960  73.1759834
  25.6937790  99.3674469  72.3590755 111.1835247  52.0908689  48.2311583
 111.0245835  51.2067509  48.5617685 111.7695802  51.9657135  47.4847603
   7.6428777  77.5634766  38.1352329   7.4654645  77.3679399  39.0552974
   8.4357685  77.0666838  37.9333639  47.2366762  40.1532125  86.2540245
  46.8440437  39.3455124  86.5852165  46.6363859  40.4480696  85.5692291
   7.9169786  54.2346287  81.4531803   8.7789965  54.6507072  81.4591885
   7.3502856  54.8509789  81.9170761  41.2547731 102.3203754  60.0048018
  41.7401791 102.8143597  60.6655502  41.4274788 101.4030552  60.2167606
  43.2237387  80.3925705  72.4881077  43.2014990  79.8150492  71.7250776
  44.1515923  80.4537487  72.7152109  32.4967456  80.8470440  86.6804600
  32.1270084  80.2876186  87.3635197  32.2008920  81.7287827  86.9068241
  78.3164454  96.8629837  84.6423531  77.5070238  96.9396687  85.1475239
  78.8161182  96.1818886  85.0925446  25.4791093 106.3913822  62.5822496
  25.5981684 105.8115005  61.8300581  25.0115013 107.1484089  62.2294188
  41.0075665 103.4141159  70.2204990  40.1093674 103.0837631  70.2389336
  41.4220619 102.9408741  69.4990635  25.6971121  61.7321634  91.6555405
  25.2051163  61.7152119  90.8346367  26.0510015  62.6202011  91.7043877
  57.9161835  56.5817547  47.4020243  57.8352070  56.9309568  46.5144825
  57.3952961  57.1763468  47.9418087  89.7002858  10.3586234  87.0413113
  89.8756856  11.1894549  86.5995121  89.7048205  10.5772627  87.9731941
  58.3650923  69.5704222  35.6392002  57.8915071  69.5751333  34.8073769
  57.8832245  70.1850319  36.1926365  60.8037758  57.1430683  40.9015751
  61.7140484  56.9467926  40.6799507  60.3619242  56.2944412  40.8727932
  88.4497929  53.8219643  90.5197144  87.7570248  54.1353941  89.9382782
  88.8499641  54.6191549  90.8669567 116.1647380  31.7925309  21.9089274
 115.2458942  31.9018220  22.1539073 116.5729368  31.3985490  22.6798968
  35.3905368  49.2829990  79.0232849  34.7615314  49.7864532  78.5064507
  35.2343893  48.3730698  78.7705421  31.0962462  69.8244524  50.4883480
  31.8279529  69.2208958  50.3596830  30.7099676  69.5581484  51.3226748
 102.0197761  20.8224010  10.5128722 101.8235243  20.3780317  11.3376383
 101.7068494  21.7176294  10.6427626  32.9654860 105.7053375  51.2259960
  32.1399212 106.1717892  51.0952234  33.6042500 106.2006378  50.7132673
  93.9925784  18.2962454  53.5650301  94.7187251  18.3385886  52.9428148
  94.1029424  17.4533022  54.0049219  34.1374111  57.2988987  62.5371075
  35.0268698  57.5294304  62.8053474  33.5933995  58.0103827  62.8748560
  15.5422008  79.1223669  56.4934444  16.1890280  79.2233181  55.7951212
  14.9492395  78.4421492  56.1741781  63.0285782   2.1971358  59.4995832
  62.3011583   2.7693785  59.7437620  63.2257384   1.7066229  60.2975559
 112.1681994  11.8856276  26.7266107 112.5211686  12.6915396  27.1036530
 111.2376708  12.0691241  26.5974736  76.2715672  22.5034475   4.9280505
  75.8375655  22.4116992   5.7762579  76.7430401  21.6788482   4.8098044
  39.5168972  91.0826683  72.3088789  39.1187787  91.8872261  71.9765759
  39.1158581  90.9543133  73.1684875  69.4129467  61.7115211  27.9010153
  69.6719170  61.6084623  28.8167381  68.9963245  62.5725603  27.8653836
  16.0766728  12.5751542   0.2296500  15.3165180  12.1178722   0.5892233
  15.8417351  12.7505683  -0.6815382  18.9355004 108.6660862  77.0725584
  19.2578483 109.3528748  77.6562071  19.7183871 108.1725788  76.8280888
  28.2696748  83.6842155  53.2311010  28.7749100  83.2376099  53.9104462
  28.9191699  83.9305592  52.5725365   1.5309893  97.5303555  69.6208811
   1.5419109  97.9352093  70.4881811   2.2033453  96.8505096  69.6654224
  52.3542786  74.9926901  30.5917645  52.1757841  75.4535723  29.7720337
  51.8864632  75.4974031  31.2570786  50.6237507  82.2488880  75.5325460
  49.9710035  81.8382359  76.0995722  51.1193514  81.5157127  75.1677656
  62.0840406  61.3085461  93.4776115  61.7648840  60.5843163  94.0160084
  62.4774122  60.8846951  92.7148247  47.9629850  94.8644543  76.4996576
  47.3907042  94.9637222  75.7388210  47.4777889  94.2888260  77.0908260
  38.2812108  72.2699891   4.2234091  38.6431337  73.1220661   4.4667391
  38.7570113  71.6432033   4.7683672  28.1755066  99.7030258  88.7442875
  28.7042713 100.0714684  88.0365467  28.7596583  99.6990108  89.5025635
  32.9494619  78.8845396  69.5516443  33.8517308  79.2041254  69.5543671
  32.8883481  78.3330584  70.3316212  26.5372896 105.9925747  57.4116516
  26.9141006 106.8713760  57.4556923  25.8730292 106.0509205  56.7249298
  51.2765217  74.9147129  44.1277027  50.6664324  75.1294613  43.4220791
  51.2542534  75.6784391  44.7042942  98.4604323  12.0581960  25.3501181
  98.9133060  11.2188339  25.2688174  99.1573799  12.7123212  25.2989439
  43.5816908  97.9227829  61.8766356  43.1407642  97.2666931  61.3368607
  44.3511820  97.4705601  62.2224712  12.2100145  14.7981786   5.4405837
  11.3306934  14.7842120   5.8185248  12.6804859  15.4557704   5.9528975
  14.2655117  31.8640374   2.9993491  13.3572371  32.0933580   2.8026728
  14.4797594  32.3796701   3.7768130  32.5332141  53.5470915  53.4734678
  31.7026138  53.8231182  53.8609552  32.5858474  54.0314960  52.6495647
  45.2125168  82.8978443  44.7832441  44.7185707  82.0780754  44.7983694
  46.0003233  82.7122498  45.2942705  50.7718897  81.5365028  80.2354336
  51.4010382  81.7721176  79.5535994  50.5096531  82.3734093  80.6189060
  11.7367053  82.8980637  60.1513910  11.7601299  81.9699287  59.9184895
  10.8345151  83.0519581  60.4317522  27.4674129  93.2499218  80.7411289
  27.8829193  94.0865612  80.9499741  26.5601206  93.3550072  81.0274982
  24.7779846  92.5637913  48.0913877  24.5865965  92.2592545  48.9784431
  24.7310019  93.5180092  48.1503916  30.9086204  72.0452738  62.5426102
  31.8616819  71.9738007  62.4896955  30.6452847  72.3770046  61.6842175
  25.2608824  99.1438866  83.2391548  24.6996284  98.9656448  82.4845314
  25.6814122  98.3050728  83.4283161   9.4125843  86.6907787  75.7388306
   9.6292245  87.3624039  76.3855267   8.4558821  86.6875839  75.7081270
 111.6562807  64.7093916  78.2800484 110.8779132  64.2104149  78.5278273
 111.6293996  64.7358370  77.3235893  22.2178555  89.0285873  65.9936142
  22.9021907  89.6973801  66.0189819  21.5093470  89.3905926  66.5257835
  97.4572206  26.4605760   2.8203158  96.7156053  26.2050771   3.3689169
  97.2463751  26.1109494   1.9545607 110.8095372  25.5713796   8.2271246
 110.3671921  25.9448575   8.9894061 111.1723769  24.7436523   8.5424571
  63.3490580   4.1203249  72.4758291  63.0857366   3.2242049  72.6852751
  64.0872878   4.0188159  71.8750429  46.6480589  98.8474083  33.1461287
  47.0620632  99.6178913  33.5349560  46.0283518  99.2040157  32.5097108
  86.5966481   1.1164893  88.9019108  87.0488233   1.4156855  89.6907425
  87.1145600   0.3715075  88.5969639  53.0331945 101.9237041  45.8055067
  53.0491638 102.8253460  45.4845428  53.6627483 101.9149303  46.5264893
  49.1574526  63.6748075  80.4932308  49.2322969  63.1273079  81.2748146
  48.3675909  63.3590221  80.0543308  44.2592049  57.6982689  62.1003437
  44.8961210  57.2112894  61.5774488  44.2003775  58.5521889  61.6718674
  36.6748333  67.1470881  77.1716738  37.5313973  67.2758532  77.5790405
  36.1105204  67.7973604  77.5899124  18.3708858  60.3136826  93.0131912
  18.3318007  60.0996590  93.9453411  18.5919702  61.2447166  92.9902840
  43.2604742  80.9583282  67.6556301  44.1060305  80.9880161  68.1032753
  43.3704948  81.5323639  66.8976021  51.0045385 104.3297768  69.3703794
  50.2689457 104.8912621  69.6150732  50.7615566 103.4622288  69.6937084
  42.2949982  85.1418209  78.4446383  43.1918716  84.8910713  78.2233334
  41.7754984  84.3587685  78.2624865  48.4064102  86.3764477  78.8276005
  48.7686443  85.7627964  78.1884956  47.8538656  85.8358955  79.3921614
 101.9599837   6.9991244  33.2597733 101.7326898   6.2214411  33.7694550
 101.1482781   7.2377528  32.8120875  17.2805834  69.9979448  62.1900368
  18.1480837  70.2232027  62.5260925  17.3566055  69.0809584  61.9262409
  40.8459759  90.3191280  77.9616308  40.2487135  90.1879501  78.6980438
  40.4455996  91.0227871  77.4509382 100.5852044  44.0715265   0.1367430
 100.6890047  44.3203496   1.0551886  99.9425185  43.3623361   0.1518874
  40.4664230  89.6963024  45.6527281  41.1695147  90.0387096  45.1007748
  40.2317572  90.4282188  46.2232208  54.4727898  87.2476578  70.5076599
  54.1810465  87.7269650  71.2831450  53.7279987  86.6935062  70.2743387
  41.8947744  94.9736404  51.5990067  42.2200537  95.8312988  51.8725872
  42.2714710  94.8409462  50.7291031  78.0229139  83.7656116  90.1438141
  78.3321714  84.4781971  90.7031059  77.8914070  84.1729355  89.2876530
  71.6372252  54.9629593  73.4934473  70.9160328  54.4835281  73.0856991
  72.0659924  55.4144764  72.7664518  55.3620291  80.5771637  85.7359982
  54.9513006  81.2620926  86.2636471  55.1374531  80.8031273  84.8333740
  14.8275220  55.6744432  70.3511238  14.3020499  56.1207819  69.6871233
  14.2068982  55.1031208  70.8034992  47.2418356  58.9511204  49.3599939
  46.8008423  58.1506348  49.6445608  48.1558418  58.6922264  49.2425108
   9.4879699  97.1260738  71.0850525   9.6607655  96.9569588  70.1588917
  10.0475085  96.5043736  71.5505028  34.3094087 102.6856327  37.5154185
  35.0766873 102.5624561  36.9565415  33.8286972 101.8606853  37.4474955
  21.7899942  71.8322611  72.3216486  22.1405840  71.0142422  71.9692802
  22.0662856  72.5009108  71.6949129  18.3471572  83.4046268  58.5434341
  19.0756416  83.4978199  59.1573238  18.6080194  82.6841259  57.9697990
  43.7143564  79.7118616  85.1221657  43.5828829  78.8541222  84.7181511
  43.9012814  79.5178509  86.0406685  68.3654404  89.2287254  41.9395733
  67.9550648  89.7742462  42.6105595  69.0052843  89.8046112  41.5210199
  42.9197550  56.5999079  51.5369511  42.0167732  56.7000675  51.8383169
  42.8426170  56.1550570  50.6929207  45.3606272  60.8643627  36.8054795
  46.0331917  60.3226042  37.2182560  44.6255255  60.2676725  36.6646886
  45.7777214  68.1712961  52.8459549  45.5745983  68.0587673  53.7745571
  46.7185020  68.0056858  52.7847862  20.5096006  53.5397291  87.5608063
  19.8995614  53.5025311  86.8241215  20.7819748  52.6315737  87.6923180
  92.8299397  10.3282870  79.1164827  92.3337907   9.7625483  79.7080898
  93.7245244   9.9900378  79.1557407   5.5412514  24.5978307  -0.0264116
   5.5882246  24.4042062   0.9098296   5.2182657  25.4978895  -0.0689359
   3.5214871  73.4450674  48.8054562   3.5559529  74.3038702  48.3841372
   3.3603993  73.6377192  49.7291279  22.1356535  85.7187843  33.0750179
  22.0587945  85.2482605  33.9050412  21.8369699  86.6061115  33.2741570
  22.3552871  94.1725254  82.2558308  21.7403579  93.5696507  81.8379307
  21.8068838  94.8859501  82.5821972 103.0731481  40.9548426  85.3804493
 102.5805622  41.2332392  86.1525154 103.3765250  40.0727415  85.5951309
  40.1863289  86.9409847  66.2867785  41.0131407  87.1875000  66.7013264
  40.4166174  86.7762089  65.3724194  90.7454312  16.7268371   0.5142073
  90.4734755  16.5451812   1.4137988  91.3102162  17.4963617   0.5854849
 108.6444223   6.4864110  11.1535792 108.2078755   5.8959197  10.5395941
 108.6256230   6.0197734  11.9891219  13.0044591  75.1192713  32.6538610
  13.2907927  74.3665934  32.1364474  13.7715888  75.3579998  33.1741977
  23.3689809  80.6015396  78.0939770  23.0720592  79.7943258  78.5140562
  22.9735184  80.5775642  77.2226191  63.7468022 109.2114173  21.9720797
  64.1562027 109.7092114  22.6797728  64.1782135 108.3573829  21.9992880
  44.8418188  64.8536253  74.2282867  44.5531321  65.4313087  73.5217571
  44.1710329  64.9485874  74.9044991  24.9156332  42.0344067  64.4788694
  25.3809357  41.5215349  63.8180447  24.8330235  42.9057550  64.0913677
  31.5614510  83.1474400  87.8832912  31.9563270  83.8000298  88.4615898
  30.8283830  82.7934837  88.3868408  23.1933093  57.3952532  79.3629408
  22.3394537  57.8051996  79.5011711  23.0996370  56.9191027  78.5378742
  76.1944789   8.8644351  40.9441423  76.2049645   7.9077090  40.9159231
  77.0276088   9.1247881  40.5512714 115.5159891   6.1784982   8.5579829
 116.3792026   6.3853406   8.1997733 115.3942335   6.8084287   9.2683272
  14.8944914 108.0495262  44.9000645  14.5792031 108.7621307  45.4559565
  14.5505965 107.2558594  45.3100204  66.5741110  76.2721157  87.2679043
  66.9244242  75.8706427  88.0630970  67.2393322  76.9095802  87.0083809
  55.6472397  61.3940096  40.0381565  55.1772833  60.6670952  39.6295309
  55.3467655  62.1697807  39.5647359  41.9736385  63.0818558  67.2774553
  42.1654129  62.7120638  68.1392574  42.1008587  64.0241671  67.3874569
  40.8302450  77.3436165  82.1001244  40.2481794  77.0654917  82.8072834
  40.4206800  78.1347322  81.7499542  27.8175473  75.9890747  68.1361151
  28.7691998  76.0014439  68.2382727  27.5783324  76.9071674  68.0091619
  50.4797506  86.4865685  73.9233446  50.3132868  85.5512428  74.0403938
  49.6162033  86.8645668  73.7571144  76.4531726   0.7717455  61.0197210
  77.0123285   1.1096705  61.7192793  76.4879841   1.4441527  60.3393650
  32.0673156  93.6911964  34.0628171  32.3934531  93.0316067  33.4506011
  31.1677027  93.4218502  34.2482400  32.8550577  57.6592159  78.9645481
  31.9682050  58.0050516  79.0651369  33.2114816  58.1295061  78.2108784
  71.4993209   3.5588683  72.2602034  72.2769612   3.9826144  71.8969679
  70.9987492   4.2736472  72.6535749  42.9696512  48.8739729  24.9918938
  42.2578335  49.3206120  25.4502201  42.6006317  48.6489725  24.1378260
  73.7697929   0.1965464  41.8022203  73.7891859   0.7477511  41.0198975
  72.8564018  -0.0794660  41.8781567  14.4492602  76.0402155  66.0408878
  14.4234943  75.0954151  66.1922979  14.6063077  76.1279202  65.1007414
  31.6695809  72.4211931  66.2759781  31.4967084  71.7339373  65.6325245
  31.5184522  72.0003843  67.1223307  29.6657228  71.9981718  77.8691149
  30.2852821  71.2761164  77.7641869  29.6013498  72.3871994  76.9969034
  25.4665828  80.4388523  63.4793377  24.8057055  81.0361958  63.1291246
  25.0293374  79.9986315  64.2082119  38.0106139  72.7693462  94.5458412
  37.2579885  72.1779203  94.5453548  38.4187841  72.6382780  93.6900043
  28.2201362  90.7189846  61.8689728  27.6873970  90.5047512  61.1031246
  28.3829856  91.6590881  61.7920685  47.0050287  63.4739256  47.2228527
  47.8955889  63.3639431  47.5560808  46.5346479  63.9072990  47.9350042
  52.4944115  83.8123226  79.0556574  52.5508308  84.0388393  78.1273603
  52.6779270  84.6324253  79.5138979  49.0790653  76.8100739  70.4422283
  48.5489798  77.6032114  70.3636694  48.8271236  76.2778902  69.6875477
   3.9628389  94.5139408  94.3195343   3.9152902  95.1398659  95.0421619
   3.0581838  94.4252110  94.0196037  60.4976940  61.0420799  44.9497890
  59.8242521  60.4974604  45.3573370  61.3024282  60.5305767  45.0334835
  25.9579825  88.3382988  63.2124281  25.6666517  87.5616550  62.7347422
  26.4708614  87.9919624  63.9426613  52.6661587  63.1238413  53.0092096
  52.9697037  63.5653687  53.8023949  53.4077787  62.5831890  52.7373123
  47.8343153 102.6521969  78.3326340  48.0659151 103.5206604  78.6618233
  46.9413233 102.7514553  78.0025721  39.0416527 101.0835648  47.1485758
  39.3527913 101.8879032  46.7332745  39.5633125 101.0093498  47.9476976
  27.5831461  88.9445782  44.1452360  28.3039570  88.8625145  43.5207939
  26.8019032  89.0318871  43.5991001  56.5790558  97.0204544  40.3219938
  56.6620731  96.4502430  39.5576644  55.7928371  96.7079449  40.7696867
  20.5851555  53.4222078  79.2786455  20.0112510  53.1914806  78.5481453
  20.2954078  54.2949104  79.5444822  88.9621896   7.0125521  50.0981951
  88.8967389   7.2050799  49.1628408  89.6701211   7.5764216  50.4098272
  11.4428139  68.3931780  76.6126108  11.3965809  67.4604130  76.8224812
  10.9585679  68.4781790  75.7913256 112.0983422   1.0816383   2.8624873
 112.0727694   0.3969621   3.5309176 111.6648734   1.8311405   3.2706313
  72.6207727  43.7571467  94.6609211  72.4243611  43.1511439  93.9464951
  72.1087569  44.5401324  94.4584370  40.7705593  67.4217319  76.0848856
  41.4969063  66.8960190  76.4199686  40.7083035  67.1824169  75.1601791
 115.5994261  25.8047437   3.6638121 115.6122125  24.8478269   3.6831240
 116.4816201  26.0504960   3.3852915  46.6595221 101.5761185  74.3736172
  46.2999439 102.4449635  74.1946030  47.5979900 101.6665840  74.2083263
  32.7576518 102.7467632  65.6333399  33.0433917 102.1733665  64.9221373
  33.0147815 102.2849178  66.4313507  50.4465961  87.2572803  68.4289265
  51.1581564  86.9533634  68.9924383  49.6868420  86.7446232  68.7049580
  45.6015158 104.1754150  40.8408737  45.5608130 103.2680988  41.1431217
  46.0588789 104.1279125  40.0013494 107.1240157   4.3123187  45.0822163
 106.4799136   5.0203837  45.0858879 107.7259368   4.5397604  44.3735600
  51.7198849  91.6311646  93.9565659  52.0783758  91.6196632  94.8440170
  51.9593430  90.7797718  93.5904694  86.9556493   9.8498476  63.7117100
  86.7369718   8.9257945  63.8322639  86.1082667  10.2930773  63.6702585
 110.1885140  41.0888337   1.8439631 109.3049753  40.7526445   1.6937499
 110.0935686  41.6903066   2.5825171  51.1620575   3.2071246  55.3361559
  50.5946356   2.4720515  55.1039171  51.9277984   2.7999342  55.7412195
  43.8432217  97.8524017  56.9551134  43.2487726  98.5615444  57.2000170
  44.4564867  98.2554245  56.3405371  77.2293186  97.4090195  27.6747584
  77.5097418  98.0934238  27.0671606  76.4101648  97.0806313  27.3041105
  29.4813132  98.3591652  68.6722040  30.2560043  97.8041458  68.7618351
  29.0405798  98.0305290  67.8886366  56.2826586  94.0862179  64.1324711
  57.0251226  94.5251369  64.5476055  55.6583548  93.9465237  64.8444843
   2.0753929  90.3729630  49.2681360   2.6519629  90.3635120  50.0321436
   2.2070092  91.2377357  48.8794374  36.5792155  77.4095106  46.6721916
  36.1705160  76.7791939  46.0789824  37.5195050  77.2775888  46.5510225
  23.6240053  82.3036766  59.9089050  23.0206776  81.6334915  59.5878315
  24.3297696  82.3200893  59.2624855  78.6308479  90.6428146  72.5306082
  78.6506319  91.2783432  71.8151093  77.7054739  90.4168415  72.6247215
  28.5625648 102.1726608  91.6599464  28.2226300 101.8583298  92.4977303
  29.1644478 101.4859581  91.3728714  96.9881743  18.3463324  72.2343683
  96.6862649  18.9511240  72.9120874  96.4823550  18.5851706  71.4576197
 113.6879319   1.6376055  94.0453625 112.8267211   1.4030589  94.3911076
 114.2726773   1.5821112  94.8011589 111.6249103   0.2163256  59.7969055
 111.2857503  -0.3905832  59.1389751 112.3016232   0.7137240  59.3376970
  51.0644436  77.0419550  94.5514393  51.2104893  76.5880489  93.7214565
  51.9078207  77.4463701  94.7548962   0.4460055  45.8482312   6.3973479
   1.0925800  46.3072442   6.9335227  -0.3131121  46.4311933   6.3861136
  41.6126823 105.5503941  67.3271942  40.7094193 105.2614880  67.1972799
  41.5520144 106.2332535  67.9952145   2.2754634  10.9087313  68.1250668
   2.7788699  10.3489817  68.7162495   2.0523608  11.6753233  68.6530781
  10.4893613 104.6873474  80.1189613  11.1114264 104.5609856  80.8354187
  10.5592775 105.6170654  79.9022388  50.1366091  59.0814066  15.2236986
  50.6924343  58.3125401  15.0966728  50.6754589  59.8171663  14.9329615
  49.2055941  88.5754871  80.1646519  50.1580048  88.6701298  80.1510620
  49.0434265  87.7260590  79.7542763  57.2650909  87.3463917  89.1286564
  56.6048813  87.9263115  88.7491226  58.0988121  87.7779484  88.9418507
  78.8578648   7.4406947  59.6826649  78.4312791   7.5384463  58.8313723
  78.1997746   7.0160712  60.2329826  99.8169411  40.0465154  20.5919413
  99.6429956  40.6596708  19.8777918  99.8658240  40.5968522  21.3735823
 105.9366578  21.0703028  45.2037239 105.4763621  20.8076514  46.0008287
 106.6859073  21.5776289  45.5159330  33.2141566  99.6466064  74.4850206
  33.8675833  99.2653847  75.0714779  33.4199619 100.5813313  74.4724035
  45.0355148  83.6482143  81.1834049  45.2454996  83.7501812  82.1117020
  44.6164083  84.4738102  80.9405518  34.1451907  88.3978271  80.0916576
  34.4094062  88.5977554  79.1936350  33.2913661  87.9746342  80.0015259
  60.9786224  61.8388176  82.3394680  61.4977407  62.0478344  83.1160355
  61.2902689  60.9753418  82.0683289  46.0222721  78.8264990  93.5680962
  46.6899109  79.4169617  93.9171505  45.3771400  78.7519789  94.2712879
  -0.0317245  95.8050442  63.1942511   0.2653927  95.1231575  62.5917721
   0.2187008  96.6255474  62.7696228 109.5222390  48.7057924  24.4120078
 108.9505542  47.9775953  24.1688494 109.5399630  49.2658471  23.6359458
  93.1527394   3.6943282  84.1526794  92.7284593   3.2714308  84.8992538
  92.4501819   3.8128413  83.5134602  52.5526476  99.3182182  67.4270344
  53.3941984  99.7578907  67.5483131  52.4018240  99.3460846  66.4822006
  25.5369925 104.6529961  43.8713169  24.7404647 104.1359234  43.7512827
  25.2788782 105.3554440  44.4681215  84.7592706  21.9563245  11.1990695
  84.4380939  21.1899137  10.7239966  85.5635572  22.2018432  10.7418208
 105.9625137  55.5276727   0.7391505 105.6077445  54.7408914   0.3252081
 106.7435277  55.2236223   1.2015395  22.7230859  78.6869860  79.7782326
  22.3325467  78.8167763  80.6424522  22.0908737  78.1425905  79.3090105
  44.5513344 109.1227818  53.1769609  44.3546438 109.4785595  54.0435457
  43.8285542 109.4221783  52.6254368  65.5120343   9.1729201  42.2024107
  65.9139055   8.4369124  42.6639557  64.6244329   8.8749541  42.0033789
  50.6659746 108.6496639  70.0379181  51.4655590 108.8128376  70.5381918
  50.2936649 107.8607941  70.4320145  49.4032478  83.7577438  81.2045002
  49.9784040  84.4364452  81.5577698  49.1401720  83.2450676  81.9688225
  41.8860579  96.9058704  55.2726555  42.4022627  97.0391369  56.0676432
  42.5366735  96.7526817  54.5874834  55.7638979  94.1322136  72.8183222
  54.9003029  93.8313293  72.5356436  56.3794994  93.6182976  72.2956896
  94.4065952  93.9362240  74.3858337  93.6878586  94.5625973  74.3003511
  94.0760994  93.2737923  74.9926281 101.5952081   8.0258215  50.5730343
 102.2204417   8.3782137  51.2063837 101.2460727   7.2397555  50.9930706
  47.7870369  87.0478153  73.8032484  46.9591236  87.5116158  73.6780548
  47.6882458  86.6046047  74.6458864  88.8236827  11.1429537  58.8277769
  88.7234420  10.2512396  59.1609716  88.3457869  11.6875113  59.4533205
  39.7191715  92.0952320  47.2056675  38.9801884  91.8713284  46.6399765
  40.0838327  92.8915119  46.8194008  29.5244026 104.7661209  82.8451443
  29.3810391 105.1141071  81.9650459  29.1435599 103.8882923  82.8205872
  69.7696781  96.1141109  94.1140175  70.6148577  96.5629196  94.1357040
  69.9165010  95.3032780  94.6010876  36.4561176  68.9962149  69.7514582
  36.9901013  68.4579515  70.3357220  35.5648756  68.6683512  69.8715591
  42.4230051  91.1622429  44.3125582  42.4335957  92.0877361  44.0684795
  43.1417751  91.0712719  44.9381208  83.3248729  23.7712611  89.9529171
  83.8984746  24.1827048  89.3064308  83.6189002  22.8610648  89.9891472
  96.9476003   7.6575793  76.2813950  96.1236543   8.0637396  76.5504313
  97.0229405   6.8797911  76.8342018  23.8632853  42.1583509  16.0529570
  23.0880625  41.6385793  16.2653403  23.7435085  42.9756784  16.5365366
   4.0575469   2.4263037  73.8711596   4.7259105   2.9473341  73.4261370
   4.1617645   2.6437987  74.7974777  51.0067844  93.7442780  92.5045586
  51.6093349  94.4009399  92.1553230  51.5566397  93.1793213  93.0474377
  99.4465274   1.3514651  81.0723495  99.3328208   0.4727400  81.4344883
  98.5556859   1.6574610  80.9020615  74.3700212  10.5420722  46.2684727
  73.7543863   9.8111475  46.3229752  75.1403088  10.1746214  45.8350325
  70.6755322   0.7855547  60.7491446  71.2091297   0.5747164  59.9829531
  70.3901571  -0.0647031  61.0835934  49.6624279  64.5337677  86.2071133
  48.7543678  64.4319201  86.4922142  49.6252060  64.4496107  85.2543545
  14.2231209  31.5404558  11.6756396  14.0382321  31.6038179  12.6126723
  14.6814663  32.3543119  11.4663748  36.3809712  43.7337636   9.6753077
  36.5221197  43.1803083   8.9071993  36.8854839  43.3116292  10.3706507
  51.6518974 109.9729061  84.2089176  50.7453442 109.7342682  84.0154076
  51.6214514 110.3293133  85.0967598  60.5392075  85.9658337  81.8752098
  59.6965456  86.0544300  81.4299011  61.1864090  86.2119389  81.2143135
  25.4125101  64.1694116  16.7020373  25.7596380  63.3796834  16.2872271
  24.6627457  63.8624143  17.2117762  42.0180082  76.9452858  61.6463566
  42.7463436  76.7632866  61.0525227  41.2688971  76.5003490  61.2500095
  49.9212646  93.3084965  78.7958527  50.0607681  93.9595032  78.1081295
  49.2660093  93.7040138  79.3706942  46.5543127  89.7107315  76.5908957
  47.3132324  89.9014950  77.1421480  46.0530138  89.0648556  77.0886707
  91.1534423   2.8452242  86.4440536  91.1093539   1.9952239  86.8819809
  90.2828950   2.9644812  86.0643673  34.5394611  73.3760548  93.1774712
  35.2297997  73.7118006  92.6056862  34.4843340  74.0156841  93.8874435
  32.2018719  90.2667141  32.9691577  31.2980676  90.2029419  33.2778692
  32.1254754  90.3387547  32.0177364  86.9613141  15.1267375  68.7984419
  87.6668757  15.1355113  68.1516504  87.2934169  14.5764101  69.5077229
  83.0600834 105.7367897  82.4798298  82.5152016 105.1096153  82.9552174
  82.4700356 106.1254883  81.8340778  62.6965708   3.3226717  88.1963158
  62.8514189   3.1988562  89.1327572  62.4263400   4.2375220  88.1171417
  28.4994078 108.0260086  75.4241419  28.3207679 108.4879398  76.2432480
  29.3580079 107.6245785  75.5578947  32.2450089  60.5485344  40.3711796
  32.5503302  60.7850361  39.4953489  31.4100814  61.0070038  40.4656839
   0.8065427   3.2271803  53.7723637   1.0116780   2.5906409  54.4571733
   1.6466058   3.6377944  53.5676098   6.4345282  97.9763889  80.4290104
   5.7964689  97.3474693  80.0920010   6.2214994  98.7960720  79.9829531
 100.1024455  13.0955351  64.0194702 100.4222936  12.2693385  64.3818569
  99.1506070  12.9962004  64.0004587  44.5912218  85.6659317  73.6409426
  44.6516657  86.5142727  74.0801382  44.2900515  85.0645447  74.3220139
  63.8868636  16.9221247  57.8755522  63.7626952  16.1185397  57.3705101
  63.1724590  16.9174326  58.5126019  39.0405726 104.9128246  67.0451307
  38.4625530 104.3515205  67.5619173  38.5672975 105.7416439  66.9723749
  50.1310205  92.6806736  67.6833200  49.4502687  92.0632935  67.4156380
  49.6568632  93.4872913  67.8852558  48.7959862  88.9019012  64.6927309
  49.2728996  88.0846310  64.5483065  48.9815712  89.4281578  63.9150143
  30.5897164 108.7968063  55.2229834  30.7703161 107.8744221  55.4041576
  30.2068233 109.1298103  56.0346079  93.3509559  18.7635363  77.7477074
  92.6918286  18.1540335  78.0798054  93.6276978  18.3855761  76.9129658
  38.6548781  88.4312630  68.2530117  38.8450217  87.7621555  67.5954580
  39.4831109  88.5531712  68.7171221  43.8104630 103.9620304  72.0055866
  43.2044077 104.7024822  71.9798183  43.7966776 103.6101437  71.1155224
  86.1902780  12.9030741  52.8114700  86.4792317  13.5374011  53.4674931
  85.3052634  12.6619090  53.0850077  49.7959185  91.4783955  88.9738178
  49.3303537  92.2505188  88.6524010  49.7856331  91.5717983  89.9263954
  34.6092105  66.5131474  70.2398062  34.1144204  66.2701178  71.0223341
  33.9447713  66.6150713  69.5583630  28.9907503  92.0173454  39.9995971
  28.9023066  91.6740227  40.8887196  28.1039143  91.9845772  39.6408772
  34.9196529  78.5253906  57.7621222  35.4329181  78.6163568  56.9593048
  35.2600169  77.7319193  58.1753874 101.7838401  21.1446227  83.4300423
 101.3963622  21.8609179  83.9330578 101.2428922  20.3836764  83.6411572
  68.3964920  93.6367035  77.9548025  69.0679932  93.0620766  77.5872087
  68.7447453  93.8971519  78.8075161  45.3688860  88.0761051  90.0724506
  45.1598215  87.3853970  89.4436073  44.5809746  88.1571960  90.6099033
  44.7976398  67.4712133  72.2049904  44.2666864  67.7148294  71.4467239
  44.5181513  68.0717564  72.8959846  72.3300880  37.2646750  93.5328579
  72.0200366  36.4650572  93.9579678  71.9187778  37.9736842  94.0271854
 114.8098455  89.8981857  64.8755455 115.0203365  90.2359867  65.7460737
 114.3384090  90.6135178  64.4486046  87.6684398  15.5570734  47.2055912
  88.5135383  15.1732672  47.4395466  87.5457591  15.3234042  46.2854910
  95.0790471   3.5249365  72.2409201  94.1665524   3.7663592  72.3999929
  95.5649966   3.9440764  72.9511356  41.6771126  94.8266506  91.1342430
  40.8728552  95.0831223  91.5854931  42.0713949  95.6541634  90.8585835
  88.1171703 106.3473225  66.5469408  87.8832436 105.4601002  66.2742758
  88.6455536 106.2240696  67.3355150  81.0815239  87.5296116  88.0282211
  81.9178963  87.3440647  88.4551620  81.1627865  87.1343327  87.1602440
 101.7579669  16.4674605  91.6300583 102.6519078  16.4823664  91.9719315
 101.4166278  17.3426474  91.8138313  10.8256275   0.7380771  16.3431410
  11.0749704  -0.0876952  15.9282069  11.6470034   1.2227725  16.4246420
  97.1609944   9.0130080  72.3955202  98.0636186   8.6981143  72.4439621
  96.6611451   8.2598341  72.0807028  20.2723057  26.5473890   4.9400763
  19.5515091  26.8607377   5.4864172  19.8731930  25.8886861   4.3716864
  54.5685196 107.1206093  69.6493673  54.1085625 107.7406788  70.2152205
  53.8932800 106.7912769  69.0562201  52.2098160 104.4801903  20.7175779
  52.9030704 104.7093678  21.3365340  51.5446281 104.0471268  21.2525630
  62.1868610 109.5413494  71.2634420  61.4607096 109.4871140  70.6421518
  61.8010330 109.2971611  72.1047163  57.2518110 109.4298649  69.7185469
  58.1466675 109.5399380  70.0400257  56.7856216 110.2021694  70.0386333
  21.4045871  20.3189505  51.2312555  21.1470855  19.6863402  50.5606365
  22.2362960  20.6746329  50.9182405   7.0899088  68.6383676   4.2477469
   7.3489887  68.4962415   3.3373026   7.9172403  68.7113809   4.7235922
  83.8916206  75.2130032  80.6593037  84.6614456  74.6466684  80.6057167
  83.5967541  75.3027534  79.7530794  70.3674430   8.0767859  51.4602900
  69.9391669   7.3384894  51.0270166  70.5488533   7.7623118  52.3459721
   8.3867771  47.3038720  10.2411894   9.2080671  46.8865251  10.5010561
   7.7811796  47.1063375  10.9556632  31.0856802  52.6630449   9.2240099
  30.8769447  52.5126504   8.3020358  30.2558310  52.9345750   9.6162562
 112.1999473   3.8460387  75.5143404 112.4817771   3.3476485  74.7472620
 112.9774064   4.3373908  75.7796144  53.4085131 107.7137280  92.6202679
  53.0301809 107.1664524  93.3084583  54.2979193 107.8977776  92.9224491
  90.8825827  84.4285726  16.9500308  90.4351807  83.6064767  16.7494730
  90.5938518  85.0316762  16.2651114  18.0432057  66.2354040  66.2874413
  18.1885362  66.6505671  67.1375895  17.1980596  65.7950735  66.3772774
  24.1777945  68.2662058  95.0008488  25.1325846  68.2348299  95.0610447
  23.9880419  69.1391325  94.6570110  41.6378164  88.4285641  60.6653357
  41.6016293  87.6148319  61.1680937  42.3857975  88.9020252  61.0294676
  78.3018351 101.7004395  44.9881411  78.4118843 102.5663280  44.5952654
  78.6808157 101.7844963  45.8630943  73.6394185  15.0715102  95.1254463
  74.0117902  14.6932162  94.3289185  74.2209667  14.7754801  95.8257389
  40.5285835 107.1181011  82.0256519  40.4833364 106.6121769  81.2143421
  40.1527882 107.9687023  81.7987633  59.2229366 106.2625027  67.0005417
  60.1369286 106.3977432  67.2506618  58.7266016 106.4468479  67.7979755
  82.6282883 101.9856739  69.0813208  82.7900600 102.0328236  70.0235701
  81.7143917 101.7104530  69.0086889  83.3681202  98.7015438  68.2630491
  83.3471012  98.3291721  67.3815012  82.4704170  98.9937592  68.4210825
  98.9317513  89.8261833  87.8289223  99.5973873  90.5084038  87.9169083
  99.4049358  89.0085506  87.9832363  54.4914150  93.7246132  66.0286665
  54.0354872  93.2824612  66.7448092  53.9458704  93.5599709  65.2595711
 103.6025924  31.6956652  42.9152298 104.4791001  32.0397509  42.7432585
 103.1303233  32.4292315  43.3090258  10.3984321  11.5731276  85.8239746
   9.5546878  11.8902911  86.1460590  10.2932609  11.5359343  84.8732948
  96.9111604   1.0891474  91.0171223  96.1111278   0.7482375  90.6171703
  97.0063752   1.9682349  90.6505680  78.2506746   2.3827971  86.2654114
  78.6577481   2.3651637  87.1315575  77.6997751   1.6003169  86.2437057
 112.4685258   7.5842894  56.8716955 112.0164365   8.4235228  56.9584942
 112.9391641   7.4791182  57.6985359  36.2019086  72.5925970  76.3107443
  36.4042044  73.4700727  75.9861660  36.9405413  72.3707533  76.8776941
  64.2995310  98.9847851  79.7048187  64.4312191  99.7685528  80.2382946
  64.3306398  99.3015099  78.8020706  94.7924298  13.4190310  56.7244101
  94.2991513  13.9864386  57.3168325  94.2031402  13.2759322  55.9838104
  47.9103262  58.1103658   2.7212290  47.2112448  58.7344026   2.9163985
  48.1335814  57.7277040   3.5697321  22.9217113   3.5623492  45.1400423
  22.6727260   3.7533415  44.2357445  23.2989372   2.6833476  45.1040506
  85.6661606  94.1503620  80.6791973  86.0718918  95.0036716  80.5259514
  86.0597706  93.5764980  80.0219440  38.3680129  75.1276302  49.2958403
  39.1719317  75.0797558  49.8131943  38.1791186  74.2188263  49.0621233
 110.0132674  15.3816641  50.4675245 110.7921809  14.8917330  50.7311392
 109.5383853  14.7839297  49.8900890  14.0935213  16.0041236   0.3891329
  14.6218187  16.2974881  -0.3532072  13.8246901  15.1156472   0.1555304
  61.2038088  95.4495621  45.7763767  61.0701799  94.9315357  46.5701199
  60.4340506  96.0164452  45.7279253  53.7040901 102.2502232  55.1066828
  53.3441353 101.7583561  54.3686247  54.6488810 102.2553158  54.9531412
   2.2356952   1.2336482  63.1899500   2.1899379   0.9766139  64.1108608
   1.3222469   1.2727679  62.9065371  46.7460442  81.3190651  64.2900848
  46.5894651  80.4170895  64.0105057  46.9933510  81.7789650  63.4878683
  75.2645940  25.6760443  57.3888493  75.4932136  25.2129687  56.5829182
  74.5206112  26.2270297  57.1456814  26.6200686  94.1327953  69.2772341
  26.5194321  94.2908001  70.2159262  26.4415741  94.9809837  68.8710928
  41.1371768  10.9679450  64.8265219  40.7769645  10.9610785  65.7133341
  40.8835090  10.1215495  64.4584084  97.5284958 102.6585865  78.7730694
  98.2454777 102.3407841  78.2242870  97.6323795 102.1871090  79.5995951
  96.5196675   1.3203848  50.6920958  96.8406505   1.4168108  49.7954893
  95.5683440   1.2658061  50.6013536  21.7905743  72.4277543   6.6818766
  22.7044708  72.4793195   6.9618086  21.6445477  71.4973020   6.5110449
  86.0836506  97.5421715  64.1177368  86.5043640  97.0384789  64.8145247
  86.1236954  96.9703484  63.3511591  72.4582619  13.7454737  77.1674919
  71.7291731  14.3410815  77.3404408  72.2426886  12.9536189  77.6601601
  97.1446437  10.8996237  60.3219795  96.5635079  11.3244952  60.9528446
  97.7871102  11.5726126  60.0971508  91.3383102  57.7531099  77.8610086
  92.2270489  57.5503778  78.1530237  90.8858395  58.0419731  78.6535168
  18.7116892  54.9829530  18.6512618  18.6865742  55.5512571  17.8814368
  17.7985079  54.9176835  18.9306788  82.2312832  96.0876274  61.0556984
  81.5870762  96.7017174  60.7033968  82.8431416  95.9421730  60.3340960
 100.8133793  96.9898701  73.0749893  99.8613930  96.9247437  72.9994154
 101.0446358  96.3492393  73.7475538   0.6003249  13.9889658  55.7857895
   0.0693382  14.1996897  55.0177526   0.1449502  13.2546366  56.1976433
  24.3409634  96.7252064  71.7393827  23.4685421  96.4421654  72.0132494
  24.4699669  97.5646973  72.1807957  56.5479279 102.1824169  72.7357769
  57.0582199 101.9898033  71.9491816  57.1959686 102.2158527  73.4394550
  51.1171436  64.5441103  83.2660484  50.7983875  65.3507280  83.6710072
  50.3795242  63.9372396  83.3281136  56.7429829 107.8966141  76.6437244
  56.8623734 108.0891609  75.7137203  56.6328812 106.9464397  76.6793871
   9.7689707  36.1355829  12.3310904  10.4443056  36.5607213  12.8596739
   9.2353041  35.6561517  12.9647879   7.4965156  31.1983717  46.8147469
   7.2173274  30.8472098  47.6603031   8.3297694  30.7619132  46.6374731
 111.2335509  22.6124323  49.7413063 110.5077094  23.2341612  49.7944641
 110.8714360  21.7922724  50.0766325  79.5232886   7.5770892  85.1722431
  80.3495377   7.1185339  85.3248119  79.7827882   8.4236372  84.8085785
  91.4240456 104.8347187  81.0706234  91.1656570 103.9642525  80.7677174
  92.1526909 105.0802040  80.5004978  72.0952553  20.5344523  57.5563717
  72.1045917  19.9403895  56.8058825  71.1732716  20.5880011  57.8079939
   9.6123392  74.9878930   1.2453799  10.2198727  75.4799890   1.7976241
   8.7643892  75.0817632   1.6794352 108.1790227   9.7523821  91.8207359
 107.7406091  10.4327239  92.3317719 107.4892396   9.1184748  91.6242886
 101.0237378   1.5844096  65.6611919 100.8048171   1.1355151  66.4777660
 100.2822417   2.1686495  65.5028105   0.3837402  43.5099553  18.9650969
   0.3514726  43.3972406  18.0151038   0.2852280  44.4527673  19.0979151
  68.0666298  39.1640700  81.2143421  67.2013873  39.1201151  80.8073330
  67.9470080  38.7630595  82.0752239   1.9672091  20.3198957   0.7385497
   2.4646790  20.9000110   0.1621584   2.5296623  19.5534944   0.8503870
  54.3547010 109.4974995  73.3107090  55.2779102 109.6307659  73.5255575
  54.1763449 108.5936928  73.5706234   1.3925946   4.0088500  64.0699720
   1.7843736   4.8399199  64.3384266   1.9809449   3.3415259  64.4231844
 104.7205132   6.9976748  80.1130962 104.5573396   7.8201426  79.6514034
 104.4665116   6.3180483  79.4887400  80.6182384  93.6785889  73.9852381
  80.9141445  94.5858383  74.0598536  80.2912998  93.6062717  73.0885172
  55.1461601  87.7522564  80.9195232  55.4091072  87.7873325  79.9998140
  54.7503090  88.6072826  81.0882378  69.9097395 109.8587513  65.6977940
  70.0163841 109.7697735  66.6448641  70.5065775 109.2084885  65.3274202
  84.4767970   1.1828650  41.9140005  84.0782851   1.7647780  41.2668467
  83.8117236   1.0923804  42.5964403   2.9373229  19.9255312  79.0274096
   2.1020663  19.5457114  79.3000221   3.1033958  19.5449198  78.1649780
  14.7220767  16.4926852  72.7944613  15.5144561  16.0098017  72.5595331
  14.9276698  17.4047125  72.5891304  94.5946568  16.9025553  70.5792761
  95.1678342  17.6449240  70.3879881  95.1913232  16.1985148  70.8333302
  69.1870928 103.0180931  55.7115364  69.1018486 103.5472775  56.5045881
  68.6438227 102.2477913  55.8780575  63.7506884   5.6804026  74.5124292
  63.1066889   5.1587046  74.9913168  63.8896221   5.1994456  73.6965799
  96.0003346  31.5886725  45.1208735  96.1359662  30.7099284  44.7664118
  95.7197684  31.4418925  46.0241842  95.5455321  25.4457892  70.3662395
  95.1312465  25.1796092  69.5454168  94.8862380  25.9845675  70.8035851
  72.1677589 107.3430443  64.3008471  72.2218561 106.9711685  65.1811981
  73.0258942 107.1689606  63.9141560 105.9778565  44.2801226  63.6318636
 106.2620324  43.6138857  64.2576408 106.3854760  44.0216959  62.8052521
  81.9189548  96.5782070  54.6086407  81.2884808  96.5648556  53.8885260
  82.7436638  96.8412113  54.2000866  81.2791461  22.2812308  38.6206698
  81.7701739  22.2892130  39.4422936  81.9144362  22.5555171  37.9593039
  71.7076510  27.8725661  67.7017784  71.7345590  28.6806620  67.1894312
  70.8580870  27.4844302  67.4924421  68.5638380  76.9572401  91.6495228
  69.3045568  77.1574450  92.2217941  68.9514637  76.4859390  90.9120655
  92.7546519   2.1866263  74.9501753  93.2513827   1.3947333  75.1560879
  92.6360053   2.6213110  75.7946920  33.0120260  38.4458494  18.4150462
  32.6846201  39.3453073  18.4110312  33.6861403  38.4333085  17.7356009
 116.6802615   9.7699584  59.0653515 116.9106549   8.9125575  59.4231319
 115.7328862   9.7284068  58.9350367  24.3879683  40.9384584   8.7160449
  24.3830139  40.0810098   9.1414885  23.5338909  41.3155412   8.9272170
  99.7027701   7.4174345  81.6287994  99.6740216   8.3271922  81.3325787
  98.9379901   7.3263300  82.1971703  41.4346123  74.0028238  88.3169937
  41.0543633  73.7449789  87.4772549  40.9624815  74.7994852  88.5591793
  50.5365658  99.6845150  75.7226706  51.1161423  99.5907593  74.9666691
  50.1307106  98.8232803  75.8215809  46.2933588 106.1365223  71.5599871
  46.1652088 107.0765877  71.4331484  45.5333042 105.8579540  72.0708132
  39.4757390  78.0808830  72.5697708  40.0899696  77.5505066  73.0773687
  38.8405418  77.4512053  72.2288036  29.3717653  47.3572301  23.5006098
  29.2840845  46.8442678  24.3039946  29.9229891  46.8195104  22.9320673
  74.7443193  37.6699389  52.0222044  74.3390578  37.1365489  52.7059364
  74.5154756  38.5701312  52.2535181  25.4118598   5.5188979  65.2685452
  25.9278262   5.9815730  65.9288073  25.0142921   6.2143839  64.7446442
  53.5042286 110.0841808  81.7541790  53.4472036 109.3967056  81.0905933
  53.1513262 109.6812057  82.5474739 105.4423970  14.2397154  86.2107372
 105.7150620  13.8855780  85.3642845 104.5407933  13.9366377  86.3179493
 111.2100047  31.8176497  59.1280556 111.2459535  32.4769057  59.8211098
 112.0921964  31.4469851  59.1040850  76.9040603   4.9387778  78.5823202
  77.7017659   4.4212473  78.4724808  76.6631717   5.1991595  77.6932764
  97.9722023 106.0348606  46.5160465  98.6799717 105.9163761  45.8825922
  97.3341942 106.5854454  46.0621357   5.0176776   1.0961760  41.0289812
   5.4839004   0.2978457  41.2770414   5.7003177   1.7649210  40.9739971
 111.3512772  42.8266467  66.0594225 110.8136243  42.7821864  66.8501043
 112.2502154  42.7364481  66.3756609  13.6780799  10.2854956  33.1052136
  14.5934642  10.4509009  32.8794980  13.6975444  10.0613917  34.0356088
  23.9631016  93.1550073  20.6982760  24.6106417  93.5796689  20.1356177
  24.4796831  92.5942468  21.2770133  37.8968215 104.8084450  78.1026411
  37.1801782 105.4395580  78.1686497  38.6306763 105.3149033  77.7545166
  29.7058547  28.4404887  93.9448833  29.1971648  27.7220763  93.5689068
  29.6840060  29.1250361  93.2761955  50.7391739  83.4471798  26.2993264
  50.6524706  83.6979294  25.3796315  51.3442993  84.0911961  26.6671491
  93.7450856   5.2538336  65.5226612  93.9170379   5.9410895  66.1663580
  93.0153674   5.5901087  65.0024033  91.6107959   6.8799819  36.3541555
  92.5117034   6.9611586  36.0410976  91.6403598   7.2019900  37.2550821
 113.3640593   8.7777937  73.4954834 112.7015084   9.3051852  73.0492592
 113.0985278   7.8725184  73.3335876   7.9488785  55.1880121   5.8322196
   8.0549175  54.4591569   5.2208666   8.4881003  55.8886766   5.4654173
  62.0096254 105.3559113  47.7171421  62.0437717 106.0723686  47.0833063
  62.9271173 105.1618481  47.9089117   3.5110820  30.9106863  92.5641251
   3.1294788  30.1048983  92.9124355   2.7775539  31.5241564  92.5214863
 101.4068669  12.0225276  38.1646228 101.8830937  11.2060965  38.0133438
 100.4838008  11.7740096  38.1154680 106.7377013  11.0944785  86.7943096
 106.9128102  12.0322836  86.8722916 107.1168250  10.7133616  87.5862980
  67.2503233 102.9507828  65.8662748  66.8222427 103.3166885  66.6402864
  67.4118042 103.7068939  65.3019476  83.8865662  99.1789913  73.2102346
  84.5126820  98.7562561  72.6224327  83.6896515  98.5132980  73.8692617
  76.9161272  92.5196838  48.4960890  76.2949371  92.6668072  49.2093325
  76.3901377  92.1322918  47.7964592   8.4303439  33.9803065  58.6994457
   8.2590259  33.0565966  58.5160255   8.8383640  34.3116702  57.8994799
  53.8084847   2.0710886  69.0615177  53.7726301   3.0103816  68.8807487
  54.7219080   1.8317069  68.9047241  84.2576569  16.3638819  77.2726345
  83.3928460  16.7114867  77.4905777  84.6395606  17.0200099  76.6896343
  99.6219444 104.9164963  76.2831736 100.5624485 104.7427464  76.3218403
  99.2340755 104.0795708  76.0275316  50.1263714  94.7906494  89.1945839
  51.0794020  94.8172760  89.2797756  49.9642897  94.1271400  88.5239887
  45.6901026  96.7519951  93.3872128  45.1450491  96.2684345  92.7664661
  45.7041645  97.6466751  93.0472374  49.9466562 108.7303829  42.8019857
  50.0585413 108.1967640  42.0152426  49.4792843 109.5088196  42.4989319
  74.7935313  36.0737551  76.4984560  74.1834659  36.1576975  75.7656527
  75.4363007  35.4292334  76.2023735  54.0460110  96.3393593  64.2999220
  53.6680317  95.7408619  63.6555862  54.4887400  95.7676125  64.9270821
  75.7329226 108.3821869  79.8448849  75.2049971 109.0826797  79.4616985
  75.3518963 107.5766087  79.4954586  42.6534605  97.1292782  90.1680279
  43.5789919  97.1171188  89.9241447  42.4998808  98.0208015  90.4807854
   1.3148607   7.6891840  92.0607281   1.5222848   8.0449713  92.9248047
   2.1578849   7.6503314  91.6090298  65.4231501 108.3014965  63.7671566
  64.9343920 109.0715313  64.0576649  65.9003735 108.5989094  62.9925346
 104.1716069  23.3477343  70.3993368 104.8194236  23.0334223  69.7686434
 103.6762494  22.5659598  70.6436396  35.9270556  69.5975541   7.9987101
  36.7504770  70.0762128   8.0941157  35.4440815  70.0827741   7.3297362
  74.8806238  90.9769917  77.9331732  75.7364225  91.1987114  77.5661802
  74.8117590  90.0285053  77.8242683  70.6520557  83.4177876  87.6339436
  70.7279825  82.7103138  86.9936752  70.2255678  84.1288662  87.1557045
 107.4382556  46.6272878   7.3295359 108.0906093  46.8978738   7.9756312
 106.6067231  46.6545343   7.8028636  82.6075823  76.6931104   1.0435633
  82.5735552  77.4405240   1.6406016  83.1730730  76.0594510   1.4850668
  65.1092672 105.4542732  78.9002991  65.2988863 105.3901100  77.9642677
  65.0240469 106.3935852  79.0635777  67.6857090  97.9194450  83.8882446
  67.3056126  98.5159206  83.2432842  67.5918436  98.3780670  84.7231674
   8.1084121  10.8909071  90.3674698   7.7817023  10.1950110  90.9377480
   8.8794482  11.2306155  90.8216953  41.7435534  38.5093545  10.9551196
  41.7978460  37.9480409  10.1816706  41.2074740  38.0133485  11.5738539
  55.9603596  98.3529186  47.1153927  56.7737913  98.6923218  47.4887133
  55.3045702  98.4992981  47.7971125 109.0724152  32.7328623  57.5953197
 109.8645085  32.6199282  58.1207466 108.3887357  32.9367484  58.2334757
  99.2625588  25.2836836  65.9331894  99.7069949  26.0778941  65.6366348
  98.6351270  25.5905283  66.5877199  48.4130526 104.8165894  48.1068850
  48.1670237 104.1929817  48.7901258  48.0609655 105.6539154  48.4087944
  93.7087029  42.7577914  63.6891127  93.6125535  43.6821402  63.9183664
  93.7775916  42.7537096  62.7344036  23.9522767  86.4044476  80.5419159
  24.0335226  85.7229614  79.8746681  24.8321056  86.7743206  80.6148720
  72.8592080  33.2204188  63.1746101  73.3300585  32.4105681  62.9779863
  73.2734460  33.5508002  63.9717817  34.8219419 104.8397636  61.6954136
  34.7293758 103.9186287  61.4521360  35.4792500 104.8388195  62.3912430
 105.5196875  12.7504767  58.5527658 105.4685420  11.7953623  58.5897446
 105.1978511  13.0407847  59.4062138  73.1218189   6.0067690  56.3021946
  73.1724996   6.6182650  55.5675220  73.6851901   6.3917101  56.9735098
  13.8537151  48.0818128   5.0559287  13.8060219  49.0275144   5.1959948
  13.0395586  47.8656625   4.6013407  96.6324634  43.8842238  48.4637356
  95.9995717  44.2162646  49.1004705  96.1199731  43.3119429  47.8927040
  71.5382940  77.3366308  21.4281039  71.9113142  78.1295060  21.8133788
  72.1452887  77.1031999  20.7257609  74.0198660  97.2445679  78.2461929
  73.6309814  97.0679665  77.3895645  74.5314169  98.0432129  78.1169415
  15.2339709  15.7921828  92.4856281  14.4693435  16.1630476  92.9261303
  15.9512771  16.3842715  92.7117825 105.8233899   6.4290465  68.7444639
 105.7466287   5.4975451  68.5379457 106.5344924   6.4748705  69.3835783
  84.5210904  26.8541564  86.9887733  83.7855834  26.8483103  86.3762093
  85.2904290  26.6991080  86.4407635  58.0274916 102.1644592  74.8696804
  58.1373739 102.8576565  75.5205536  57.6451254 101.4355659  75.3582811
  40.4007275  48.5955381   7.5973944  39.9170525  47.7872133   7.4273734
  41.0915072  48.3374547   8.2076697  87.5361729 103.2747459  60.2066803
  86.6938114 103.4971046  60.6031752  88.1570053 103.2971001  60.9349012
  92.9386205  17.2486342  87.8568172  92.4804229  16.7789591  87.1598911
  93.8606900  17.2152461  87.6020432  89.2330647  70.1310635  81.4857197
  89.5625114  70.6819677  82.1957874  88.3232212  69.9525166  81.7234993
  24.2984128 109.3496513  89.2009163  24.3244123 110.3064156  89.2133999
  23.5703063 109.1374397  88.6169243 116.6425389  36.1735762  78.9032125
 116.9986075  35.3171576  78.6665773 116.0849017  35.9998835  79.6615696
 105.9881467   6.8780840  48.7646484 105.2634829   6.5955676  49.3225765
 106.5075892   7.4576510  49.3218851  23.1763995  40.2487982  65.0718164
  23.5708106  39.5721377  64.5215416  23.7820495  40.9877528  65.0138712
  88.1343842  95.9545231  60.4373789  89.0087223  96.1964130  60.1319933
  87.8079319  95.3478241  59.7728682 106.0604179  66.1506700   3.9285712
 106.5988624  66.9295167   3.7881999 106.6908372  65.4347657   4.0078024
 108.2432145   6.2327136  84.7826099 108.6074323   6.9307650  84.2382812
 108.9458913   6.0153140  85.3951645  89.6683025  95.9964275  90.2521610
  90.1074409  96.7058468  89.7829914  89.0446663  96.4396858  90.8273411
  51.4228725 107.1717262  84.3252563  51.9278860 107.9793167  84.2304325
  50.5281544 107.4671364  84.4939041  79.9343127  41.9031371  65.0190020
  80.8838338  41.9365729  65.1352930  79.6214312  41.3756407  65.7538986
  70.9573698 100.7108212  74.9857569  71.3784313  99.9837399  75.4443407
  70.9379816 101.4201260  75.6282091 105.3988666   4.7412241  73.0019665
 106.3277596   4.5752753  73.1627321 104.9735993   3.8990820  73.1637621
  15.0313438   1.1675776  51.6416073  14.3305553   1.5561236  52.1652126
  15.6479037   0.8206690  52.2863770  84.3143815  27.3129500  27.4158168
  85.0700778  27.0165575  26.9085646  83.5564965  27.0118178  26.9146514
 105.3674430  23.5791815  79.8345470 104.6452540  23.0493201  80.1720619
 105.6357831  24.1194952  80.5776978  18.3878744  83.6240101  53.3393764
  17.8163862  83.4162140  52.6001501  19.2421198  83.7924862  52.9417419
  59.5729113 103.7689590  84.3890095  59.0353012 103.3129692  85.0365257
  60.2514601 104.2043972  84.9049568  86.9499302  96.2259865  87.9297161
  86.3527298  96.1127663  88.6691570  86.8902874  97.1566486  87.7140141
  92.4761790   4.9443758  87.3620987  92.0076531   5.1820506  88.1622410
  92.0876187   4.1111983  87.0955276  60.7737064 109.9694824  88.1136417
  60.6794119 109.0873528  88.4730625  59.9868584 110.0976276  87.5838470
   8.6049522  15.9046877  76.1763287   8.9669860  15.0199164  76.1278296
   9.0956844  16.3259161  76.8820047  93.5311908  15.3517188  68.0040598
  93.6170501  16.0147036  67.3189926  94.2721576  15.5134047  68.5880566
  51.7463493  96.7331409  78.2323122  52.0398474  96.4548492  77.3647594
  52.5543404  96.8548298  78.7308884   6.9274390   7.9966582  42.8896856
   6.5851558   8.5540808  42.1908617   7.5744022   7.4397601  42.4566460
 105.0166702 102.2279358  28.2294631 105.8094501 102.1909046  28.7645912
 104.6690464 101.3364410  28.2543468  85.2323437  88.2478428  64.6454239
  84.7877789  88.8239002  64.0235329  84.8080921  87.3976231  64.5297909
 113.6709851  35.8494891  61.6452265 114.5526570  36.0497035  61.9595575
 113.2864827  35.3113307  62.3371649 114.4534016 106.3416862  67.4725008
 114.4643593 107.2351837  67.1293306 113.9032841 105.8558464  66.8580389
   3.3483661   6.3638628  63.0023146   4.2144740   5.9619082  63.0694914
   2.9155124   5.8835734  62.2964907  93.3857441  98.8014698  81.3834953
  93.3397102  98.1870174  82.1159935  93.9912701  99.4814014  81.6789150
  21.4857639  23.3814467  70.9123850  20.5454219  23.4444464  70.7450342
  21.8912566  23.8398684  70.1764154  82.7797860  14.9304713  83.6011410
  82.3412818  15.1955737  84.4096375  83.4203690  15.6227625  83.4380054
 107.9127234  34.4043578  79.8579979 107.2900409  33.7835921  80.2363491
 108.7703532  34.0829981  80.1362610  75.8816242 109.8529053  65.3053474
  76.2980318 110.7131195  65.3588104  76.6054058 109.2455482  65.1520967
  45.6346846 106.5822220  68.1563139  46.1516047 106.9322777  68.8819122
  45.0710773 105.9223461  68.5602236  91.7203063  30.4939974  62.7222824
  91.1039037  30.0590075  62.1331692  92.2063798  29.7780837  63.1314707
  78.1018019 109.7225761  80.3799438  78.7295628 109.3225861  79.7781515
  77.3311281 109.1567993  80.3330231  99.7586888  37.7579726  60.4351854
  99.8511428  38.3297289  59.6730995  99.1498202  37.0763529  60.1507616
  14.9431355  80.1666211  28.1459097  15.0573237  79.3061971  27.7423529
  14.2019112  80.0554609  28.7412791 104.6501178  40.7029189  47.5042820
 104.8934955  41.6194762  47.3741388 105.4535693  40.2830828  47.8115797
 108.7943554  96.5880871  48.8206959 109.0106583  96.2365341  47.9570627
 108.7272930  95.8166504  49.3833828  98.8982391  94.1225338  93.6780167
  98.7835979  94.6761322  94.4504166  98.2352161  93.4386921  93.7729168
  94.1265583  93.9409733  31.4269900  94.8714066  94.4302273  31.7763638
  94.4941330  93.4254265  30.7091212  89.6630955  93.9304447  79.1049004
  89.5312881  94.1631508  78.1858206  90.4037762  93.3241940  79.0946150
  10.2087558  26.2681521  95.3516197   9.5957626  25.6549872  94.9460316
   9.6822417  27.0457209  95.5371094 104.3091554  11.0634364  88.7745380
 105.0193376  11.2585963  88.1631660 104.7066182  11.1550559  89.6404839
  90.0534219   6.9064654  30.0198221  90.2258271   7.4832381  29.2756176
  90.9114903   6.7713107  30.4219222  25.7981742  21.2257803  29.9569058
  26.7126716  21.4343489  30.1477623  25.6927837  20.3206194  30.2498317
  61.1976433 105.5445004  55.8229113  60.3262997 105.1850510  55.9896231
  61.6901302 104.8144627  55.4477549  28.6659319 101.9423436   8.6992507
  29.3178255 102.5435781   9.0595107  29.1812689 101.2403249   8.3019785
  36.7802405 107.9859257  78.7043381  36.0912180 108.6385822  78.5797739
  36.7029691 107.7284050  79.6230030  20.0728858  24.9748648  89.5638561
  20.6079543  25.2052248  88.8043308  20.7073749  24.7551669  90.2460480
  14.6318210  34.1857851  91.2848854  14.1153777  34.7482146  91.8621159
  14.1860736  33.3391989  91.3137913  15.4109223 102.3036908   3.9713912
  15.2540095 101.8790387   3.1280188  15.5145199 103.2308244   3.7571291
  36.4189553  86.5841293  82.1891594  35.9172678  86.1029434  81.5311241
  37.1110916  87.0194912  81.6915131  11.5639270  21.7128409  86.9491291
  10.8696521  22.3666323  86.8668747  12.2849143  22.1807993  87.3703289
  88.1119555  31.6484202  92.5305462  89.0183896  31.4029253  92.7158642
  88.0054063  31.4819277  91.5939808   7.1834815   4.4861639  48.7519073
   7.3017467   5.1205958  49.4588280   6.2348808   4.3779887  48.6833811
  81.1006612  10.8433283  77.7082729  81.8485183  10.8361948  78.3056736
  80.5854052  11.6033782  77.9786062  16.2206996  26.1759890  93.1472874
  15.2898467  26.3989771  93.1425476  16.5367377  26.4488352  92.2859478
  93.8461656  33.1819476  46.7940617  94.5556849  33.5680808  46.2805176
  93.4527320  32.5339259  46.2096786 108.5223168  28.2701243  57.1153355
 107.8812140  28.2479228  57.8257799 109.3197364  28.6082400  57.5227976
  11.3704742  27.0594157  82.6373386  11.6882194  26.3381423  83.1805134
  12.0930541  27.2436274  82.0371914  38.0771143  82.9998922  22.7562480
  38.7787659  83.6094522  22.9850535  38.5220844  82.1639776  22.6166586
  79.4048613  11.1352099  84.8642731  79.9102658  11.6515482  84.2364216
  78.6660332  10.7982005  84.3575382  90.8346528  13.4889449  39.2357826
  91.4935035  13.5099734  38.5417342  90.4139537  14.3476523  39.1927624
  97.4605340  15.5509890  72.1443129  96.9757575  16.3512362  72.3463631
  97.1750087  14.9238051  72.8086472  71.3562679  96.8887138  79.7196579
  71.9342470  97.6463509  79.6293259  70.6064653  97.0914173  79.1602516
  84.1689319  15.9375514  41.6577196  83.8457221  15.1685847  42.1272516
  84.4739169  16.5280951  42.3465395  65.3559351 107.8520203  66.4996910
  66.0494232 107.3585129  66.9375896  65.5252981 107.7261257  65.5660439
  93.9697474  14.7466696  91.4978218  94.1595668  14.3273200  90.6585693
  94.5959300  14.3564356  92.1076107  23.3627684  72.5997876  22.1192698
  23.3253700  72.8575753  23.0403475  23.5119373  73.4189843  21.6471438
  18.1744922  27.7272547  79.8549175  18.8727725  27.3399485  80.3827763
  18.6005080  28.4416140  79.3811798  77.0842666   9.2747153  70.8272266
  76.7457932  10.0723780  71.2339258  76.4243001   9.0398444  70.1749134
  49.1946680  62.4585008   5.6878905  49.5499689  62.6136255   4.8127131
  49.5553763  63.1663846   6.2217669  30.3067517 108.3511066  94.1408634
  31.1612892 107.9361439  94.0233707  29.7369051 107.9080963  93.5121727
 111.9887733  96.3917255  59.3189240 111.3228226  96.9403362  58.9044857
 111.5369034  95.9829712  60.0571394 112.9011315  11.7222727  69.4485569
 113.2963342  11.7368639  68.5768700 112.3202676  12.4829806  69.4609451
 103.4952945  44.8811472  78.2517242 102.9199189  44.6473349  78.9800835
 102.9057044  44.9866808  77.5050831  97.6829404  10.1644648  83.3164883
  97.9824037  10.2989615  82.4173355  98.4314698  10.4145087  83.8581657
  98.2207298 106.4104080  80.7086754  98.1872654 105.5603409  81.1474228
  98.8514137 106.2889671  79.9989414 114.4304675  32.5235213  37.1452284
 114.7968120  31.7192496  37.5128841 113.4917277  32.3495329  37.0764375
 112.6318807  25.3401793  63.9906836 113.1527728  25.9982909  64.4508886
 113.1121129  24.5221270  64.1187954  84.9439973  21.5909327  49.3370914
  84.9530143  20.6397570  49.2303038  85.0472564  21.9326533  48.4489489
  52.2646493   1.9299353  42.4971867  53.1399077   1.6796816  42.2013283
  52.2223407   1.6261137  43.4039068  93.7835693  96.6989231  83.3790970
  93.2788563  95.9369373  83.6634922  93.4586048  97.4174976  83.9215660
 108.0523652  14.0460242  43.4445524 108.8911599  13.8030280  43.8364840
 107.4429101  14.0753020  44.1820717  17.4706710   0.4589118  33.6344242
  17.1975768   0.5914725  32.7266359  17.3956931   1.3245810  34.0359449
  31.9642795  43.0162276  90.7302570  31.6838802  43.1418074  89.8237038
  31.4863742  42.2404421  91.0235023  90.1272077  38.6076010  91.1926746
  89.5648545  37.8333033  91.1713123  89.9306697  39.0689219  90.3773212
  79.3071288   2.5524939  68.9685583  79.2938394   1.5975798  69.0333557
  79.7827834   2.7309073  68.1572914 100.7637978  93.3033848  51.8579483
 101.5845203  93.3299923  51.3660765 100.8759975  92.5777340  52.4720144
 114.3659181   3.9442957  84.0428734 115.0019473   3.4324873  84.5426273
 113.8584823   4.4104231  84.7072983  94.1342086  11.8895091  82.8342915
  93.4952039  11.9887198  83.5400200  93.7787026  12.4105395  82.1142960
 107.5699681  27.2843874  83.7245846 108.1137198  26.8035830  84.3485928
 108.1150121  27.3612822  82.9414845  41.5405733  98.6588811  10.3126482
  41.6725618  98.1059312  11.0827498  41.9228823  98.1596517   9.5909552
  17.4740184  12.6125849  58.6044502  17.5590003  13.4233225  58.1027412
  16.8474830  12.0873869  58.1065989  87.6269531 100.9282017  89.7267342
  88.1443501 100.6041622  88.9894867  87.4952221 101.8571091  89.5369816
 104.2847175  13.3520258  61.3307714 104.6108073  14.2367686  61.1660719
 103.6415643  13.4603728  62.0313787  95.1532555 100.8183861  93.2460022
  95.1122761 100.5238628  92.3361588  96.0314655 101.1876297  93.3388996
  90.3572005  13.1501997  65.6369591  91.1782807  12.7188529  65.8736086
  89.7993106  12.4425829  65.3140545  83.9294833  31.3598956  88.7296581
  83.9379043  31.1780680  89.6693897  83.0076713  31.2921370  88.4808445
  80.9138173  26.3621748  72.2730350  81.1236352  27.2911108  72.3694038
  81.7642659  25.9330023  72.1793175  88.0195445  50.3596915  56.7813540
  87.6574058  50.4826010  55.9038639  88.2030696  49.4218195  56.8355227
  96.1233777   7.1818007  42.5578547  97.0710153   7.2769011  42.4620867
  96.0023517   6.2818087  42.8605032  83.1982726  30.0744189  80.9418392
  82.5006455  29.8068751  81.5401459  83.1462974  31.0300673  80.9254074
  77.6767921 101.9727707  54.2467499  77.2848034 101.9366837  55.1192570
  76.9336987 101.9041157  53.6473036  66.6415484  78.9749193  11.8672614
  65.7031519  79.1335058  11.9696955  66.7023165  78.0548620  11.6102938
 113.5706490   4.3049181  58.1187916 113.6811656   4.3909300  57.1718931
 113.9171380   5.1227416  58.4756374  54.8101772   6.9985426  91.8493557
  55.5278362   7.5332011  91.5097523  54.9647296   6.1285342  91.4813423
 104.5762074  42.4744653   1.6446738 103.7418640  42.2109746   2.0328478
 104.3515885  42.7436685   0.7539992  81.6112041  94.9668407  56.7887115
  81.5785599  95.5899525  56.0628366  80.7673264  94.5162773  56.7557287
  66.1970520 107.5865269  57.8464460  66.5272856 107.7320576  56.9598818
  65.8113623 108.4253597  58.0990744  94.5304603  22.3602522  54.7060299
  95.2146787  21.9270934  55.2163696  93.9478368  22.7424468  55.3623199
  58.2353640 109.8480129  93.3290005  58.1538105 110.2992630  92.4887943
  59.0527868 109.3550777  93.2577801  23.7130511  32.5951613  71.8106031
  24.6103156  32.9159010  71.9015646  23.2060493  33.3686770  71.5639162
  17.5600589  28.4223689  87.1995926  17.8863681  29.2812956  87.4678993
  17.9713214  28.2646788  86.3497543  94.5640630  13.2310904  86.5984249
  95.3368682  13.3350790  86.0432816  94.3048781  12.3173655  86.4794445
  89.5527047   0.4237212  53.8143730  88.7861556   0.0737227  54.2684031
  89.9568004   1.0161723  54.4483614  10.5491412   4.4745100  53.3428144
  11.4993823   4.5636118  53.2697487  10.2209819   5.3730429  53.3084297
  71.6546726  99.2106152  84.0946293  72.4318933  98.7200451  83.8272476
  71.1308432  98.5792542  84.5877934  23.8916648  41.3982142  54.0829372
  24.5568336  40.7898463  53.7609386  23.1046642  41.1784686  53.5843706
 103.6932868   6.1805953  59.3390226 103.1969613   6.2095774  60.1569796
 104.6085185   6.2451972  59.6117973  38.9312489  74.7906160  15.5138258
  38.6785490  75.0250959  14.6208624  38.5856850  75.5006551  16.0548071
  16.0037959  14.0519274  82.8665161  16.0466064  13.6080874  83.7135124
  16.7205394  14.6858538  82.8917980  42.3951530  91.6142082  58.3535051
  42.3800755  91.9327354  57.4509811  43.0088806  90.8798122  58.3380842
  32.4279714  14.5415688  91.5242100  31.6823626  15.1408517  91.4901829
  32.4155855  14.0955102  90.6773853  17.6323938  24.1979885  28.5430336
  17.3063862  24.6389341  29.3275857  17.8689575  23.3201528  28.8424897
  93.5117959 105.1693558  43.1469297  94.2118036 104.5539927  43.3649874
  92.7076446 104.7182249  43.4039402   9.0610707   4.4914076  74.2468214
   9.0215957   4.9713346  73.4195709   9.1057330   5.1730913  74.9173021
  32.8364366  74.2158936  24.9179320  33.7230474  73.9870725  25.1968436
  32.6231235  73.5701822  24.2442946 108.4346568  21.1832786  47.6691008
 107.6115614  20.9222960  48.0821800 109.1048902  20.9812212  48.3219337
  29.1388178  49.9644899  91.5795994  28.4339333  49.3484449  91.7792416
  28.6982441  50.7065678  91.1655426  80.4836402   7.3202419   6.7352538
  80.4653418   7.0287132   5.8237128  80.0327957   8.1645679   6.7257838
 112.9314160  25.4869080  54.6615791 113.1559354  24.5576906  54.6127987
 113.7580704  25.9224653  54.8693371 109.2753434  13.0134475  47.7462244
 109.5267510  12.3589766  48.3979082 110.0270748  13.0646849  47.1558809
 102.9822861 105.1547574  73.1466293 102.4578106 105.6685268  72.5324631
 103.8872372 105.3066628  72.8741932  15.7884645  33.0663896  31.3112497
  16.2186289  33.3540845  32.1164966  16.1694717  33.6161947  30.6265736
  25.0299835  44.1922569  51.2606382  24.8780847  44.4070578  52.1809769
  25.3990674  44.9919462  50.8858013 105.0359922  16.0754490  61.2566328
 105.6948035  15.9573209  61.9409180 105.1786190  16.9667721  60.9381485
  30.8817267  23.1129336  22.3328757  30.9761786  22.1684051  22.2096920
  30.2669406  23.3831406  21.6507745  24.4354296  49.1145992  81.9698429
  24.8843718  49.5467997  82.6963997  25.0951886  48.5324621  81.5929222
  77.1361857   5.9614193  29.1600108  77.2189861   6.6528153  29.8167801
  76.7816072   5.2143544  29.6420908  11.7989093 104.8586755  52.7412033
  12.5258714 104.8923909  53.3629942  12.2022515 105.0355398  51.8913412
  98.9099103  19.1303062  44.9233007  99.5908361  18.5166788  44.6475601
  98.4793394  19.3918633  44.1094017  10.4156017  12.3635530  78.9032602
  10.6843090  11.4912617  78.6149263  11.1008537  12.6357019  79.5136642
  31.9206405   9.2771924  41.7319298  31.9232917  10.2260530  41.8579769
  31.0246897   9.0106982  41.9380426  21.2368321  18.4352326  41.5207958
  20.7642055  18.8977051  42.2128773  20.6584072  17.7124059  41.2775373
   8.0837435   7.2392339  30.1611948   7.6895601   7.7090400  30.8961320
   7.7345562   6.3506573  30.2299809 110.9453791   3.8641608  60.2001572
 110.8699363   3.8747984  59.2459965 111.8860203   3.9248127  60.3667355
 101.3166367  89.7134601  39.0036130 101.2379419  90.2685749  38.2278013
 100.8726203  90.2041089  39.6952367  79.1844975  93.6070811  71.5344477
  78.3146208  93.3436309  71.2342119  79.7406580  93.5236560  70.7598782
   5.9222811  26.9427776  67.0726061   5.6156099  27.5957274  66.4434433
   5.6440914  27.2811007  67.9237080  35.2435899  18.3416414  34.4817829
  34.5568061  18.9770722  34.6837401  35.5700946  18.6069965  33.6220074
 105.8345544 107.1699225  92.0273113 105.7565629 106.3478070  91.5432930
 105.6210720 107.8470277  91.3852882   7.2185564  40.1826715  70.7820606
   6.6251481  40.8984232  71.0096550   7.4073160  39.7534990  71.6165781
  15.9780741  33.0670500  62.4040127  15.5555344  32.5293827  61.7342281
  15.4579711  33.8702083  62.4296808  89.2082261  92.7419483  49.1488647
  88.5080635  93.0101954  49.7438860  89.1518664  93.3588397  48.4191370
   1.3327061  13.7083077  86.2675953   1.4187722  12.7809381  86.4885330
   2.0814282  13.8896644  85.6994820  26.4058501  74.4662653   3.8541464
  26.1018986  73.8403295   4.5114474  26.6065985  75.2584325   4.3525462
 111.4017224  17.8704560  45.8797169 110.9116297  18.6807477  46.0192490
 110.7455474  17.2427881  45.5769014 102.1801024  37.1920323  72.4637508
 102.5796049  37.5421906  73.2600069 101.4398652  37.7738905  72.2913504
  29.2837334  44.3156004  79.1022158  28.9676213  45.0449324  78.5689402
  29.0139103  44.5361567  79.9937201  25.9246683  12.2677255  47.6461506
  26.7739558  12.0597708  47.2566700  26.1380982  12.6364791  48.5032988
   2.6705948  35.7970929  55.9633064   3.1870875  35.1267791  55.5159330
   1.8717989  35.3437495  56.2328196  64.7920317  53.0050123   7.2524790
  64.3406862  52.8765747   6.4182047  64.2644280  52.5204070   7.8873209
  21.1528349   1.4159063  41.5411282  20.8851075   1.4105840  40.6221485
  20.3583765   1.6506158  42.0206928  16.2911904  39.6965218  62.7079487
  16.5279341  39.8092794  61.7873716  15.3950906  39.3607664  62.6854181
  38.8523364  47.1165276  68.2280397  38.8644934  48.0542803  68.4196234
  38.7427664  46.6989374  69.0823507  75.7669831 101.3704627  68.7395334
  76.2047950 102.0033335  68.1703043  74.8396980 101.4477711  68.5150433
  32.8475094  14.8075557  69.8013020  33.3401752  15.6276488  69.7703314
  31.9300175  15.0798380  69.8187542 104.3427830  40.1911831  82.9852104
 103.8594382  40.5198383  83.7432384 105.0956410  39.7346663  83.3607578
  82.4496358  92.8486024  61.9915390  82.8092521  93.6027955  61.5245247
  82.4975767  93.0939149  62.9155254  58.6955582 108.5677648  78.6361933
  58.3708607 109.4667588  78.5850716  58.1672406 108.0857508  77.9999733
  25.3007317  17.9891133  59.1972256  24.8831749  17.1883929  58.8798571
  26.2319779  17.8615201  59.0162945  59.3736481 100.0622152  52.7128077
  58.9522981 100.2274632  51.8693686  60.2690744 100.3810649  52.5997734
  99.7287738 103.9878010  43.8172054 100.3360163 103.5237687  44.3935394
  99.1957366 103.2965290  43.4244633  12.7773726  20.6890702  66.8743229
  13.5196936  20.4336286  67.4219942  12.2422576  19.8978698  66.8119860
  90.8378267  89.2934596  63.3760023  90.6684529  88.5341298  62.8183651
  90.0491893  89.3777477  63.9118958  99.8911511 101.5442698  56.8561602
  99.4776356 102.3544424  56.5580702  99.1997754 100.8852731  56.7932701
  21.2468433  13.3296180  21.4192510  21.7633295  13.1412244  22.2028208
  20.9143138  14.2162526  21.5590239  19.8283625  15.5080080  51.1539078
  20.3114915  16.2690449  51.4758396  19.5950079  15.7356119  50.2539206
  14.6291840  32.8984714  59.9331522  14.3912649  32.7902055  59.0123320
  15.3837419  32.3222351  60.0549173 100.1051699 107.7380901  64.3312693
 100.3419124 108.0688832  63.4648037  99.8039853 108.5111256  64.8086929
  88.7547451  49.6570683  24.6913099  87.8280693  49.5541477  24.9079037
  89.2020899  49.6372318  25.5373144  33.4208322   2.6482314  43.5903645
  34.1468239   2.3390260  44.1321754  33.1565571   1.8806100  43.0832672
  16.8690825  32.4700308  50.3687859  15.9873497  32.4492121  50.7407331
  17.2307050  31.6049170  50.5612421 107.7625739  75.3910529  54.4256926
 107.1754061  75.6129109  55.1483583 108.1417786  74.5483505  54.6752644
 104.1895210 100.9206628  54.2962837 104.4798910 100.3988068  53.5482311
 104.2338764 100.3191846  55.0395775 103.5859483   0.5732133  64.9765587
 102.7894800   1.0541295  65.2014780 103.8404959   0.1376221  65.7900095
  14.3763340  10.6055748  77.6307964  14.8304224  11.2901735  78.1220818
  15.0554466  10.2148545  77.0809126  18.5678279  28.5691381  63.9295578
  19.5095277  28.4887576  63.7779951  18.2425880  27.6694202  63.8985443
  87.6028305  24.4174886  60.9141445  87.2352915  23.5568476  60.7130337
  86.8400579  24.9890041  61.0023451  16.9187343   5.8886880  61.2358284
  17.7179110   5.4425299  61.5159941  16.3537085   5.8755553  62.0083618
  17.9566586  27.2392845  60.1250553  18.2807577  27.9554915  59.5789433
  18.7133002  26.9763494  60.6490707  89.8251962 102.8733413  24.3338108
  89.4518947 102.1652298  23.8089705  89.9079620 102.5023513  25.2123022
 115.4613617  29.7564864  37.9480600 114.5325115  29.5258164  37.9642081
 115.7735412  29.5550585  38.8302183 100.1429164  90.8949446  69.0847445
 100.3725731  90.0918471  68.6172771  99.2113792  90.7987546  69.2827845
  22.3585373  86.1971603  13.5035948  22.6492459  86.7931424  12.8132872
  23.1187433  85.6417523  13.6763434  16.2007618  35.5520654  59.4174957
  15.7790911  34.7022200  59.5447302  17.1373868  35.3551126  59.4042063
  25.2009726  37.8404140  48.4960318  25.3964424  38.7633777  48.3342838
  25.0838876  37.7830005  49.4443083 106.8944960  18.9735806  87.2623158
 106.1411040  19.1464853  87.8268909 106.6899996  18.1399632  86.8386555
  21.2211776  42.8249550  49.9517155  22.0241570  43.3301544  49.8243141
  21.3572240  42.3636150  50.7792950  11.6667008   5.5768001  43.5917950
  12.4782717   5.0881428  43.4546900  11.4531815   5.9332848  42.7294970
  21.5271425  22.1501875  66.8991804  22.1789694  22.4724841  66.2767029
  20.8562279  22.8326392  66.9182825   8.2358825  29.7274685  50.3660965
   8.0994993  29.6838951  51.3125277   9.1351694  30.0402999  50.2678537
  14.3274677  11.0261405  45.9023571  14.8948491  10.3132629  46.1958122
  13.4444201  10.6581354  45.9344625  73.7830067  20.8194995  24.1287613
  73.4634542  20.6775975  23.2377028  74.2994356  20.0378990  24.3253183
 103.1724375   7.3085225  64.0778160 103.2171922   6.6695738  64.7891378
 104.0591174   7.3286223  63.7177801  89.6592473  81.5841662  77.7127790
  90.4172944  81.4775859  77.1381140  89.4347417  82.5120818  77.6434803
  99.3372255  23.7111831  51.6366720  99.1618615  24.6513176  51.6769934
 100.1687031  23.6026192  52.0982885  27.6165199  15.4770291  60.0906038
  27.6735497  16.1935830  59.4585180  28.0486584  14.7407866  59.6576691
  37.5956750   4.4719991  80.3581238  37.5342989   5.4166746  80.2165222
  36.7757082   4.1235745  80.0081444 115.2547872   6.5034795  61.9567633
 115.1984831   6.3073677  62.8919649 114.7097702   5.8366656  61.5389729
  19.7620726  37.2861362  55.5540752  20.4117823  37.2223544  56.2541056
  20.1365352  36.7802119  54.8329306  21.2853408  37.6326561  13.6265302
  21.2061977  37.2811270  14.5133197  22.1424460  38.0585980  13.6133420
  32.5248945  81.1349140   6.4211039  31.9058961  81.2941418   5.7085566
  32.6029736  80.1817809   6.4620261  26.2732935  20.5442238  77.6944208
  27.1071362  20.8719277  77.3574543  26.2294626  20.8776593  78.5905981
  15.3342116  47.3677206  55.5449724  15.1317990  46.6007519  56.0807133
  15.3208494  47.0416069  54.6451330 116.3424496  19.1932821  39.1866851
 116.3695773  18.5072601  39.8536706 117.1832534  19.1214573  38.7348866
  22.9273415  36.4135861  65.6278801  23.1340194  37.0933270  64.9864244
  22.3340416  36.8401599  66.2461567  97.6717847  21.6595745  68.1197786
  98.4143179  22.0899940  68.5435915  96.9340687  21.8202400  68.7081623
  64.4480801   1.5769243  57.0327425  63.7341976   1.2890370  56.4637756
  64.0975046   1.4905867  57.9192352  70.3615915 105.9711125  51.3946915
  70.7434737 105.7577022  52.2460747  71.0714298 106.3965045  50.9136486
 112.9576909  97.8128957  45.8239412 112.8322803  98.5248243  46.4513683
 113.5947501  98.1555568  45.1970673  87.0794850  23.6054683  52.1397638
  86.7855268  23.0143523  52.8328753  86.2764388  23.8592625  51.6848564
  96.2201434   0.8026031  78.9267969  96.6761022   1.5408468  78.5226536
  95.5944615   1.2073709  79.5275593  75.9946188 109.4634000  53.6283302
  75.8374611 109.5315473  52.6865816  75.6641541 108.5965704  53.8641930
 113.2630616  47.9317617  78.2884693 112.6132398  48.5663986  78.5904646
 112.8432834  47.0807838  78.4143686  16.6924572  45.4295349  79.0069294
  16.5437281  45.6031466  78.0774307  15.9326220  44.9149084  79.2790413
   0.5230550   9.0329140  78.7722349   1.2701450   9.4713485  79.1795015
   0.1430391   8.5051453  79.4745731  26.7547345  59.0767956  90.3428745
  27.5706267  58.6404848  90.0975513  26.9337845  60.0084829  90.2158833
 113.4165203  38.0804420  95.0381374 112.6199921  37.9593229  95.5549622
 114.0959382  37.6244164  95.5347919  97.3632496   5.5401796  63.8229370
  96.7141658   4.9002203  64.1151285  97.7571099   5.8680665  64.6313906
  78.0494862  82.5443040  94.0419769  78.5418711  83.2955586  93.7112045
  78.5652140  81.7834746  93.7747765 106.1697834  24.3323040  65.9337425
 106.9420862  23.9664459  66.3649368 105.8348757  23.6160874  65.3942060
  34.5479798   7.3813415  80.6887150  34.6489406   6.7608595  81.4105511
  33.6112571   7.5774533  80.6707001 100.1053267  11.0932648  84.2628574
 100.8141797  10.6165361  84.6947002 100.0944834  11.9480848  84.6934319
 103.5056871   8.4670961   8.7210882 102.9147142   7.9476196   8.1759942
 102.9785972   9.2160851   8.9993399  26.7216611  18.6813426  65.4467630
  26.3628292  17.8551161  65.1230049  26.8529129  18.5347450  66.3835239
  33.3352494   5.9090763  57.0090771  33.3014584   6.4079642  56.1928654
  32.6916337   5.2106863  56.8897343   7.7705181  43.0369282  42.4078417
   7.9607743  42.8239441  41.4942408   7.4638665  43.9433575  42.3836136
  11.0827231  50.0542879  51.5275335  10.9519494  49.5731163  52.3446035
  10.9441125  49.4021416  50.8407116  14.1959131   3.4373429  61.6706800
  14.4194353   4.2758834  62.0745611  13.4360898   3.6309147  61.1216545
   2.0379104  19.1572917  38.5147929   2.3615706  18.3549166  38.1053162
   2.2443749  19.0523291  39.4435501 114.6193666  24.6920753  73.5040331
 115.5151963  24.4327307  73.7195873 114.0738224  23.9959979  73.8702154
  92.5405967  97.1194815  44.7180033  93.2088994  96.5121793  44.4005346
  92.1610629  96.6811859  45.4796362  38.0016160   7.1888679  40.7337904
  37.0504141   7.0927763  40.6867552  38.1463242   7.7810037  41.4718056
  27.3164558  10.6952155  84.2059517  26.8822122  11.5445364  84.2854404
  27.2108626  10.2907062  85.0670242 105.7559663  17.9472446  67.2253466
 106.3004642  18.6725378  66.9192314 106.2406283  17.1611023  66.9737196
  27.1927547  32.3174500  74.4761848  27.6193976  31.5203357  74.1618347
  27.8967690  32.9644799  74.5202971   0.7579726  20.0202417  57.2922945
   1.5874463  20.4566622  57.0980263   1.0027266  19.2722857  57.8371716
 101.0638701  79.8876249  34.4312596 101.9651520  79.6285235  34.2394590
 100.7322823  80.2326833  33.6022735 100.6455248  13.5844827  41.0188198
 101.1158293  12.9059255  41.5031815 101.2035602  13.7700105  40.2635670
  83.7270414 109.3447451  46.1639404  84.6090215 109.2095726  45.8174276
  83.1698304 108.7812004  45.6271315   3.3545330  46.5227365  64.4372368
   4.0990388  47.1240854  64.4193649   3.6024722  45.8534861  65.0750971
  19.8877239  34.4737124  46.5864325  19.9602461  33.9641237  47.3934555
  18.9457059  34.5468283  46.4331722  26.1866355  10.7902050   4.2435947
  26.3958168  10.2627861   5.0145066  27.0280623  11.1518621   3.9653197
 108.0852067   9.5759803  62.5577736 107.8539812  10.5009174  62.4725866
 108.6425316   9.3976712  61.8002605  13.5406756  13.8382268  53.3034849
  14.3829322  13.7508881  53.7498140  13.2551754  14.7297955  53.5030556
  13.8104880  10.3542888  61.8835688  13.7192798  11.2808931  62.1056414
  14.7083080  10.2723229  61.5619564   8.4618247  27.9129815  89.6870613
   8.8070047  28.7953901  89.5512581   9.2299390  27.3443794  89.6329975
  26.0506964  13.8961518  61.6849184  26.3871789  14.5954275  61.1245394
  26.7170501  13.2105422  61.6386032 115.9053941  28.7776208  86.2144089
 116.8203273  28.5158634  86.3174343 115.7480076  28.7321901  85.2713299
   4.4805706  34.9493718  46.0323048   3.5262626  34.8767447  46.0163927
   4.6616054  35.8100343  45.6545258  17.6471341  49.9984932  79.4793224
  18.1546283  50.3968716  80.1864052  17.0733035  49.3718052  79.9200201
  29.2198014   5.9616286  55.1055050  29.6599674   6.7912078  55.2906656
  29.8225498   5.4946101  54.5268679   1.6604982  41.9998121  34.0247178
   2.4227268  42.1428347  33.4636641   1.4311495  41.0806847  33.8874531
  11.3794088  52.0536804  62.0645046  10.5380702  52.1396303  62.5128269
  11.7849028  52.9166555  62.1486521  26.8287897  37.4149609  94.7411919
  26.6938114  38.3182430  94.4546700  27.4366164  37.0482969  94.0990543
  95.8605128  34.8314691  24.3742442  96.1252981  34.0671420  23.8624597
  95.3992444  34.4661069  25.1292109  17.2394645  35.3285313  32.0589542
  17.8017509  35.3425288  32.8334689  17.7227402  34.8027444  31.4215994
  74.4596680 100.2346694  38.7150002  75.2089407 100.8021568  38.5339475
  74.4381516 100.1635515  39.6693134  13.6382806  38.6568785  72.2429609
  13.2144868  38.7452269  73.0966711  13.7197185  37.7120996  72.1126127
  21.1702061  31.5866208  78.6795187  21.3682318  32.3931289  78.2035303
  20.4288816  31.8152905  79.2402172  40.7835913  17.6751983  47.8120613
  39.8733425  17.6884055  48.1078720  41.0169697  16.7470133  47.7966213
  30.5155993  14.2160547  94.3767071  30.9869862  13.8833225  93.6129570
  31.0697079  13.9814031  95.1211071   1.4028722 103.9543860  48.5257912
   2.2536927 104.3902307  48.5745621   0.8657485 104.5369827  47.9888439
  12.0921600  21.2737107  71.0476637  11.8309081  22.1872497  70.9317780
  13.0376208  21.2741733  70.8982086  -0.0852261  12.5898755  24.8521161
  -0.3512119  13.2459533  25.4963565   0.5114268  12.0134640  25.3295970
  19.3744171  35.7214308  68.3812141  18.4904134  35.6910229  68.0153656
  19.7160280  34.8360705  68.2560158  29.5153499  14.2826378  38.7220502
  28.7163854  13.7568498  38.6841869  29.2561507  15.1373351  38.3777571
  21.4864635  27.5548196  77.1912575  21.9781590  27.1503520  76.4765072
  20.7891130  26.9288707  77.3865080   2.5020942  45.8089495  35.1603580
   2.8287265  44.9806976  35.5118418   2.2568399  45.6059504  34.2576551
  87.4860936 101.0193895  54.6483231  86.7086452 100.5774360  54.9896193
  88.1829726 100.7857852  55.2615309  18.7746656  38.2519221  35.0334883
  19.0439677  37.4179387  34.6485448  19.2400169  38.9134026  34.5215082
  11.3549733  26.0233140  66.8046522  10.4026604  26.0891223  66.8753767
  11.6246212  25.5782318  67.6080322 110.9541952 110.3301779  58.9272690
 110.4235684 109.5928310  58.6256313 111.6167032 110.4431606  58.2456923
  22.5200415  21.0353065  86.5382290  23.1677771  21.6932607  86.2857151
  22.8775597  20.2095866  86.2117290  36.9697189  72.8879356  80.3135109
  36.0265541  72.7556515  80.4093075  37.1649742  73.6368036  80.8768177
 113.1170096  59.5260572  61.9930792 113.6191511  59.1105318  61.2920666
 113.7201923  60.1643658  62.3738289  82.3850709  15.1572204  52.3785973
  81.9824248  15.1650071  51.5102386  81.6567689  15.3059888  52.9816532
  81.0929412  99.2376099   1.7663722  81.5642852  99.6887265   1.0659747
  80.2734918  99.7241984   1.8556456  14.7351384  20.3317285  74.6326113
  14.9110818  19.9176610  75.4774952  14.7403646  21.2703562  74.8201847
  12.5944376  53.3023357  57.0583391  12.1153796  54.1222286  56.9378662
  13.4793556  53.5753393  57.3004580  10.0363553  47.6667213  58.7055969
   9.3664938  48.0467701  58.1371927   9.5520735  47.3507500  59.4683981
  24.6603036  22.7314067  85.8382511  25.0215149  23.6162400  85.8914185
  25.3452492  22.1707964  86.2026691  33.3202672  19.8110163  76.6833401
  32.6606083  20.1769066  77.2725821  32.8942442  19.0492475  76.2903452
  92.9577928   5.8269799  71.1791325  92.6189643   5.6592619  72.0585060
  93.8329011   6.1866635  71.3242102  18.7122142   2.7089506  42.2964668
  17.9386866   2.9409358  41.7825890  18.9890242   3.5326865  42.6977968
  11.6640282  56.6482306  87.5277042  11.9803727  56.1090755  86.8028069
  10.7757890  56.3315248  87.6918983   5.4967511  15.8651555  44.1140175
   4.6648270  15.7493460  44.5730591   5.7443047  16.7724741  44.2921257
   8.9768219  22.0744872  59.5599270   9.3941069  22.5430202  60.2828217
   8.9771247  21.1581254  59.8365307  46.1519003  18.4581256  80.7665539
  45.6781912  17.6290560  80.6996822  46.9538975  18.2381773  81.2405396
 114.5101764  21.3660836  79.5202351 115.2137988  21.9970083  79.3683100
 114.7647906  20.5962634  79.0115309  16.0996222  59.0015173  65.8793068
  16.7245185  59.0843678  66.5996313  16.0045052  59.8919249  65.5411339
  54.9759418 100.5852805   5.8329253  54.3020851  99.9562798   6.0908179
  55.6669432 100.0496970   5.4431872  98.4479242  27.4235296  94.6766663
  98.8784784  26.6801119  95.0987911  99.1572862  27.8943634  94.2392254
  33.4204817  19.8363519  48.6642742  33.5508108  19.2976069  49.4446564
  33.1514025  19.2157626  47.9870033  23.8417339  24.0814281  72.9545975
  22.8878808  24.1075420  72.8789997  24.0296865  23.2155013  73.3166456
  10.2122676  27.9067993  52.3868179  10.7946098  28.5601521  52.7744246
   9.5706415  27.7210546  53.0724192  20.1112175  31.1425614  45.0882769
  20.6380367  31.1740661  44.2897177  20.0930166  32.0477176  45.3990746
  14.1938186  56.4847183  48.5510063  13.8459325  56.5288496  49.4416571
  13.4190094  56.5119219  47.9896116  87.1256214   9.7277451  45.8693647
  87.4702483  10.0098848  45.0220966  87.9022747   9.6072829  46.4157438
  32.3982573  41.9704819  27.8912950  31.7686081  41.2856627  27.6659155
  31.9358635  42.7892733  27.7124119   7.2028250  18.2211888  66.5589476
   7.1533132  19.1513681  66.3386106   8.0427355  18.1258047  67.0080376
 101.9840752  95.0696360  47.5262833 102.5040542  95.6233930  48.1086969
 101.2831079  95.6419539  47.2143078  18.8758647  12.1738088  81.4672565
  18.9573729  13.0406904  81.0696411  17.9335582  12.0067060  81.4863682
   2.0004842  51.9802237  68.8806581   2.0088419  51.1435986  69.3456554
   1.6362828  52.6012278  69.5114851  14.5951414  26.8297696  69.5701313
  15.3988910  26.7056608  69.0653372  14.2108393  27.6314187  69.2153072
   2.5100356  19.1630661  76.1755085   3.3313161  19.0791512  75.6910610
   1.8285322  19.0402246  75.5146790  81.8945812 107.8806116  71.3127661
  81.5754350 108.2543064  70.4913473  82.3288929 107.0679908  71.0534382
 111.8172854  33.9459682  49.7920704 112.4198821  33.9379525  50.5357409
 111.4393597  34.8253727  49.7994995  12.1948385  37.7549219  55.2454948
  11.4937198  37.7590394  55.8971453  11.8869853  37.1548533  54.5662498
 104.4819509 103.9487117  62.2489977 105.2167331 104.4691299  62.5737858
 104.8182880 103.0531101  62.2172594 106.9987308 103.4154361  47.5507879
 106.9819700 102.5164210  47.8789997 106.2156736 103.8209646  47.9230833
  49.5304060   2.9658848  67.3627472  49.7968721   3.5998586  68.0285549
  49.4554043   2.1377829  67.8369331  18.9250720  14.3011928  47.3297167
  18.3803403  13.8122797  47.9465342  18.4160471  15.0872278  47.1315384
 104.3302541  43.6969471  74.7369719 103.5403472  44.2288923  74.6404696
 104.9515467  44.0757179  74.1150713  19.9877000  27.1319127  70.7241964
  20.1970387  27.3139906  69.8080826  19.5673835  26.2720942  70.7075167
  11.3757735 102.3035364  64.0187550  11.8297082 103.1381320  63.9020300
  11.8130904 101.7061310  63.4120512  15.2407205  38.7673616  94.3486691
  16.1418748  38.5613465  94.5970917  14.9331510  39.3609118  95.0337505
  49.6300459  11.6540766  33.1614518  50.2169752  11.5897703  32.4080515
  49.3804836  12.5776494  33.1925082  15.5067074   5.2695960  36.9310665
  15.7578731   5.5739152  36.0589790  15.6997430   4.3321025  36.9224072
  22.6372480  13.0816782  45.0398159  21.9960046  13.5904634  44.5436573
  22.9667640  12.4363911  44.4143105  54.2906666  79.2089701  89.8490238
  54.8810482  79.9220657  90.0922775  53.4584427  79.6416140  89.6580791
  37.9656434  20.8138394  89.0138435  37.8432679  20.5827856  89.9346447
  37.0783520  20.9470201  88.6803627  36.3394198  89.5804916   4.3874888
  36.0326108  89.0338717   3.6640887  37.1491404  89.9746738   4.0631442
   7.3439866   6.6440314  57.2823906   7.8103453   6.2689322  58.0294132
   6.9567680   7.4507290  57.6222897 113.3930791   3.0727338  16.0806040
 113.6023581   3.1755351  15.1522307 113.7617290   3.8518380  16.4969210
  31.4827681  19.6553159  24.6803331  32.1853876  20.2267480  24.3704557
  31.4292502  18.9627719  24.0217352  17.8909934  52.3344469  70.1001501
  18.0634975  53.2657003  70.2388525  16.9712353  52.2228241  70.3406048
  71.9649893  56.1624098  76.2101030  71.0568672  56.0768986  76.5003204
  71.9491153  55.8941078  75.2914143  20.8018756  10.5095637  92.3437119
  20.0442243  10.4907835  92.9283905  20.9811044  11.4408100  92.2137642
  35.2798176   7.9104859  58.4609127  35.5684042   7.1778208  59.0051079
  35.0593257   7.5114107  57.6192713  49.4158745  59.1724539  71.0738945
  48.7274361  58.9293623  70.4548740  49.2337036  60.0875616  71.2874937
 116.9435666  19.4432259  70.6332827 116.9731886  19.9898827  71.4184713
 116.7458556  20.0541592  69.9234247  27.6654720  28.5011315  50.6609249
  28.5469747  28.1477523  50.7805443  27.5097704  28.4424162  49.7182989
  83.0715966 107.5517203  64.0797567  82.7167641 106.9921707  63.3889389
  84.0198451 107.5147723  63.9544964   8.2401162  16.9973934  17.5716734
   7.3907447  17.0155418  18.0126607   8.3004588  16.1155593  17.2043073
  47.1740151  92.6786171  14.4702200  47.7962941  93.0137049  15.1157622
  46.8049699  91.8949829  14.8775916  19.6607983  57.8800774  68.4556484
  19.9244785  57.3077440  69.1761637  18.9797950  58.4386730  68.8303947
  14.3407011  41.7852831  60.7579660  13.9444876  41.3610506  61.5190697
  14.6254313  41.0606861  60.2010870 105.6833255 107.0936220  76.3871241
 105.2302896 106.3706063  75.9532642 106.2531220 106.6688969  77.0283556
  11.9190073  10.1481950  64.1874599  11.5218568   9.3240786  63.9057970
  12.8142452   9.9119616  64.4303083  33.8661575  63.1549072  58.8276577
  33.3393621  62.4781847  58.4024954  34.0091109  63.8109922  58.1454897
   8.9108384  76.8619394  87.7662659   8.6073428  76.9309282  88.6714554
   9.1442853  75.9395647  87.6615620  38.8146877  48.9498901  86.8475342
  39.3447161  49.0836906  86.0617828  38.1363392  48.3313751  86.5763950
  95.3090692   4.7119378   0.2143054  94.7647727   4.3438720   0.9103636
  94.8561621   5.5143832  -0.0449033  71.8446016 108.7665567  57.7695942
  72.2725343 107.9447774  57.5292110  70.9792440 108.5033006  58.0827808
 114.9540293 106.9535886  73.7209415 114.5576488 107.6736783  74.2114353
 114.5947706 107.0389863  72.8378391  10.2257085  67.4725246  80.7299519
  10.9574687  67.2966385  80.1384926   9.5232654  67.7800655  80.1570415
  20.4606342  56.4460325  57.8369045  21.0403895  55.7819557  58.2098866
  20.8984041  56.7209816  57.0313072   2.6203448  36.0659647  63.6832523
   1.8197882  36.5740824  63.8142347   2.3652953  35.1635075  63.8749695
  15.7912135  12.5914967  41.1662865  16.3490391  12.6428413  41.9424486
  15.4480386  13.4785843  41.0588646  96.5171980 101.4844059  66.3923645
  95.6778728 101.9205492  66.5391493  96.5029907 100.7322299  66.9841957
  93.9474636  56.9162178  65.2025652  93.8763552  57.5929260  65.8757973
  93.2896858  56.2651873  65.4469395  30.0574279  30.6999111  38.7751484
  29.8296404  29.9549127  39.3313169  30.6610680  30.3385401  38.1261039
 117.0966242   5.8300376  57.4836969 116.9624832   6.2293822  58.3432102
 116.6053367   6.3882172  56.8809509   4.6498507  30.6913996  38.7441468
   4.2039153  29.9468851  39.1479683   4.0641263  31.4329314  38.8967490
  16.5460575  45.8932924  76.3430738  16.2418473  45.0746059  75.9513617
  17.0379126  46.3248301  75.6444407  22.5446558  35.0897002  36.9004393
  22.7808666  34.8001719  36.0191870  22.7582765  34.3449521  37.4625325
  22.4595141  11.4336884  51.8781519  22.1769643  11.1534512  51.0075998
  21.8234992  12.1021998  52.1327305  11.0093009  43.7998009  77.9371023
  11.0146141  43.0120420  78.4808350  11.8692505  43.8065100  77.5167799
   4.1545188  59.0872002  81.6266537   4.8383972  59.4434404  82.1937847
   4.0900713  59.7142076  80.9062767  40.8479548   9.0741175  62.0889044
  41.0998392   9.9047518  61.6853809  40.9657240   8.4253228  61.3950539
  16.9770396  38.8386607  68.7705994  17.7955055  38.5259771  68.3851480
  16.4072526  39.0058732  68.0198574  20.0549746  33.2246327  68.6604118
  20.9513974  33.3467746  68.9730406  20.1533842  32.7790236  67.8189945
  20.2701378  46.6169596  78.3932829  20.2348948  47.0879078  77.5607014
  19.7703791  45.8157587  78.2365990  19.4733417  20.5706310  32.9836154
  19.8188579  20.5186439  32.0924640  20.1234293  20.1161981  33.5194421
  43.8592720  24.7809577  34.6816707  43.9644194  23.8388705  34.5488262
  44.6083784  25.1713943  34.2315292  33.8017583  47.4618149  55.4162502
  33.2568812  47.8978539  56.0713911  34.6561527  47.8862286  55.4944277
  19.6006334  18.0681789  55.3770208  20.4842544  18.3459830  55.6184149
  19.0232301  18.6379647  55.8851385  34.0181700  64.6623175   3.3411173
  33.6148793  64.4782512   2.4927573  34.8537034  64.1960011   3.3153395
   9.6901357  15.2679920  78.9019537  10.0197458  14.4310868  78.5745764
  10.0852180  15.3583145  79.7691250  99.9759131   6.9617403  92.5172520
 100.1662367   7.8945005  92.4174213 100.7440704   6.5204179  92.1547604
  47.7163935   8.0562538  71.7980623  48.2676411   7.3134154  71.5519905
  47.1884918   8.2312071  71.0190010  87.3917031  93.7696277  72.2454214
  88.1945442  94.2283963  72.4928284  87.0825117  93.3720242  73.0593872
  36.1257294  97.2491799  12.2134261  36.4245165  98.0188142  12.6977973
  36.9296754  96.7812835  11.9876532  10.9825289  44.3338346  28.8691282
  10.7923174  44.7567558  28.0317593  11.8961120  44.0577173  28.7959361
 100.1635140  28.8744330  88.8996601 100.7783824  28.5494208  88.2419872
 100.6773191  28.9202547  89.7059727 112.1006175  21.3645506  25.4314017
 111.5952628  22.1608210  25.2676845 112.0516398  21.2404323  26.3792562
  10.9519899  37.7781248  50.9780836  11.4543092  38.5509992  51.2361050
  11.6020930  37.1843243  50.6025839  13.6909854   6.2768734  30.3429961
  13.8015294   7.0716834  29.8211837  13.6192393   5.5742466  29.6969295
  18.4042275  42.9307842  65.8148146  19.2946768  43.1179237  65.5176449
  18.0841649  42.2639132  65.2073002  15.2511466  35.1956105  49.1229963
  16.0350060  35.5509853  48.7040615  15.0151408  34.4387507  48.5866213
  98.4434330 104.1083782  51.2184381  99.2174541 104.6577649  51.0947514
  98.1435119 104.3130176  52.1041012   9.2216265  48.3731747  85.4213810
   8.3733076  48.2329464  85.0007629   9.8184514  48.5662651  84.6983624
  12.0711005   9.8556852  16.6691673  12.1871912  10.2092600  17.5510633
  12.5976026  10.4275656  16.1106145  18.7926114  37.6525235  51.7575169
  18.8565445  38.1396747  50.9360409  19.0380991  38.2862926  52.4315405
  16.2945604   2.8159410  23.2507777  16.1466944   3.3624288  24.0226054
  15.4191661   2.5332731  22.9861736  32.5237298   5.7948244  72.9459524
  32.6726723   4.9499649  72.5213814  32.4151444   5.5813205  73.8726997
  26.7574143  24.2870045  64.2932415  27.6700449  24.3179202  64.5802689
  26.6449380  23.4015441  63.9474964  37.3930192   7.9906988  50.0395346
  36.6170621   8.4444851  50.3684711  37.4901962   8.3035922  49.1401529
   4.1943583  30.4129171  79.3467188   4.6718660  30.6404018  78.5489321
   4.8602360  30.0452518  79.9278069  21.1475849  27.5090933  57.1240377
  21.6661668  26.7456818  57.3780203  20.3131223  27.1444607  56.8291712
  46.2773894 103.2900477  89.8890706  45.8967059 103.5655595  90.7229813
  45.9478211 103.9256192  89.2537196  29.1479182  22.6519561  83.8208771
  29.0770817  23.6032939  83.7423325  29.2296147  22.3425651  82.9187489
  37.1908164  58.7954760  55.6232309  36.7239809  58.6396646  54.8022413
  36.8257976  59.6160746  55.9543085  27.3100734  25.8029675  26.0289240
  27.4733853  24.9631977  26.4582801  27.1963668  25.5813289  25.1047063
  36.1436296   9.9738663  46.6948080  36.1869431  10.3520894  45.8165693
  36.9440556  10.2747810  47.1249247  19.8520339  63.9456606  84.2189503
  19.7009397  63.9756298  83.2742214  20.6139874  63.3754778  84.3216705
  11.2866175  15.6761718  39.3768787  11.6531241  15.8590734  38.5117483
  10.3635025  15.4853868  39.2104745  18.5715497  13.1806827  65.9508467
  18.3933377  12.2527444  65.7978630  18.4509122  13.5920143  65.0949907
  18.1999493   9.7662920  45.5055475  17.3579800   9.9689317  45.9132910
  17.9704499   9.3987876  44.6520233 114.6212500  61.9670677  78.6512756
 114.0481042  62.0240974  77.8867626 114.6331237  62.8550339  79.0084934
  36.0903263  78.9466906  55.3760672  35.6564903  79.1735983  54.5535517
  36.9880867  78.7326336  55.1222229 108.7992608  27.5144649  68.5714912
 109.4211083  27.5563407  67.8450060 108.2815629  26.7281246  68.3986092
  10.8704627  53.2073689  71.3909054  10.5452728  52.3079538  71.4301586
  10.1463377  53.7076569  71.0146284  12.7210402  40.0544739  62.7008200
  12.6060879  40.2722263  63.6258078  12.5526381  39.1133881  62.6535845
  10.4578888  18.9341676  83.4500599  10.0525331  19.5911074  82.8840733
   9.9924409  18.1228340  83.2467651  26.7826533  24.2156053  73.5120535
  25.9491181  24.6083474  73.7712955  27.3655057  24.3795037  74.2534399
  26.2342906  64.4650459  65.4982328  26.8478036  63.7684727  65.2645159
  26.5663648  65.2391815  65.0436258 106.7241054  29.9032021  68.7113333
 106.8474870  29.5184565  67.8435898 107.4484723  29.5565295  69.2322397
  10.6832439 103.4665661  27.0405698  11.4724427 103.9302348  27.3205853
  10.4425794 103.8818770  26.2124205  14.1495967  30.2937460  75.4862690
  13.8519931  31.0259271  74.9462938  14.2353177  29.5634866  74.8734045
  22.1039510  16.2521815  54.3579388  22.8192115  16.7281210  54.7799730
  21.7456675  16.8721771  53.7227440  31.7854786  31.6914821  35.0870848
  31.1826015  32.3089314  35.5012393  31.3051105  30.8637595  35.0682783
   4.2604369  20.8860159  92.5731754   4.8725268  20.4981542  91.9477654
   3.4145543  20.8637118  92.1257210  82.9230499  94.3974184  35.0232816
  83.1979036  93.4881042  34.9056649  82.1900808  94.3486165  35.6369638
  38.5583210  63.3396149  49.8547077  39.4716644  63.4297276  50.1265812
  38.5432506  63.6644268  48.9544296  26.7685533  56.7112494  53.4629965
  26.4257956  57.3473692  52.8352213  27.3957181  56.1920595  52.9596710
  77.4379302 104.0468406  43.6276722  76.9663267 103.9834701  42.7971268
  78.0532775 104.7686993  43.4992218   2.8945413  35.0422955  82.6299572
   3.1140926  35.4487467  81.7916107   1.9441894  34.9317431  82.6009464
   5.1605630  58.2932281  55.4858875   4.9337313  57.3668766  55.4043293
   6.1159968  58.3116198  55.4307556   3.0470169  90.8201027  59.6518326
   3.9037246  90.6435680  59.2630911   2.5057298  90.0766373  59.3863249
  28.6015463  33.0182242  78.2175207  29.3185163  32.5555849  77.7837563
  27.8551984  32.9097819  77.6280832  22.0344329   6.4316511  53.0690527
  21.9823098   5.8046079  52.3477125  22.5506926   7.1575207  52.7185965
  27.9315257  69.2631483  48.4758568  28.7958789  69.0055943  48.1552505
  28.0659270  70.1313639  48.8558245  24.3844914  46.4259195  58.4058428
  24.5507860  46.5049887  59.3451643  25.1166964  46.8843174  57.9935598
  25.7172418  49.1771412  41.1269236  25.9389138  49.8958731  41.7189741
  25.3285027  48.5110426  41.6938639  64.5930767  53.8543224  79.1723156
  65.3748655  54.3039274  78.8515472  64.7967577  52.9237032  79.0790415
 112.6777550  77.5654936  63.5788298 112.2406008  76.7166615  63.5109138
 113.0997544  77.5495195  64.4378376  22.8260207  38.4754157  59.3413162
  22.3287392  38.1621122  60.0968170  22.9591727  39.4077873  59.5121527
  34.3314552  44.8102999  53.7734795  33.9445734  45.6854153  53.7464094
  34.6173668  44.7027874  54.6806335   5.7609880  31.4844418  28.8452983
   6.1726350  31.5923238  29.7027016   5.3997964  30.5981755  28.8628340
  62.2912359  46.8381643  85.8340645  62.5323915  46.1953115  85.1671219
  62.7184105  46.5270376  86.6321564   4.1470981  58.6694860  32.9572034
   4.5770398  58.3082008  33.7323523   4.8472112  59.1163254  32.4813819
  27.3604536  49.2406321  57.3579407  28.3061481  49.3054676  57.2249460
  27.1640038  48.3122730  57.2322893 109.5291566  36.0548401  33.4249306
 109.8356354  36.8167353  32.9331827 109.6871483  36.2818313  34.3413067
 104.7879856  39.5363522  34.3065715 104.7654825  38.8884902  33.6022973
 104.0088897  40.0735474  34.1628265  22.8860521  69.5469809  75.9317923
  23.7142920  69.2481279  75.5563784  22.4089313  69.9218130  75.1914644
  69.0446568  58.1911087  31.3247585  68.5514450  58.3709335  32.1251559
  69.9500084  58.4077740  31.5475321  32.7364302  45.8047390  63.4467602
  31.9015741  45.6223726  63.0154943  33.3401322  45.9957504  62.7289200
  25.0451422  60.4661846  81.4486408  25.1899505  60.2324629  80.5317783
  25.9248304  60.5761814  81.8095875  38.4748626  52.1386957  68.5265255
  37.5717092  52.4240017  68.6648941  38.9866138  52.6518536  69.1518354
  87.9149371  64.2838335  82.4710274  88.5446697  64.1908836  81.7561626
  87.3661810  65.0241327  82.2120667  49.1921377  57.6066971  62.6940250
  48.5849142  58.2767916  62.3802042  49.3892670  57.0803452  61.9192171
  21.9851589  37.0676470  57.1678734  22.0632219  37.6701140  57.9075861
  22.5789642  37.4224854  56.5062714  31.5934730  65.8306456  49.8370361
  30.6594706  66.0300064  49.7727919  31.6530061  64.8959351  49.6395588
 111.5515553  63.6034966  72.9244661 112.2846138  64.1133785  72.5796795
 111.1038506  63.2713556  72.1463442  48.5865068  56.0767221  90.3134155
  48.1288481  56.8111944  90.7224846  49.5064926  56.3409662  90.3077888
  28.7238550  67.5767756  44.9224377  29.0865636  67.4456692  44.0463781
  29.4592428  67.9057455  45.4393673  27.9348493  70.9875679  55.9209633
  28.2643342  71.8827963  55.8419752  27.6194644  70.9271145  56.8226910
  35.8111596  11.8013012  37.5504398  35.4952645  11.5753043  38.4252930
  36.0997486  10.9683537  37.1774173  17.9630756  41.6599846  48.1257486
  17.4365342  40.9382629  47.7820921  18.5749888  41.2425423  48.7319946
 103.9753407  57.3191690  33.7279296 103.7484139  56.4760637  34.1202474
 104.8529833  57.5091267  34.0594292  15.0327015  31.9576931  52.3510075
  15.6959283  32.4797535  52.8024626  14.3013000  32.5610971  52.2199011
  36.6677642  66.5027809  53.1330585  37.4248862  65.9839153  52.8614378
  36.1052203  66.5289593  52.3590469  40.3787374  46.1042976  71.8834305
  39.6432328  46.2046003  71.2791109  40.1845503  46.7090654  72.5995159
 108.1527465  32.9985523  26.1554956 107.2992205  32.8430104  25.7511044
 108.1673741  32.4166512  26.9153690  41.7997408  73.9572239  64.5300865
  41.8847036  73.9245892  63.5772228  42.2050142  74.7880936  64.7783709
  42.3896599  50.5390453  67.2902536  42.4368191  50.3940201  68.2352257
  41.4546871  50.5017853  67.0885849  52.1848297  61.1949587  60.6889153
  52.4202538  62.0537233  60.3377295  51.4776468  60.8895111  60.1207352
  25.7484388  71.7590761  45.3926802  26.1497450  71.5886354  44.5405436
  25.6537509  70.8935165  45.7902575  40.0074148  58.4116793  54.0441036
  39.4603729  58.8409472  54.7019100  40.0253820  59.0255833  53.3099127
  55.3206301  76.6350889  13.6659169  55.2554989  76.8491411  12.7352333
  55.8038378  77.3682165  14.0470552  52.1153402  54.4439840  65.3772593
  52.8668690  54.1034842  64.8919821  51.7488480  55.1202917  64.8075867
  54.5408726  68.2812262  20.2871323  54.8697567  67.4723673  19.8949349
  53.5996437  68.1356382  20.3826594  14.8707724  56.4027834  65.0335455
  15.2036393  56.9818401  65.7192039  14.7411764  56.9760036  64.2779970
  29.0756845  50.2255297  31.4943552  29.4553638  49.4308567  31.1194277
  28.5130811  50.5719900  30.8017683  97.5596494  89.0889893  17.9582552
  98.0748195  89.7626267  18.4021525  97.6793450  88.3044587  18.4934287
  49.7953653  60.9391689  59.1324520  49.8402929  61.2588787  58.2313442
  49.6416712  61.7244148  59.6578121  47.5832319  73.2060766  31.4226985
  47.2557640  72.4537516  30.9297419  48.2800913  73.5667133  30.8744669
  44.5954370 102.4395180  63.8325405  45.4457855 102.0694256  64.0695381
  44.1796303 102.6405048  64.6709585  29.0360522  56.5420818  55.4230595
  29.1256428  57.4236965  55.0611734  28.1987095  56.5573931  55.8865833
  54.0037012  58.7342358  39.6455359  53.5964155  58.9436960  40.4860592
  54.2999125  57.8291321  39.7418594  38.1364489  49.7591782  82.5995922
  38.3824706  48.9356184  83.0208492  38.0944753  49.5479536  81.6669273
  50.3963470  56.4606857  60.6236219  50.4054976  55.6516552  61.1351109
  51.3107204  56.7432547  60.6059885  55.1941013  51.8183613  67.0591164
  54.2687750  51.8417978  66.8152714  55.6624413  51.8465042  66.2247896
  39.6442032  73.5079002  41.0154104  40.3442383  74.0362644  40.6319809
  40.0962019  72.8990459  41.5995550  51.5860033  59.3033934  65.3620243
  52.5050068  59.4256306  65.6002045  51.5880966  58.5417223  64.7823000
  16.1747634  56.2714767  87.2420120  15.4347456  56.6526890  86.7694855
  15.7904935  55.5613375  87.7560806  18.7160742  71.1589432  75.6368494
  19.3865490  70.5678225  75.2944040  18.0871308  71.2482119  74.9208260
  16.6119146  32.9674673  79.0321875  15.7686067  33.1061053  78.6010933
  16.9843626  32.2045517  78.5900640  96.2769813 102.0888577   7.7616744
  95.5896348 101.9332181   7.1139388  96.0060519 101.5795384   8.5255007
  16.0531652  81.4309883  23.5604215  15.6411064  81.8116570  22.7848363
  15.5294752  81.7549419  24.2932487  41.9104671  67.4486828  61.2989616
  42.6955462  67.7156162  61.7771149  41.5785456  68.2588959  60.9121656
  36.8902707  81.2395287  30.5969024  37.4131656  80.4590034  30.4135895
  36.0102057  81.0145664  30.2950597  24.0011764  67.0157576  60.4362297
  24.6759343  67.6880121  60.3413534  24.3125701  66.4633751  61.1532688
  19.2822289  55.8883905  36.3708949  19.4491708  55.4235220  35.5509806
  18.8951731  56.7208004  36.0997510  46.9514751  67.7034473  68.8319588
  47.7392292  67.3383093  69.2348862  47.2573996  68.4867477  68.3747005
  31.1789823  56.1106586  94.7364235  31.4514232  55.8241272  95.6081486
  31.7867041  55.6736183  94.1398430  44.6773672  60.2270174  75.8039284
  44.0345287  60.7954454  75.3797960  44.8913622  59.5708370  75.1407051
  71.1052227  76.6708326  24.3453598  71.7232466  77.2798300  23.9411283
  71.3944483  76.6049433  25.2554345 101.9790667 103.7810002   6.0177855
 101.5671271 104.2906056   6.7155318 101.8406791 102.8690491   6.2735705
 110.1636666  69.6096659  68.9813757 109.7110164  70.2708817  69.5049572
 109.5261919  69.3546724  68.3144188  37.3952174  71.4932060  65.5021286
  37.9593325  72.2567177  65.3794432  36.7871523  71.7533827  66.1940765
  59.1534805  64.1899347  51.9471836  58.4027815  63.6373043  51.7297411
  58.8775396  64.6731997  52.7259922  43.2697916  77.9102135  71.3664961
  42.6684856  77.6377296  70.6733799  44.1242027  77.9572248  70.9375429
  17.8460085  72.5222969  56.4110279  17.6475632  72.7148962  57.3274088
  17.8673446  71.5663767  56.3663769  61.2479115  51.5423393  42.0911789
  62.0448446  51.8729019  41.6766214  60.8393669  52.3173332  42.4768019
  31.6980720  58.2343054  57.0988560  31.1652851  58.5129213  56.3540459
  32.5814652  58.5364532  56.8877745  65.4791212  68.3647442  47.2826433
  65.5401897  67.8486586  46.4788055  64.5473051  68.5666275  47.3674440
  78.7790012  58.5863733  38.0601192  78.1771564  57.9138947  37.7410698
  79.3023968  58.8222599  37.2941899  40.5264759  75.2069950  59.9563551
  40.1917744  74.4706774  59.4444609  39.9971199  75.9536982  59.6762705
  39.6257997  50.4093742  66.3208437  38.8617158  50.3575420  65.7466316
  39.2589188  50.4684925  67.2029638  43.9264774  86.9308472  64.6042013
  43.2059002  87.5109863  64.3583727  44.5607376  87.0221519  63.8931370
  19.1694069  70.9420586  93.1026554  19.4217181  70.8527756  94.0216732
  18.6627507  71.7535639  93.0711269  29.4077253  77.4269009  79.1964674
  28.7937164  77.9523468  79.7094297  29.0739942  77.4751616  78.3006287
  51.2136936  61.2748289  67.1417046  51.0237265  60.5103683  66.5978861
  51.2141085  60.9373999  68.0374622  29.1177106  59.4689941  59.8527384
  28.8134432  59.8939800  60.6546402  28.8895535  60.0830746  59.1548300
  55.5985785  65.0189114  32.4167609  56.4937878  65.1296377  32.7370334
  55.2519178  64.2847109  32.9237199  87.0093555  10.8530521   5.9343771
  86.4901460  10.0824403   6.1641745  87.9025179  10.5213451   5.8423762
  43.2025146  51.5249634  60.1991272  43.9365673  51.1129093  60.6547737
  43.2309580  51.1559010  59.3163967  37.3960638  51.1292315  49.0439939
  36.9633508  50.3300953  49.3446159  37.5955915  51.6102171  49.8471594
  56.7724419  52.4898100  38.7761641  57.3275614  51.7104006  38.7517381
  56.2475872  52.3852634  39.5697832  28.0262685  55.2008057  67.4439144
  27.7641869  54.5765638  68.1205750  28.9830065  55.1714182  67.4485540
  41.3845491  57.1035194  46.3203955  42.0389271  57.2486877  47.0037365
  41.0564947  57.9785395  46.1131573  51.7886972  60.4539537  70.0394869
  51.8498993  61.3941574  70.2083302  51.0151958  60.1727009  70.5281830
  39.4386578  67.4717331  32.7832651  39.7073793  67.5775671  33.6958528
  39.9673820  66.7417765  32.4610090   0.2311894  71.7468739  44.5567942
  -0.4343156  71.3101721  45.0884199   0.9982692  71.1776209  44.6181917
  45.4722643  65.7633495  77.6346970  44.5565224  65.4960537  77.5559950
  45.9468508  64.9477863  77.7955055   8.0450970  92.5782681  35.8768344
   8.9026070  92.9987335  35.9409666   8.0515265  92.1505070  35.0205564
  18.1577456  44.7239923  29.4686723  18.1629264  44.7165394  30.4258299
  17.3583698  45.1968908  29.2371583  19.2836809  47.9869699  41.6196966
  19.0809274  47.8532124  40.6938314  19.4260943  47.1050787  41.9635296
   7.1870798  60.2082586  20.3810596   7.1350938  60.9959078  20.9224844
   7.3897934  59.5058489  20.9989262  29.0914845  66.7334938  49.2560244
  28.4288096  67.2387218  49.7270203  29.3768191  67.3127127  48.5493994
  61.0831165  62.4867439  50.8980894  60.9733105  62.9723787  50.0805759
  60.6154490  63.0077505  51.5508366  78.5605478  87.5575352  25.0233126
  78.5769415  88.4354877  24.6423149  79.1496563  87.0451069  24.4695902
  26.8137074  71.2824011  74.0798378  27.6839161  70.9183073  73.9173317
  26.8663430  72.1819735  73.7569952  59.3233156  55.1151943  83.1186199
  59.3589449  54.2014837  83.4016228  58.5946321  55.1456833  82.4986839
  57.0091820  62.9117632  44.7838068  56.9627619  63.8147879  44.4697571
  57.9447699  62.7098083  44.7948456  53.1034136  73.0770826  40.6627560
  52.7131987  72.5774336  41.3799143  52.5520420  72.8797722  39.9055982
  86.2623757 105.2568303   4.8625998  86.3906115 106.1994611   4.9685912
  87.0532769 104.9563609   4.4149069  40.6062460  61.7789078  47.2498703
  41.3601017  62.3204899  47.0161533  39.9110413  62.4073601  47.4447155
  53.6199331  93.9126968  81.9409752  52.9168844  93.3219433  82.2111130
  53.8289881  93.6430454  81.0466576  34.8035455  66.0970497  45.5709076
  34.1508222  65.4000092  45.5052137  34.2945409  66.9065905  45.5285454
  94.8098588  27.9144811   2.1826796  95.3512585  28.3737230   2.8247122
  93.9145959  28.1841802   2.3876051  66.0346383 101.4599238   1.8396334
  65.1467318 101.1059056   1.8898444  66.1064691 101.8009101   0.9481101
   5.5935836  77.8337288  64.0894032   5.2583867  76.9552326  64.2686129
   5.5668247  77.9103470  63.1356525   4.3712398  57.4298334  78.9297962
   5.2060181  57.0019817  79.1203737   3.7703633  57.0882750  79.5920038
  41.1910105  49.4953680  69.8512697  40.2397537  49.4642544  69.7493935
  41.3262701  49.8462200  70.7315207  70.1890182  66.2548447  16.5338492
  69.3429852  66.2276363  16.9807482  70.2818298  65.3857374  16.1436319
  37.7249861  69.2886496  90.8660030  38.0468202  68.4833050  91.2710667
  38.3066607  69.4300985  90.1190948  60.4005432  90.2859211  26.8975449
  59.7133780  90.3407097  27.5616479  60.9300184  89.5337105  27.1622396
  33.6692095  60.0420427  34.6325731  33.8506532  60.6057930  33.8805747
  32.7661967  59.7524357  34.5024538  41.2180996  59.3151712  10.3007650
  42.0476055  59.7330475  10.0694060  40.7601786  59.9684095  10.8297491
  74.1599941  58.1600189  74.0130806  73.8467455  58.0738735  74.9134636
  74.8327875  58.8394308  74.0575266  66.0895538  56.2614965  91.1459351
  66.8850851  56.5437412  91.5972614  66.3327217  56.2440014  90.2202988
  39.8424459  63.3350229  69.2860746  40.5145597  63.9088440  69.6538019
  40.2400255  62.4643373  69.2946100  19.7861338  49.6054125  50.0696182
  19.1904759  48.8568401  50.1022625  19.3382514  50.2438688  49.5146370
  12.2882080  54.4439077  67.1030331  11.5782368  53.9942455  67.5612593
  13.0450416  53.8677025  67.2098970  56.9148016  57.4781704  69.4908762
  57.7375698  57.0328140  69.6932220  57.1257544  58.0458975  68.7496519
  39.0847349  60.4683065  79.5072889  38.1619763  60.2437067  79.6268845
  39.5542669  59.8688507  80.0873089  12.0369577  54.8010683  18.0576861
  11.7238057  53.9350605  17.7965355  11.2396514  55.3042269  18.2231176
  49.9774265  54.3358231  57.7761173  50.7780266  54.4252300  58.2931089
  50.0755310  53.4968662  57.3258305  51.5635633  78.8876867  49.2570448
  51.8628168  79.3423080  48.4696436  51.7305279  77.9624271  49.0774441
  31.7243338  60.7080030  61.2170458  31.5160823  60.0240040  60.5806398
  30.8839846  60.9219170  61.6223621  39.4943166  51.6816711  73.8390255
  38.6168051  51.9452429  73.5620117  39.3440437  51.0601950  74.5513535
  47.0457888  62.4576807  28.5898614  47.3646975  63.3215857  28.8510108
  46.6733074  62.5931835  27.7185822  46.1809969  58.2477522  16.9153154
  46.6671038  57.4349213  17.0540106  46.8124580  58.9405155  17.1091294
  54.0084028  53.5361576  63.7172747  54.1636086  53.7661314  62.8011656
  54.8651457  53.2609606  64.0435982  36.5562987  40.1222324  27.8874469
  35.8797097  40.5961132  27.4038172  36.3996196  40.3500032  28.8038564
  57.6543474  50.3271818  74.2455101  58.0838537  50.4224539  75.0956154
  58.2091665  49.7133064  73.7643051  33.6539626  75.1129818  30.2853560
  32.9861712  74.5551777  29.8864293  34.0707421  75.5543232  29.5452595
  32.5042248  51.8882465  18.5823238  31.7604947  52.2049856  19.0949392
  32.3203969  50.9593534  18.4423304  60.1291418  57.7603626  74.8365259
  60.2708578  58.3449364  75.5811214  59.7666311  56.9633675  75.2233315
  74.0097183 106.3405286   5.9190039  74.0050906 106.7362653   5.0474505
  73.7353796 105.4352675   5.7724623  47.3262978  74.0299892  45.8540058
  47.8449249  73.2595301  46.0856247  46.5176439  73.6728525  45.4869032
  30.0690389  70.2707291  64.4651365  30.0090957  71.0102320  63.8603401
  29.7357917  69.5252419  63.9657068  26.9323397  51.6193867  84.7991943
  26.7731333  51.9896030  85.6674290  27.3755217  50.7884836  84.9707031
  51.2811852  69.0072012  72.9459333  51.8396616  69.7683239  72.7877092
  50.5287027  69.3572712  73.4228516  30.1469874  37.3714375  90.3976250
  30.5663824  37.0740843  89.5902061  29.2591453  37.6111698  90.1321125
  40.5124998  61.0606289  51.3964510  41.1635256  61.3907909  50.7772684
  40.5135584  61.7000294  52.1087694  37.8488445  65.4164124  42.4581480
  38.0667830  65.2551794  41.5401411  38.6903548  65.6012154  42.8752041
 113.0661332  27.4421763  74.3870831 113.4382432  27.0228076  73.6112642
 113.7742009  27.4259353  75.0309849  58.7518883  65.5063772  54.4049168
  59.5341587  65.5758715  54.9521446  58.6623955  66.3709974  54.0040970
  61.1654329  40.2627802  31.9227624  61.3128901  40.3805113  30.9843445
  60.7401037  41.0735655  32.2019553  35.7063675  72.3639584  67.6157665
  35.1574159  71.5897799  67.7404118  36.3436699  72.3229933  68.3287859
  51.2995911  46.3473511  85.1486301  51.4772844  45.8901596  84.3266582
  52.1473789  46.3817644  85.5916786  56.7808437  90.7527637  87.6661301
  57.3762989  90.0930405  87.3105526  57.2098160  91.5879154  87.4797535
 110.6503790  70.1821423  46.1380005 110.0241160  69.6969271  46.6752100
 110.8120882  70.9883785  46.6279650  40.5485010  57.5945616  78.6351776
  41.5037584  57.5503922  78.5932159  40.3030968  58.1677198  77.9088879
  29.8723817  94.0030479  53.4918642  29.5989418  94.7081280  54.0786457
  30.5806065  94.3843651  52.9729795  20.8262968  86.1570740  41.2328863
  20.4881310  86.7838287  41.8724585  20.3416777  85.3505325  41.4085674
  68.4575939  73.0242538  18.6886895  68.5241413  73.8430166  19.1800463
  69.1948843  72.4983358  18.9986038  47.8179693  93.1968975  44.7429752
  47.5682306  92.8649235  45.6053305  48.6209202  93.6934757  44.9008179
  79.2332125  46.2923479  27.5405812  78.7317181  46.1339140  28.3403540
  78.7141180  46.9338083  27.0555019  56.0049772  60.9335709  49.1837358
  55.4145956  61.1016130  48.4492636  56.8750191  61.1440420  48.8446808
  46.4867258  81.9153023  55.6803703  46.1234379  81.4806461  54.9087954
  47.4349022  81.8658733  55.5589151  45.9681606  53.7736464  36.7523623
  45.0968361  53.5064125  37.0449519  46.5552473  53.4801769  37.4490929
  67.2983789  92.0188522  23.8329196  68.0406809  91.7526245  23.2903910
  66.7814445  91.2203979  23.9400434   1.7852113  50.7329082  65.1787901
   1.5307908  51.5191317  65.6618595   2.3531920  50.2541828  65.7824898
  23.3560729  44.3202639  69.5637894  22.5711751  44.2378092  69.0221548
  23.2727432  45.1796579  69.9769878  39.8327422  87.1556377  51.7058945
  40.4153395  86.6682053  52.2883177  40.1184654  88.0655098  51.7879343
  64.7248507  65.0583601  25.1952529  64.0988255  65.6749916  24.8156500
  64.2192411  64.5759296  25.8493567  50.1598549  96.1309910  51.8317366
  50.7574654  95.4418182  51.5416765  49.4011784  96.0489845  51.2538815
  86.7521495  11.8412245  48.2863045  86.5110701  10.9242667  48.4178638
  87.2783774  11.8381823  47.4867392  52.8894043  36.8504143  25.1683784
  53.3730841  36.2151122  25.6962752  51.9698954  36.6828203  25.3748870
  35.0500345  57.3326302  80.7026196  35.0448227  56.5329027  81.2285900
  34.4271827  57.1591520  79.9967909  26.2958622  91.5926266  68.7435198
  26.3936901  92.5132847  68.9864969  27.0811009  91.3948727  68.2330990
  62.7129030  68.5431623  47.5502300  62.6555490  69.3632126  48.0405998
  62.3625040  68.7562704  46.6853380  66.3399315  99.1170216  26.5473509
  66.9459105  99.4977570  25.9116960  65.4877758  99.1447639  26.1122680
  77.9914379  44.4300413   1.1528914  78.0283070  43.8867331   1.9400942
  77.4082899  45.1520109   1.3872559   9.1785789  80.2914715  31.3822675
   8.4182608  79.8146200  31.0494590   9.5736653  79.6971178  32.0201397
  24.1786122  77.5584030  53.6786222  23.8626266  77.5778723  54.5819521
  24.1082525  76.6394854  53.4200239  60.4356337  69.0002584  25.6103468
  60.6605721  69.5905352  24.8911738  59.6667767  68.5236263  25.2974463
  57.1549320  61.7487383  36.9179821  56.2336206  61.9501162  36.7540789
  57.4818707  62.5039387  37.4068737  50.9629679 102.7097797  49.7190237
  50.0858259 103.0894661  49.7709227  50.8668232 101.8330193  50.0908804
  22.0379043  79.1591978  62.3471975  22.2227168  78.2219458  62.4074984
  21.1063051  79.2062902  62.1324062  34.9933529  86.5633011  39.3763518
  34.5834708  85.6991768  39.3372583  35.2940774  86.7264080  38.4823775
  66.7392588  60.9719944  44.5825148  67.3459101  60.5400372  45.1838589
  67.2962141  61.3060331  43.8793421  36.9465804  69.5428276  63.5809183
  36.8933201  70.2460623  64.2281055  37.3555112  69.9504089  62.8174496
  62.3749208  88.8231945  22.5677299  62.6554537  89.7198868  22.3847795
  62.9424143  88.2786655  22.0221376  32.9623866  48.3670425  64.6259022
  33.1848145  48.7301254  63.7686253  32.6811838  47.4709845  64.4408655
  35.8863139  83.2518291  48.8280201  36.2427664  83.2119274  47.9405642
  36.6125798  82.9821301  49.3901920  49.1584253  91.8075657  41.8626022
  49.5057058  91.8305302  42.7542877  48.5141230  91.0997868  41.8746519
  49.3782377  77.8207445  82.1448803  50.2001190  77.3503113  82.2842789
  49.3453217  78.4611607  82.8555202  58.8356590  87.7936840  42.8810406
  58.5286999  87.1549416  43.5244846  58.0761909  87.9530811  42.3206568
  45.4974651  76.4420509  45.0299406  45.9118748  76.8475485  44.2683172
  45.9128618  75.5824804  45.0993299  66.3858080  73.2146263  52.6378918
  65.5532837  73.5752058  52.9430485  66.8239164  73.9511728  52.2115183
  68.2964420  66.4431381  34.4062567  67.7939177  66.6198826  35.2015328
  67.6427841  66.4335966  33.7070632  53.6589289  66.3403511  89.5169163
  53.1266260  65.5996561  89.2266369  53.6595535  66.2751675  90.4718876
  50.1883125  94.4175053  45.2497005  50.9122038  94.6267223  45.8399868
  50.2447462  95.0770950  44.5583296  55.2639389  86.8900585  24.0770030
  55.6298256  87.7744865  24.0890193  55.9150600  86.3678360  23.6084294
  57.2854233 108.4758377  73.9755774  57.4450588 109.3741894  73.6862707
  57.0967913 107.9946899  73.1698799  64.1695213  67.3132086  61.7957354
  64.1885519  67.3007059  62.7526665  63.4104252  67.8542614  61.5783215
  40.9793854  64.9443531  72.8907537  41.1248446  65.8852196  72.9899836
  40.7998276  64.6348095  73.7785482  70.6209373  63.4733629  36.1259604
  71.3655043  63.2225561  36.6727185  70.3004265  64.2865467  36.5161371
  59.6772957  59.1254330  49.6922064  58.7370157  58.9483261  49.6650553
  59.9383450  58.8971853  50.5843878  47.3106623  68.2033539  37.9240918
  47.6881552  68.5909653  37.1344805  46.4758682  67.8351831  37.6346087
  40.6197166  62.7163744  53.5796070  40.4114866  63.5719442  53.2042837
  40.1320171  62.6908541  54.4028521  52.7438593  89.3838310  68.6301136
  53.4563875  89.3335533  67.9929209  52.9753017  90.1247120  69.1902590
  43.3733892 105.7366943  40.3958559  43.9859676 105.1010513  40.7659054
  42.7676535 105.2100372  39.8743796  60.0073051  92.5259876  84.6811867
  60.9246397  92.7923584  84.7425938  60.0289822  91.7034245  84.1921425
  93.0773848  10.8171404  63.0285215  93.7210959  10.1480044  63.2611704
  92.8481358  11.2288989  63.8616657  78.7442255 103.5106373  57.1292114
  79.5136070 103.3663845  56.5783262  78.6687803 102.7107239  57.6494789
  23.0869830   4.4545020  70.3090000  22.8378261   3.8846816  71.0366392
  23.8526881   4.0291346  69.9230099 106.8001908  31.7484320  40.3163385
 107.0010871  30.9933794  40.8693075 106.0228080  31.4846934  39.8240495
  88.2586193  89.6975994  64.2641735  87.5680637  89.0388489  64.1905451
  88.2969952  89.9009323  65.1987410  19.6219570  71.3028096   3.1894545
  19.5900137  71.1054754   4.1255431  18.8548357  70.8610963   2.8252463
  40.2462339  83.8335896  83.7191200  39.8851800  84.6918297  83.4970856
  40.3257322  83.3824635  82.8786373 108.5056228   0.3927554  70.7172251
 108.0329293   0.7949484  71.4459467 108.0349082  -0.4232751  70.5476618
  26.7141784  25.0692595  48.1790543  27.4604190  25.2753676  47.6161385
  27.0605052  25.1337756  49.0690708  19.7582496  41.0836638  82.8278542
  20.1906455  41.0047377  81.9775391  19.3696082  40.2222098  82.9798031
   1.6825259  17.5662745  47.2017574   2.5906623  17.7150000  47.4651909
   1.7369283  16.8918551  46.5246820 116.4006519  92.6662731  59.4118404
 117.3097801  92.5781345  59.1255617 115.9243202  92.0112324  58.9016771
   2.3625893  97.6388359  37.8885961   1.4208359  97.5254822  37.7602267
   2.5602478  98.4816837  37.4802160   3.2281078   2.3239649  44.1422510
   3.9887107   2.1255339  44.6884537   2.4778808   2.2091902  44.7255278
  65.6078529  88.0902100  31.2483478  66.4641953  87.6989269  31.4210033
  65.1118755  87.3978615  30.8114362  80.6147003 100.8317661  82.1744156
  81.3957882 100.4891109  81.7399979  80.3306389 100.1224136  82.7509308
  84.6967030 101.1271572  83.1259251  84.0604496 101.8336678  83.0152893
  85.0386238 100.9726810  82.2453213 114.3063134  20.3793753  50.4392052
 115.1251143  19.8961485  50.3283501 113.6299914  19.7803629  50.1229668
 110.0643319  28.1895102  72.7057362 109.3940562  27.5252474  72.8661060
 110.8359307  27.8687800  73.1726456  19.4418205  19.5450247  43.4408426
  18.7166274  18.9477671  43.6241961  19.1563094  20.3855074  43.7990284
  17.4324954   1.3774241  72.0941830  17.3193897   0.4273833  72.1236038
  17.8316081   1.5447844  71.2404060   6.3210738  21.0097350  77.7019453
   7.0186580  20.6717623  78.2635355   5.6914581  21.3979949  78.3094501
  24.7545207  18.8262595  89.2669201  24.3090881  18.6887587  88.4309101
  24.3568576  18.1871069  89.8581696  77.8368139  90.4009724  27.7974129
  77.2187710  90.6029987  28.4998655  78.6860371  90.3421688  28.2351303
  97.8036880  89.1650295  37.7066326  98.2765007  89.7581673  37.1227908
  97.1501446  89.7193050  38.1331372  24.3494857   2.5237597  87.3061085
  23.5146106   2.8246821  87.6648045  24.3085540   2.7545393  86.3780499
  87.7658558  93.6882687  58.7790871  87.1124077  92.9965973  58.8832045
  88.4530354  93.4650230  59.4069147 110.5672378  22.2365988  52.8506422
 109.8778266  22.0343722  52.2181463 110.3769511  23.1306590  53.1346750
   9.3248332  18.2155837  47.6020432   8.8380492  18.0001391  46.8065214
  10.2201045  17.9301299  47.4197149 102.4999255  13.3302535  82.9694557
 102.3288316  12.4456442  82.6462936 103.4231013  13.4841860  82.7687454
 105.8087367   0.4944457  40.6728077 105.2960414   1.0537852  41.2563467
 106.5731162   1.0234297  40.4444742  91.1519879  13.2854689  92.4324989
  90.8865374  13.9793719  91.8289471  91.8571967  13.6746634  92.9496479
  82.5384426 103.4840679  16.7507458  81.8769836 104.0777588  17.1060324
  82.5574303 103.6796761  15.8139372   4.4923938  11.6067732  70.2963018
   5.0870860  10.8580149  70.2523422   4.6184028  11.9613780  71.1764193
  14.4271243   6.4417399  73.1627464  14.1826499   7.2630538  73.5892439
  13.8878501   5.7784403  73.5934067 108.6164570 110.0469971  12.2654808
 109.3358517 109.5841885  12.6950288 108.5152817 110.8538151  12.7704930
  77.2911644 101.7073250  28.1366110  77.8419781 102.3505974  27.6904702
  76.8073225 102.2163296  28.7870288 107.6329631  24.4390429  62.7260733
 106.9297332  23.7896670  62.7254772 107.2060460  25.2546442  62.4638176
  74.6031570  99.6696377  63.8572598  75.4948854  99.9634075  63.6708307
  74.5390463  98.8142586  63.4324789 108.5644502  30.6392039  48.3931398
 107.9775638  31.1360110  47.8230619 108.0141896  29.9459589  48.7576342
  95.7333297  13.3641566  52.2004747  95.9256381  12.6398886  52.7960300
  96.5004128  13.9335669  52.2603035  21.4029468   2.5347174  66.3135767
  22.2846378   2.8985156  66.2328959  21.1177982   2.7901591  67.1908855
  75.4530621  96.8720245  52.5007486  75.4757071  96.5251350  53.3925962
  75.7395601  96.1416721  51.9523430  16.0415328   8.0357874  10.1508653
  15.1267493   8.2645644   9.9863595  16.4233459   7.9335440   9.2790896
   0.1718629  14.1016329  62.8651810   0.1228345  13.5269106  62.1012926
   0.9326089  13.7867392  63.3533859  97.2351170  99.8472500  33.3954859
  97.2585678  99.0322685  33.8969636  97.3657417 100.5344009  34.0489364
 107.2723579 109.8749733  89.6702003 106.9267368 110.6452370  89.2191219
 106.5139198 109.4983864  90.1164913  52.8663397  97.3883152  48.2299232
  52.9988003  97.8241444  49.0717840  52.6374960  98.0959034  47.6272821
  56.2771636   1.7012824  52.8117943  55.8063930   1.1413229  52.1945095
  55.9409243   1.4462794  53.6709499  61.5296888  99.3555450  45.1281023
  61.6767502 100.2378178  44.7872066  60.7018185  99.4177723  45.6045341
  79.5183039 100.0041580  57.1533203  79.3407202  99.1094112  56.8632698
  79.7635269 100.4707336  56.3543177 111.3760013   5.8274783  47.1375751
 110.6475467   6.4408053  47.2345734 111.0671872   5.0214613  47.5513554
 106.9064999  89.4697762  55.4433155 106.8190765  88.5729408  55.7662249
 107.2211361  89.3711853  54.5446968  95.9474152   4.3712939  54.1421366
  96.3516826   4.8269213  54.8805094  96.5678185   3.6768950  53.9204550
   7.9555381   2.9515494  51.1160851   7.6591075   2.0943583  50.8101654
   7.6631511   3.5617484  50.4390335  87.3630810  98.0764008  45.9040785
  86.8731689  97.9240799  46.7121744  86.7249489  97.9297066  45.2058601
  64.0107012  86.1137867  38.5656524  63.6828709  85.3921413  39.1023064
  63.4686184  86.0912991  37.7770662  99.3336886   7.2532786  23.7176132
  98.5511846   6.7020930  23.7074828  99.9826211   6.7571295  23.2186651
 103.9339465  38.8164271  62.3425388 103.4463042  38.2925929  62.9781723
 103.5579032  38.5764826  61.4956331   6.9986976  19.8153819  63.6463690
   7.1267379  20.2353228  64.4969463   6.5969814  18.9716948  63.8538456
  98.0040139  12.7134551  41.3141632  98.8661641  13.1090678  41.1860371
  97.5589150  12.8322161  40.4751062  96.7190617  19.6977652  60.9906864
  96.8069953  19.1604651  61.7779636  97.6146144  19.9616850  60.7795715
  81.2184048 108.5976791  66.0768557  81.6552353 108.7006283  66.9223166
  81.9105434 108.3057213  65.4836178  52.7923471  55.4547776  90.2178009
  52.1773797  55.5666055  90.9427427  52.4740678  56.0506334  89.5396443
  91.3845634 102.2113609  61.0091877  91.8939972 102.9164124  60.6096649
  91.3774204 102.4206257  61.9432068  79.6141291  99.0839958  28.1943583
  79.0821266  98.8659763  28.9596486  80.5121517  98.8919067  28.4643388
  54.9504072  75.9360551   8.6026530  54.4797594  75.1119184   8.4780173
  54.4340689  76.5820073   8.1206088  52.6717854 109.4560623  63.0839491
  53.5612726 109.7802830  62.9428148  52.2228241 110.1745510  63.5294056
  60.9194183 105.5401325  59.5607042  61.4473009 106.2112141  59.9934101
  60.3318691 106.0310841  58.9862585  85.2334595 108.3241177  55.8646250
  85.8441257 108.0033875  55.2009678  85.3037262 109.2774010  55.8140278
  -0.3098922 105.7596684  70.3477335  -0.0811916 106.3697147  71.0489941
   0.4619927 105.7449627  69.7818613  81.7068672  95.6854534  63.5644341
  81.8700218  96.5154934  64.0123749  81.8995285  95.8677197  62.6447105
  86.4951801  97.8457737  33.0259085  86.2164116  98.7614155  33.0144811
  87.3636246  97.8547764  32.6234841 113.1452722  20.1731337  64.2811203
 112.6898831  20.7761992  63.6936140 112.5334996  20.0355662  65.0043344
 101.0111970   0.4275931  84.4831944 101.1006278   0.6397189  85.4123020
 101.2047976   1.2484015  84.0304089 103.9130515  20.9820593  28.1041074
 103.2221860  20.5434264  28.6006331 103.9976806  20.4647864  27.3031712
  77.2020578 108.5851955  28.9041281  78.1031847 108.4876442  28.5964155
  76.6741467 108.1316757  28.2469726 112.0886821  21.9912756  62.3117733
 111.6411370  22.6420821  62.8525019 111.3923186  21.5957297  61.7875051
   3.1590713   1.0140456  28.7370586   2.9219688   0.5320300  27.9447961
   4.0424979   1.3394202  28.5640931  81.2852383 100.6944466  49.5153427
  81.2595463 101.4616203  48.9434767  81.6818905 100.0085545  48.9782763
  68.7791824  95.0251579  84.0008163  68.8950586  95.6450748  83.2807446
  68.1491518  95.4495716  84.5831966   2.6002563   9.5846213  22.5101471
   2.1714843  10.4236163  22.3413968   3.1323684   9.7402419  23.2904506
 110.4248810 107.5659466  37.7527738 109.7234917 106.9228935  37.8565192
 110.8777905 107.2994041  36.9527411 107.7958888  27.6538123  61.9251394
 107.7869910  27.6341284  60.9681797 108.6148471  27.2207678  62.1660042
  14.0838874   7.9756392  25.2811980  13.2852615   7.7954329  25.7771373
  13.9002765   7.6433409  24.4025064  90.9648514 104.7141171  48.2360172
  91.5845108 104.0300751  48.4896564  91.3105011 105.5112934  48.6375952
  97.3913193 105.2441025  42.6856470  98.1807327 104.9430561  43.1355619
  96.7049408 104.6452141  42.9796600  34.7284872  31.0957002  16.0932879
  34.2237026  31.3595723  15.3240160  35.2714522  31.8574094  16.2963156
  66.8885231 109.6092129  71.3521147  65.9991407 109.3477917  71.5906239
  67.3508930 109.6754360  72.1876144   1.1089814  15.3070200  41.8311596
   1.3837064  15.9318388  42.5022554   0.2994168  15.6756819  41.4777088
 107.0126265  38.1952704  67.7644539 107.1268147  37.2452391  67.7393770
 106.8161982  38.4368647  66.8593121  36.1073589 107.8563118  81.3288403
  35.8933687 107.4705887  82.1783447  36.8345714 108.4510899  81.5122128
 101.1597985  11.6690386  53.3805037 100.4550904  11.0877074  53.0947256
 101.3778657  11.3658083  54.2618275  97.0294571 101.9150734  73.0330610
  96.8667316 101.1732674  72.4504089  96.5216923 102.6328087  72.6545572
 115.9995431   5.8185328  54.2039347 115.2773351   5.4691733  54.7260427
 116.5615481   5.0620974  54.0360641  98.3725137  26.9830454  76.8989611
  99.1391343  27.4086512  77.2828627  97.6265735  27.4606837  77.2618198
  98.6256695  93.4683132  86.5493870  98.7845421  93.6883831  87.4672985
  97.9143524  92.8283596  86.5761662  88.6395073  97.6582050  84.1555023
  88.9164257  98.3396912  83.5430241  89.2450333  97.7381325  84.8925114
 102.2475451   5.4776228  92.0665646 102.2422475   4.5640315  92.3521328
 103.0400342   5.5580653  91.5357876  54.7010882  33.4425878   9.7210936
  54.3883783  33.8367032   8.9067797  54.3287069  33.9914274  10.4112677
   9.3621410   3.0708636  92.8378773   8.4570182   2.8117980  93.0106926
   9.6721900   2.4394930  92.1886730  94.9941349 100.0402832  57.1975851
  94.1101360 100.3378296  56.9825315  94.9369717  99.7602081  58.1111050
 101.4051151  84.1359615  55.4802132 102.2518730  83.9223957  55.8721685
 101.1722279  84.9831581  55.8600235   7.4421180   2.4415148  70.3640795
   7.6809276   1.7851866  71.0186338   7.6154006   3.2802332  70.7915926
  64.2315769  90.2540874  89.0090466  64.5329762  90.8288002  88.3054256
  64.4060278  90.7460213  89.8114109  90.6098366  86.5304089  80.6845379
  90.8744717  85.6989098  80.2910900  91.3546181  86.7855453  81.2289906
 102.5289267  23.4710921  36.2394929 101.6190833  23.3804930  35.9562922
 102.7873916  22.5874365  36.5013671 104.0829581  22.6172198  49.8930359
 104.2676848  23.4705866  50.2853012 103.2787246  22.3253478  50.3222799
  83.9313030 100.7993412  60.4471827  84.4282436 100.2455807  61.0493803
  84.4803238 100.8555317  59.6650982  96.1817759  16.6640128  37.2982860
  96.4065856  15.9234847  37.8615880  95.8146686  16.2629164  36.5105152
   0.8667529  21.6590060  50.0412273   1.7923129  21.8254221  49.8626995
   0.7075895  22.0753420  50.8883142  14.6613944  13.1959570  95.3259945
  15.5300201  13.5870589  95.4196739  14.5452369  13.0940283  94.3813610
  14.7936118   2.6727236  71.9202328  14.0034068   2.6359499  71.3812923
  15.5134547   2.5759257  71.2967825  81.3516331 101.0998058  88.8908863
  81.4221573 101.0605717  87.9370880  82.2519684 101.0049438  89.2017269
   2.5614131   5.2264346  79.8089409   1.6760505   5.0845660  79.4739056
   2.8793109   4.3496550  80.0244045  92.9698914  13.8101042  61.3226414
  92.6562089  13.9091338  62.2215462  92.5550145  13.0055750  61.0114527
  85.8162564  17.4832667  31.4097404  85.0335568  17.1146239  31.8192816
  86.5448636  17.0333041  31.8373990  80.5254269  87.7596760  74.7700262
  79.7104979  88.2571220  74.8383236  81.1440849  88.3678341  74.3655014
  86.2989807 107.8024197  45.2049732  86.9267178 107.1215153  45.4469442
  85.6673241 107.3563004  44.6408558  77.5716209  99.1301441  81.2788582
  78.2738113  98.8777065  81.8783855  77.3447466  98.3205700  80.8213139
  72.9879045 108.5316086  23.4700727  73.8983440 108.8004017  23.3472919
  72.9162169 107.7041435  22.9942560  18.3569205   8.2778586  60.4615688
  17.8622497   7.5022543  60.7260704  17.7422298   9.0032233  60.5722189
   6.6503776   0.4573668  50.9211683   6.8253864  -0.3609144  51.3859463
   6.1581767   0.1911677  50.1445675  20.1622165   1.0657347  92.4411774
  19.6678508   1.8526114  92.2117138  20.0949348   0.5064333  91.6672993
  84.3189049 103.2494354  77.0191193  83.8651752 103.4637165  77.8342485
  83.7027645 102.6946926  76.5407228  64.4189304  18.5362090  55.3311300
  64.0054172  17.8400076  55.8415556  65.1029366  18.8803614  55.9055233
  84.5667267 108.1103325  51.9729519  84.0451717 107.3085403  51.9363976
  85.3243256 107.8789520  52.5102901   0.6446183  10.5735816  45.1111412
   1.1046565  11.3862647  44.9010658   1.3419927   9.9337996  45.2545977
   5.6553996  25.7728137  57.7829790   6.0953105  25.1427687  58.3537292
   6.0332645  26.6186656  58.0237818  51.3710654  15.2808321  25.8697224
  51.2991679  15.9053648  26.5915394  52.2619880  15.3976000  25.5398083
 100.9099960  80.7424259  50.3392267  99.9563408  80.6716061  50.2972698
 101.1213303  80.5883408  51.2600040  95.3199482  83.3001041  51.6472101
  95.6290054  82.4654961  51.2948799  94.7616577  83.0563736  52.3855400
   6.3966239   9.8356856  57.7975368   6.0173190  10.2591170  58.5676384
   5.6745303   9.3329657  57.4205923  85.0930786 103.1177521  71.1451149
  85.7785702 102.7395344  71.6958284  84.2883968 102.6883602  71.4355373
  86.2167931 101.9687271  64.7779083  86.9246960 102.2644234  65.3503370
  85.7175350 101.3520718  65.3133535  10.5724395  17.1243990  94.9172306
  11.2646354  17.2901190  95.5572510   9.9123347  17.7931059  95.0997829
  26.6897739  37.4299754  33.7811708  26.9790710  37.6069869  32.8860664
  25.7346595  37.4041308  33.7234998  94.2049026 104.5606041  61.3443804
  93.6669731 105.3032875  61.0699844  94.1437340 103.9394665  60.6186533
   3.0108703   6.5355528  39.0909100   2.0598853   6.5781725  38.9906502
   3.3478988   6.5707053  38.1956983  24.8827995   4.7603549  46.9560719
  24.1309512   4.2579688  46.6421080  24.4981635   5.4763545  47.4616766
  56.3840723  95.2118206  87.7948952  57.1415710  95.3796387  88.3554935
  56.0931158  94.3339920  88.0418777  88.7849998 108.8613987  47.0039511
  88.0375004 109.3616295  46.6764688  88.6653900 107.9849434  46.6382265
  76.2045640  15.8624018  36.9521499  75.8804196  16.1399306  37.8089690
  76.2914461  14.9119605  37.0253015  94.7762394  95.2048588  55.0866222
  94.7075272  96.1325264  55.3122997  95.2666283  95.1940060  54.2646599
  93.3593369  96.4734077  48.6359119  92.4525928  96.3304424  48.3646154
  93.3593369  97.3507595  49.0186405  73.2362223 103.8484669  63.3123016
  73.6695528 103.6997986  62.4718523  73.9370346 103.7724972  63.9598560
  86.6201115  91.1127377  59.4232988  86.7365646  90.1734161  59.2806911
  87.2291756  91.3249397  60.1305771  17.8039325  24.6819151  46.0702467
  18.1746925  25.2378405  46.7556047  18.0091823  25.1384772  45.2543688
 102.8895760 105.1030064  52.1874046 102.3694992 104.8484707  52.9496193
 102.3786736 104.7999573  51.4368248  11.4262260  35.5945052  62.8039408
  11.1961330  36.5126456  62.9464817  11.1301387  35.4089488  61.9128036
  19.2453349   5.7954348  40.0258923  18.5774196   6.1059607  39.4145894
  19.5714343   4.9856509  39.6332741  82.1025753  96.7123508  27.1881056
  82.5114822  97.4131489  27.6959538  82.3290825  96.9113827  26.2796402
  71.0606050 108.4035778  86.0708523  71.0218906 109.2564487  86.5036964
  71.4034653 107.8108788  86.7397213  97.1828747  85.2290249  32.0651460
  97.6535988  85.1231766  32.8918552  96.3796234  85.6913948  32.3043966
  77.2343683 110.0242901  56.3665915  76.3261223 110.0808907  56.6634417
  77.2187662 109.3657589  55.6721020  82.7768958  37.5934924  59.5204878
  83.6224998  38.0418051  59.5349932  82.9910529  36.6732253  59.6737623
  26.1022247  40.2033175  46.9178677  26.2903083  39.7299231  46.1074591
  26.8312133  40.8165015  47.0117569  13.4913123  46.5024413  29.5403814
  12.8709090  46.0812701  28.9454508  13.0204356  46.5667284  30.3712678
 116.1437720  31.2092722  67.7538633 116.5112561  30.4302920  67.3362780
 115.2843207  30.9293021  68.0688047 101.3192844 103.1801224  67.6607037
 101.1552715 102.4616432  68.2715368 102.2260761 103.0545044  67.3810959
  48.2271255   6.3217009  82.0449924  48.9890350   5.8706225  82.4086475
  47.4940646   5.7308806  82.2175694   6.4591277  11.9135416  52.4039936
   6.2642539  11.8908919  51.4671135   6.8445361  11.0571707  52.5892401
  14.9914402  87.9534245  34.4694734  15.9318203  87.7794647  34.5101118
  14.5893807  87.0862007  34.4194150 106.6701287  23.5090674  82.3433876
 107.6247376  23.4417284  82.3230743 106.4033050  22.9185999  83.0479431
  39.9814159  56.5314664  92.0630317  40.0062018  55.7282724  92.5831305
  40.8973723  56.7041101  91.8451978  15.6561816  47.2269858  43.5632801
  15.2925742  46.7351473  44.2995644  15.8599246  46.5603961  42.9072428
  13.1360496   7.8388346  44.8209667  13.9036906   7.6644362  44.2764139
  12.8381789   6.9728316  45.0994205  57.9183388 103.0448437  57.0475674
  57.5210333 102.3887539  57.6202154  58.8494921 102.8232098  57.0393181
 112.9017419   0.9397257  49.1097450 112.4614209   0.8561553  49.9555349
 112.7475947   0.1007212  48.6755276 103.2471657  99.4081593  18.3628643
 103.1584263 100.3404808  18.5606611 102.7756691  98.9674091  19.0697372
 112.6637858   8.7874163  48.9020300 112.4681920   8.3592547  49.7354841
 111.8336314   8.7748373  48.4256744  46.4449675  38.1244230   2.3349528
  46.4243776  38.5531377   3.1905226  47.3355276  38.2698106   2.0155673
  78.3715963  95.9260178  58.9116621  78.2943964  95.0347614  59.2521429
  78.2588196  95.8316803  57.9658175   0.6536020  16.3567484  57.0543098
   1.5343631  16.3421858  57.4288464   0.5365289  15.4820860  56.6834927
 108.0959481  38.7162341  48.8282013 108.3673829  39.2705000  49.5598698
 108.2929295  39.2353762  48.0485106   2.7880252  49.4984663  44.0075397
   1.9533456  49.4512118  43.5413647   3.4446014  49.2812670  43.3457518
 112.0267934  11.8506564  79.3789101 112.9676026  11.9335593  79.5346165
 111.9064826  12.1458090  78.4763336   5.3747237  16.6799487  57.0505619
   6.1506999  17.0289553  57.4890661   4.8743976  17.4552668  56.7960310
  20.5913890   5.9465731  48.3282995  20.7506908   5.0150050  48.4801054
  19.9116004   6.1794699  48.9606619  22.5107635   0.3885306  56.9956636
  21.7341102  -0.0135671  56.6066074  23.1761230   0.3375281  56.3094187
  69.4884379  95.8544397   2.3036627  69.6111281  95.2372979   3.0249934
  69.2010195  95.3111219   1.5698866  22.5849117  18.6882819  44.7718287
  21.9206298  18.8079489  44.0931129  23.1191695  19.4812144  44.7265291
  11.3521922   3.4094847  24.1141057  11.1146796   4.0954150  24.7380519
  11.4238609   3.8637103  23.2745957   3.6715949   7.0578230  44.3558931
   3.8136733   6.2127150  43.9294720   4.4039500   7.6000727  44.0628862
 114.0776223  10.8677233  75.1634026 114.9471015  10.6423415  75.4942131
 113.8473672  10.1431120  74.5818901  93.6730689  45.3611315  58.2663393
  93.5198897  45.4254664  59.2090082  93.8489598  46.2606371  57.9903221
 109.5569134  98.4764576  65.2160358 109.9263573  98.5138321  66.0982752
 109.9729919  99.2024231  64.7511816  20.6434501  14.9611605  87.3344231
  19.9552978  14.6438540  86.7496204  21.2815440  14.2482127  87.3624325
 108.7986565 105.2980995  51.7133284 108.7051010 104.3713951  51.9339991
 108.2442856 105.4178429  50.9422445  24.7615207   8.2943572  54.9519587
  24.0037406   7.7960623  55.2580643  24.5088256   8.6045493  54.0823841
  75.8280659 100.2489376  85.1469135  76.3009501 100.3523540  85.9727001
  75.9019995  99.3164730  84.9437237  86.7953968  92.1764755  79.1106510
  87.2415161  91.4561176  79.5559549  86.9719505  92.0296288  78.1814003
   2.2496093  12.4206103  57.3524809   3.1107677  12.7781046  57.5689077
   1.7067731  13.1903018  57.1817684  81.3178605   6.2520350  27.5159144
  80.4525107   6.1671484  27.1156716  81.7065925   5.3812636  27.4329400
   7.2236694  12.4924029  47.6501846   6.9172729  11.9796027  46.9022608
   7.0247901  13.3990897  47.4165392  98.4314919  79.0844679  44.7769785
  97.8387070  79.8359108  44.7899055  98.0062485  78.4342957  45.3361511
 103.2948399  99.3771267  25.5175257 102.5446224  99.6555042  26.0427976
 102.9258251  98.7707615  24.8753667  18.1419814   1.3969744  52.2730064
  17.3770869   0.9768427  52.6662636  18.5044921   0.7333315  51.6861439
  75.2114916 102.0429802  42.8692770  75.2476501 102.5535011  43.6781645
  76.1275625 101.8607140  42.6599407 113.5933656  14.2132605  30.6028771
 112.6821488  14.4492949  30.4290891 113.5401553  13.5240401  31.2649798
  65.7033539 105.4907703  54.9414158  64.7857904 105.3114128  55.1466751
  66.1341476 105.5416203  55.7946825 105.0786513  28.8352335  41.0970449
 105.3387851  28.1431235  41.7049503 104.6814984  28.3703459  40.3605795
  46.7728789  70.3427457   0.2781348  47.7063162  70.5331277   0.3712420
  46.4036734  70.5262231   1.1419920   7.9955829  18.3498896  71.4973164
   8.8488544  18.4344519  71.0718679   8.0855716  17.5840701  72.0644569
  53.4809303  94.9606800  38.5897851  53.6136198  95.8555508  38.9025712
  53.0033112  95.0630379  37.7665997  87.0251817   8.9312399  51.4223671
  86.3459653   9.2033614  50.8052397  87.5152272   8.2540930  50.9559393
  11.4491237  23.0370272  67.3906136  11.7955363  22.1685065  67.1859217
  12.0864547  23.4119357  67.9984665  15.4132522   3.2883204  45.6932020
  15.0246490   3.1176985  46.5511703  16.3191283   3.5311831  45.8845949
  13.5746444   3.2309187  31.3343239  13.0656303   3.9913405  31.6152048
  13.2431186   3.0308665  30.4589343  20.3619332 107.5247192  48.3776474
  21.3153881 107.5218201  48.2930803  20.0870079 106.6813469  48.0179644
  14.7516120  29.2622698  51.8865967  15.6236900  29.0750254  51.5392494
  14.7963775  30.1766623  52.1661139  27.1959174  25.4120863  50.9903145
  26.2984718  25.2498854  51.2810183  27.2869743  26.3646449  51.0142660
  59.2059994  92.4691105  13.0869138  59.7095203  91.7177391  12.7736354
  58.5642433  92.0929909  13.6893392 111.5679711  49.9694670  78.6571169
 112.0683927  50.7414282  78.9214993 110.8000010  50.3238333  78.2089186
 101.3470477  29.1751612  38.8186097 101.2153262  28.7968482  39.6879530
 100.8209819  29.9748267  38.8231754  77.4497700  91.2994385  77.0605755
  77.6769829  90.4656410  77.4721527  78.2002831  91.5034962  76.5026188
 107.1317643  10.4388941  81.8907070 106.7558545   9.9594439  82.6289845
 108.0651063  10.4989661  82.0944214  77.8369141 106.0163021  55.7119370
  78.2754469 105.2870369  56.1502123  78.3795929 106.7784595  55.9140348
  88.7490463 106.7564583  31.7912745  88.5762978 107.6751423  31.9972062
  89.4180679 106.4912319  32.4223852  89.5992756 108.0474377  78.7725878
  88.8297749 108.5880661  78.5941696  89.2949677 107.1486759  78.6466742
   5.8678497   8.9847029  90.8917809   5.4363406   8.7336482  91.7084885
   5.1542724   9.2731322  90.3227043  89.7435284  87.9286575  76.7812395
  89.4936562  88.3450985  75.9563971  89.9040604  87.0140839  76.5488100
 114.6430415  20.5982817  24.6868920 114.5083112  19.9767817  25.4023075
 114.0207786  21.3041247  24.8624277 105.0071812  96.5563202  71.7927027
 104.5581627  95.7927895  72.1555281 104.3510437  96.9791985  71.2387371
 109.2110223   8.5195864  74.0010071 109.0979833   7.5739134  74.0967607
 109.8949546   8.6131228  73.3378935   4.2792094  47.7039088  81.9595909
   3.7496436  47.0907534  82.4693203   3.6897910  48.4359301  81.7780209
 110.6545162  95.3975296  42.8563213 110.9993267  94.5459843  42.5876141
 109.9621582  95.5862904  42.2228765 100.8649224   5.0472678  49.3487167
 100.7903117   5.4618586  50.2082348 100.1189536   5.3861083  48.8537884
 106.9020385   2.7203692  62.9911470 106.4279384   1.8948019  63.0906916
 107.7906627   2.4586810  62.7501011  32.0680869   5.9288538  90.9765530
  32.4927390   5.0726641  91.0298634  31.3414443   5.7982863  90.3673172
  95.6071872   7.7819956  53.3389521  96.1798638   7.1894873  53.8259840
  96.1315745   8.0578173  52.5871706  90.1456547 104.7433186  28.5028648
  89.3669415 104.1893196  28.5569525  90.2494907 104.9199009  27.5678420
 112.4548835  14.4214953  51.0253954 112.8145379  14.8448122  50.2458572
 113.2032603  13.9766158  51.4231920  91.9570541 108.6943054  17.2934544
  92.3845768 107.9046059  16.9620585  92.5135994 109.4123936  16.9920754
  78.3167505  98.1099987  49.1030073  78.0961418  98.4967041  48.2556486
  78.5978556  97.2192287  48.8938665  12.2351897   9.7281588  46.5620756
  12.4859584   9.2324294  45.7825899  11.3337672  10.0016821  46.3922453
  92.0501393  20.6833304  63.6750507  92.1169108  19.7585524  63.4372330
  92.7535170  21.1082495  63.1841946  51.0515070 102.7205563  73.3528709
  50.6507397 101.9066334  73.0476856  51.9903946 102.5347328  73.3667517
  67.0048326  21.0339392  84.1748333  67.6741380  21.7151392  84.1098404
  67.2157854  20.5672778  84.9835110  71.9412947  95.2912617  76.2803030
  72.4064636  95.0694466  75.4736710  71.0221291  95.3471756  76.0190773
  20.5082000  26.7234171  29.7540331  21.1257137  26.5331019  29.0478563
  20.5194915  25.9375132  30.3003502   2.4276203 108.5912895   8.7955469
   2.9403824 109.2803955   8.3731228   1.6812367 109.0502262   9.1809297
  33.2066310  24.0269793  31.5059924  32.5163043  23.6652888  30.9502363
  32.7397598  24.5475710  32.1596336  97.6538086  91.1833477  30.8522129
  97.0271873  90.4630661  30.9213710  97.6421261  91.4228344  29.9255300
  95.5468559  70.5516720  30.0901055  95.8357143  69.8770189  30.7046294
  94.9353409  71.0886621  30.5940104  38.6424506  13.7885035  59.0980101
  38.2248271  12.9932059  58.7673664  38.2997001  14.4880236  58.5417461
   4.7028220  33.4170092  50.0235510   5.2000678  33.5545958  49.2173004
   3.8428367  33.1194151  49.7267342   2.5073779  26.3769759  45.8774042
   3.3741344  26.5804995  46.2288952   2.6318706  25.5628718  45.3895760
   4.5791019  44.3453921  65.8607340   4.1318954  43.5135497  65.7049465
   5.4184497  44.2542399  65.4097080  84.1293049  94.7404575  74.8103809
  83.7065887  94.5385742  75.6451178  84.5889759  93.9349079  74.5736885
 113.0890864  12.3789824   7.0759153 113.1029719  12.3556460   8.0327302
 112.5514525  13.1416834   6.8627077  10.1041169  76.2674761  37.4877095
  10.5955071  75.5688477  37.0556402   9.9151463  75.9229279  38.3605242
  91.1236477  93.5561562  61.1193609  91.5259838  92.8929424  61.6801596
  90.5676365  93.0579662  60.5202818  19.4336093   7.0324172  70.1290464
  20.0033248   6.6299284  69.4735575  19.2776359   6.3383044  70.7694387
  97.4032021 108.6290932  38.9819670  96.6782284 108.0135822  38.8733220
  97.3878670 109.1601658  38.1857538  51.3309574 102.0652008  64.4929075
  51.6849852 101.2349319  64.1742182  51.7786789 102.2124481  65.3260326
 103.1845856  82.9749393  40.1722813 102.7954483  83.0769634  39.3037248
 102.8381824  82.1424961  40.4936552   3.4037060  84.1361237  68.3694172
   2.9871887  83.4496021  67.8484201   3.2257885  83.8892651  69.2769670
   5.9293521  28.5438765  42.6056671   6.6545737  29.1646517  42.5354767
   5.6248439  28.6324347  43.5088062  83.0658740  19.1125430  55.8115959
  82.4254340  18.5039748  55.4431963  82.5485009  19.8726309  56.0777283
  44.3768562   5.4162825  41.6977119  43.9140571   5.5380190  40.8687162
  44.2244209   6.2296332  42.1788073   3.1468547   1.9792212  59.0083742
   2.4481738   2.5698794  58.7269449   2.8964866   1.1260355  58.6539507
  38.9190085  24.3642234   0.1065592  38.4193451  24.7756576   0.8117537
  39.7993691  24.2582511   0.4670672 101.6301346 103.4340096  49.7668934
 102.3988342 102.8783894  49.8958540 100.9150314 102.8192139  49.6029139
  79.0725279 107.7912331   8.0025560  79.8742247 107.6049519   8.4912419
  79.1977310 107.3528576   7.1609062 109.8832959  22.6286448  33.5147357
 109.8803824  22.9245318  34.4250512 109.1218203  23.0552329  33.1217909
  96.5855598  99.3706894  51.8821955  95.8575726  99.7093010  52.4033546
  96.9044304 100.1300049  51.3943529  21.4343513   5.7405127  78.8580751
  21.1840404   6.4589060  79.4390011  21.4116729   4.9627150  79.4155216
   3.8967574  39.5179213  88.6614132   4.0864337  38.6479796  89.0127563
   2.9566634  39.5039404  88.4817982  84.2406464 100.3065109  44.5754147
  84.8185062 101.0695744  44.5681667  83.4397888 100.6084633  44.1468334
 103.1076592  34.8777140  27.6335621 102.3371142  35.3872431  27.8842998
 102.9556006  34.0116728  28.0118251  29.8832191   4.5410098  67.1018505
  29.1770995   3.9325655  66.8840694  29.5569957   5.3964175  66.8224192
  54.1672385  21.5145434  74.2529106  53.2960475  21.6636504  73.8854599
  54.4157851  20.6464613  73.9352894  82.5027561 107.4046803  85.9335995
  83.1879807 107.8736401  86.4098167  82.6775932 106.4804173  86.1108017
  30.6100238  16.4891947  59.5872593  31.1065257  16.1041201  58.8651562
  29.9369968  17.0187129  59.1596174 116.2587661   1.1439169  62.6691246
 115.7098121   1.2454070  63.4466743 116.4007491   2.0378817  62.3578310
  71.9240427 107.2761536  75.4612350  72.7388477 107.0990181  74.9911833
  71.3108063 106.6180801  75.1339483  72.9109430 101.4651775  72.9406357
  72.2946453 101.5428448  73.6689043  73.0331326 100.5222988  72.8297901
  32.5863231  11.8413771  42.4793959  32.7952064  11.3617362  43.2809782
  32.5580371  12.7591265  42.7499104  16.9140495  16.1511458  44.2075825
  16.5924991  17.0525588  44.2243862  17.1674884  15.9703387  45.1127386
  13.6482394  24.3476237  40.2045107  14.5041335  24.4572390  39.7901917
  13.7304271  23.5417212  40.7144165  58.5423834  49.7426175  17.7409606
  59.1973097  50.1999616  18.2683424  57.8258497  50.3709077  17.6512103
 113.9050406  30.1817358  48.6752415 114.4204873  29.3823088  48.7822914
 114.0073794  30.6457652  49.5061684  93.8931465 106.5522575  20.2596283
  94.6618652 107.1107864  20.3751254  94.2392063 105.6601715  20.2853370
  78.9906168  92.0644951  52.8859520  78.2348204  91.8094730  53.4150648
  78.8536692  92.9944611  52.7052832  97.1450442  19.3740405  42.6189184
  96.3576716  19.0196265  43.0320358  96.8726653  20.2245749  42.2744989
  92.9793369 109.0391610  26.2503815  93.7938010 109.2289948  25.7847190
  93.2503258 108.5113277  27.0015073  29.0244532  12.0236874  27.1548939
  29.2639422  11.0995770  27.0849133  28.8105059  12.1462893  28.0797887
 105.5459278  21.3932157  16.2615752 105.3896349  21.1169124  17.1646035
 105.6940799  20.5772018  15.7836580   5.3667313   0.1287675  31.9343209
   5.7129365   0.9027032  31.4900279   5.9241956  -0.5891328  31.6341805
  17.0413029  33.9431429  16.1268842  17.0132160  33.2051706  16.7358506
  17.8715801  34.3795967  16.3176167  32.0054650   3.7973839  59.7310019
  31.9677758   3.8233855  58.7748957  32.8456354   3.3824453  59.9263811
  16.5585804  29.8301315  14.7370589  16.0801220  29.1061091  14.3332028
  16.8814766  29.4721437  15.5639887  18.9538682  26.4850926  77.5631618
  18.5855186  27.1871161  78.0995512  18.4164453  25.7199669  77.7680826
   9.7850621  14.8248637  58.5910559   8.9977717  14.2811644  58.6192656
  10.2173173  14.6641374  59.4298410  26.9467163  19.0793526  43.9981556
  27.5140667  18.3547115  44.2612886  27.3526978  19.4249165  43.2031727
  75.5166694  94.1900729  29.9453664  75.0459575  93.9661764  30.7481956
  76.0166765  94.9742984  30.1716733  97.3731410  84.1785490  53.4332275
  96.9637012  84.0121972  54.2822933  96.6789257  84.0115463  52.7957249
  30.4732704   9.0114921  66.2229681  30.5939627   8.3476985  65.5439663
  29.8941660   9.6604264  65.8232784 106.1753743   6.9436997  38.6205435
 105.4928082   6.6449219  38.0196548 105.9336525   6.5641522  39.4653797
  92.2057938  90.6655597  44.9793291  92.3412632  90.7625674  44.0367460
  91.6011476  89.9278819  45.0597382  19.1808206 104.4154965  56.2847090
  18.9336806 105.1617019  56.8309069  18.3474809 104.0256934  56.0204506
  34.0857816  22.4928260  20.5684948  34.9130702  22.3406124  21.0252833
  33.5684443  21.7062640  20.7414436  17.7221429   8.7824672  25.2326488
  17.9302096   7.9605842  24.7882962  17.0565307   8.5440511  25.8779025
   1.8051206   7.1444678  10.5415308   2.3060730   7.0946586   9.7274065
   1.5790617   8.0706215  10.6273711  15.3946400   6.4539182  54.5143652
  14.7697628   7.0328373  54.9509573  15.4021609   5.6613231  55.0509882
  34.6436310  26.3954234  26.7672968  35.5420375  26.2965393  27.0824409
  34.7160935  26.9882083  26.0192418   0.3178531  76.5757786  55.3164339
   1.1495524  76.1064826  55.3817940  -0.2982587  75.9254467  54.9792290
  78.5427665 108.0566821  49.8450470  78.3008695 108.1107398  48.9204931
  79.4912659 108.1852396  49.8523712  17.2144365  29.1946507  50.1255894
  18.0714941  29.5785594  50.3107882  17.3501205  28.2513595  50.2151585
  40.3074265  29.4241428  22.9557157  40.1522779  28.9374161  22.1462369
  41.1720943  29.1349030  23.2471251  13.1782132  99.2515646  50.3786469
  14.0065509  98.8548755  50.1089621  13.0246287  99.9450277  49.7369671
  80.9437465 108.5195788  50.7918215  81.6152694 108.6508756  50.1224566
  81.1832719 109.1250969  51.4933968  21.5899396   0.5531392   6.1457837
  20.8642006   1.0848002   5.8188701  22.1720386   0.4533261   5.3925037
   0.3433002  10.4363871  52.6577616   1.2212414  10.0828660  52.5146770
  -0.0105502  10.5624747  51.7773485  20.2101374   6.1007440  76.0211229
  19.5883274   5.4196084  75.7649231  20.2622461   6.0312110  76.9743729
  24.7985983  10.3407037  50.8164263  24.0554905  10.9266996  50.6727982
  25.5448532  10.8019722  50.4335880  91.7083239 100.9481179  57.7423906
  92.5250720 101.4368778  57.6410627  91.2317538 101.4173912  58.4271479
  81.1418765 105.3364523  45.9679079  81.6017108 104.4971704  45.9876633
  80.7055240 105.3905552  46.8181467  22.8634339  99.7512578  21.8850398
  23.6000138 100.0670134  22.4084687  22.4346953 100.5470889  21.5702915
  81.1792316  94.1012560  37.0999551  81.1220982  94.9412166  37.5554061
  80.2873365  93.7545930  37.1240306  19.4381928  42.1080208  41.9294834
  18.6342740  41.5909815  41.8783379  20.1413107  41.4585257  41.9260788
 114.4030988  95.3579818  13.7084472 114.2895591  96.2268387  13.3231843
 113.6558663  95.2580022  14.2982626 100.3877276  34.8645282  41.4118814
 100.7394891  34.2240357  42.0301533  99.4768959  34.5992351  41.2844515
   1.0724345  20.2026057   4.1933894   1.7814690  19.5610249   4.1500694
   0.3107364  19.7419202   3.8415131  13.4819293   9.4599253  30.5152035
  12.5741553   9.2335588  30.3128767  13.5158968   9.4817078  31.4715528
  46.1511183  14.9903619  32.3132372  45.2698374  15.3627920  32.3427463
  46.6820526  15.6647074  31.8894434  70.5059295 104.0059768  63.3217669
  71.4582061 104.0434431  63.2323360  70.3607094 103.5309147  64.1399717
  22.2842646   9.4196194  62.1757603  21.5283060   9.9073225  61.8487978
  22.0071697   8.5037267  62.1514463  20.9056425  14.5364499  43.0241203
  20.0782585  14.0733540  43.1553078  20.7302308  15.1405203  42.3026228
  97.8937279  94.0084540  58.8788080  98.7986910  94.0614723  58.5714626
  97.6322173  93.1054031  58.6989689 110.6252062  84.9396502  33.8299084
 110.4940783  85.7903682  33.4111977 110.1479875  84.3232237  33.2744718
  63.8986062 100.4666029  33.0331612  63.8811814 100.0866853  32.1547580
  64.8187005 100.6849038  33.1814885  45.9995270  17.5340843  43.7025547
  45.1014090  17.7593625  43.4599447  46.5155411  17.7319157  42.9210043
  98.4399711 100.7398253  68.6498785  98.9252579 101.1059951  69.3892336
  99.0550315 100.7775473  67.9174089  25.0178790  10.6821442  45.5361128
  25.4071641  11.3545179  46.0952234  24.2538881  10.3767407  46.0252762
  28.1990910  25.4999828  75.6217337  28.3763885  26.4339805  75.5101728
  28.1759143  25.3721952  76.5700817  99.4268429 109.5048186  22.2716451
  99.4820821 108.8753860  22.9906702  99.0387475 109.0103558  21.5497589
 111.5182483 109.5901044  72.5760698 110.5918586 109.8290732  72.5455904
 111.5212118 108.6800562  72.8727818  25.3652120  24.5316291  58.1866503
  26.2651682  24.8007607  58.0025864  25.3069997  23.6398768  57.8436899
  30.9444785   1.3263938  53.9305401  31.5319848   0.7610420  53.4290981
  30.8169532   0.8644558  54.7591400  85.3020316  90.8691703  72.4329996
  85.3413462  89.9384939  72.6532888  86.1853849  91.0814821  72.1316004
  65.2246684  82.0943437  12.3549990  65.9033412  82.2431432  13.0133967
  64.8230237  81.2633262  12.6086096  26.4967728   8.8952523  40.9369850
  25.6099391   8.6858410  40.6438875  26.4695859   8.7763625  41.8863821
   3.5733530   7.9501498  30.6607103   2.7201131   7.6051289  30.3976989
   3.6568251   7.7056175  31.5823770  69.5952373  20.8547139  47.7970934
  70.5172353  21.0631156  47.6463699  69.3561416  21.3697338  48.5676861
 107.3465215  97.3986660  34.3266106 107.1813452  97.7748918  33.4620857
 106.5691387  97.6231288  34.8380065  99.2631733 104.5306479  25.3453732
  99.2981827 104.6157568  24.3926072 100.1703917 104.6426599  25.6293416
  21.3103366  27.7354383  73.2633114  21.0511947  28.4082770  73.8928843
  20.8030224  27.9354095  72.4766254  73.9099940 105.0719964  20.4944611
  73.5568582 104.1885602  20.5996633  73.3821561 105.6124934  21.0822392
  38.5287595   7.3018849  79.6094465  38.3847523   7.9399961  80.3082371
  38.0913353   7.6795232  78.8463736 110.1077502  41.4273787  40.5690002
 109.8554027  42.3505974  40.5835867 110.9997600  41.4283514  40.2217960
   5.2949077  87.5264083  77.8902388   6.0624724  87.2603356  78.3964777
   5.3849965  87.0633160  77.0573759  27.9007196  31.0739517  65.6230164
  28.8480616  30.9510350  65.5624676  27.7961588  31.9054246  66.0855627
  40.6919956  11.5935373  45.2616549  40.1552677  12.3839712  45.3196907
  41.5930986  11.9110799  45.3200674  16.4877355  18.2033908  24.7931576
  16.1958826  17.3017240  24.9275136  16.3162076  18.3752084  23.8672590
  25.3298712  10.2644074  26.9317532  25.3380442   9.4565761  26.4183593
  25.3503847   9.9697751  27.8422499 116.0828935  68.2305919  25.8377481
 115.3598105  68.8517915  25.7511616 116.2708270  68.2110845  26.7761159
  11.8120742   1.8171459  10.7160723  11.6415155   1.3488719  11.5332997
  10.9446549   1.9654186  10.3394651  97.5985848  84.5787941  27.4876714
  97.6884782  85.5192315  27.3336339  98.4404313  84.2106043  27.2194076
  21.0932636  10.4350138  23.4847283  21.6509581  11.0816121  23.9172983
  20.8186984   9.8467052  24.1881061  38.3231235   4.9889743  69.1107464
  38.0047774   5.1020759  70.0063467  37.5877905   4.5925573  68.6434460
  36.0921645   3.4804782  68.2819986  36.6011477   2.9507664  67.6683426
  35.7296729   2.8472424  68.9015532  32.2504282  18.4393859  36.2762904
  32.8178430  19.2102766  36.2767792  31.3790965  18.7832069  36.4732671
  51.6843319   6.1651516  38.9629507  52.0472431   7.0449072  39.0657091
  51.1160421   6.0500258  39.7245407  43.8989544  20.2102637  45.1798105
  44.5428038  20.5684185  45.7908916  44.1665506  20.5476451  44.3249464
  22.5286531   4.8957816  60.0694895  23.4412646   4.6115696  60.0185680
  22.3757911   5.3591526  59.2459917  10.0729001  15.1821256  51.1135483
   9.7361857  14.3342590  50.8237648  10.0779641  15.1239657  52.0689678
  12.4951345 108.5260453  62.0568275  12.9523307 108.6361354  62.8905439
  11.9970447 107.7154457  62.1620178  12.5205863  14.5673501  44.3476772
  12.3672938  13.9469886  45.0603342  11.8401074  14.3668187  43.7050486
   3.3427507  94.6382689  49.9534845   3.0969697  93.8956188  49.4018555
   4.1411573  94.9810456  49.5518827   4.2212468  97.2252797  12.1797776
   4.7792703  96.5262901  12.5207388   4.7172576  98.0279039  12.3410273
  57.6620059 103.6862040  80.9146686  58.5799890 103.8400651  81.1379726
  57.6380961 102.7785302  80.6116946  91.7782831 106.1879735  61.1393785
  91.4869832 105.6150951  60.4300213  91.4878284 107.0613413  60.8765125
  50.5514717  11.9256651  40.4493141  50.7033491  12.8335536  40.7118130
  50.2712107  11.4876711  41.2529612  27.1468139  11.0414803  36.2071681
  28.0552101  10.7492888  36.2824774  26.6701531  10.2671432  35.9081197
 106.3508683  47.6172543  12.1144688 105.8273106  48.2306051  12.6301420
 106.6670304  48.1355333  11.3744283  17.4869990   7.6272976  65.1697826
  17.3079324   7.0633906  65.9222269  17.9187059   7.0529139  64.5373678
  55.3244972  10.9048367  44.6581888  54.7223091  11.2557316  45.3142929
  56.1165905  11.4338541  44.7528362  39.3194842   4.9287209  60.3237152
  39.9637341   5.6321174  60.4037666  39.8180914   4.1844875  59.9864626
  23.4419107  42.3829699   2.4708791  23.5649371  42.1777773   3.3976984
  24.2551589  42.8160381   2.2114424  54.9424362  16.5961528  32.2985172
  55.2222204  17.1621156  31.5790462  54.2310381  17.0784235  32.7198958
  52.3345900  11.4132094  76.2368298  51.5755701  11.7308998  76.7259026
  52.5988197  10.6159759  76.6959953  17.7988463 100.7360749  12.7601373
  18.2700664 100.9298008  13.5704780  16.8835050 100.6564181  13.0285394
  32.6669621   9.6696895  47.8818655  31.9427466   9.6286184  48.5064125
  32.6855421   8.8014877  47.4792385 116.2621056  98.3036779  29.4256067
 115.7512485  99.1116499  29.3762159 116.7389046  98.3719622  30.2527905
   8.0587035 106.2283035  28.6324811   7.9930097 105.3098165  28.3711433
   7.4986154 106.2980013  29.4055748  58.3061552   5.2561152  37.7990842
  58.5114479   4.5971820  37.1358371  58.6044216   6.0815251  37.4170256
   3.4028232  42.5540257  23.3011246   2.8844115  42.7717543  22.5264788
   4.3075883  42.7251434  23.0396843 112.7126562  92.0533096  27.9271412
 113.1377160  92.9071938  28.0073786 111.8953692  92.2352492  27.4632764
   4.4771850   6.7608398  72.7793932   3.9844128   6.6076857  71.9731998
   4.9278787   7.5920457  72.6303816  21.5147996  22.7574277  44.8715401
  21.3361335  22.0579243  44.2430449  22.4683452  22.8409624  44.8722744
 108.4355437 108.1620557  46.0729027 107.6093065 108.4835192  45.7120371
 108.3602821 107.2087269  46.0312939  -0.1843308  19.1029930  49.7916603
   0.4194417  18.3627009  49.8521471   0.2892948  19.8317349  50.1927185
  38.4581614   9.2060131  63.2457590  37.7962899   8.6142612  62.8880024
  39.2157030   9.0932465  62.6716137  38.0320430   7.6207191  67.6994705
  38.3404446   6.7386323  67.9069424  37.2317624   7.7220255  68.2147551
  18.0593204  13.8653135  63.3949757  17.5246990  13.1432128  63.0648470
  18.7879407  13.9258003  62.7771664   6.5680152  90.7448505  24.1865182
   6.2155944  90.3018140  23.4146690   7.5114757  90.7846891  24.0298986
  22.6010180  35.2924013  15.6158257  23.2565260  34.8832679  16.1807597
  22.4045849  36.1266303  16.0420978  36.9066858  11.8513751  54.9742317
  37.7136302  11.8970132  54.4614029  36.5729284  10.9680438  54.8175001
  40.8292532  12.1162760  55.7305336  40.0976992  12.2471595  55.1272678
  41.5551805  12.5987291  55.3349304  25.7087946   7.5491780  20.4428172
  26.1452532   7.4964488  19.5925486  25.6434917   6.6401029  20.7353044
  12.7173734  42.4051714  44.2721891  13.5476243  42.1775913  44.6906614
  12.9086363  43.2026720  43.7785816  21.7535138  11.0564053  31.5567207
  22.1290970  11.1276937  30.6791735  22.1901083  10.2972746  31.9431615
  11.8912721   0.3284273   5.6246966  11.3603806  -0.0328107   6.3345510
  11.3421381   0.2394312   4.8457474  29.6711045  81.4773952  62.0098400
  30.1469880  82.1676075  61.5479183  28.7650090  81.7851411  62.0325232
   6.3755542  86.8513071   9.1748714   7.0126802  86.9835698   9.8768741
   6.9069844  86.6610347   8.4018201   0.1357466 107.6764642  41.2753725
  -0.7260317 107.2909110  41.4332342   0.6378108 107.4718892  42.0642376
   2.9537228  25.2008486  65.4466057   2.4120882  24.5088768  65.0670862
   3.6780936  24.7356558  65.8650732 116.7975079 103.4406196  33.5736537
 117.4765240 103.3049988  34.2345428 115.9896099 103.5402226  34.0772510
 110.2321875  12.5912166  44.7701550 110.8242195  12.8494203  44.0637159
 110.7113200  11.9149578  45.2490473  14.1519916  16.4517689  31.6635656
  13.2687068  16.3244736  32.0097423  14.3886340  15.6017292  31.2925339
 101.0224544 108.9392239  28.8623953 100.7520830 109.6807816  28.3208942
 100.2194154 108.4362434  28.9979291   0.9109074  76.6518365  30.8115625
   0.1303989  76.6918026  30.2588916   1.5819150  77.1175014  30.3124285
 113.0183803  89.6681630  46.1544132 113.3796131  89.2012154  46.9078732
 112.1213161  89.3429410  46.0786629   6.7623758   6.1296469  27.5587153
   6.1935991   5.7963711  28.2527256   7.1495360   6.9237995  27.9270363
   7.7485281  29.2703176  33.1617713   7.1593064  28.5162020  33.1807017
   7.9392171  29.4484544  34.0827155 113.2560336 100.0601946  68.1761169
 114.1363274  99.6956443  68.2678747 113.2378327 100.7984244  68.7851477
  52.7565336   2.0586704   2.0040034  53.4318256   1.4886311   2.3717877
  53.0462837   2.2254166   1.1070792  24.5080638  22.2291231  40.9576893
  24.2710185  23.1180024  41.2221384  23.8455415  21.9870281  40.3106308
  20.9279966  15.3067935  92.1925163  20.0913239  15.7023644  91.9481087
  21.4773393  16.0475492  92.4489021  15.5961919  17.8895295  51.7013407
  15.6434965  17.0224178  51.2987137  15.9384835  17.7617872  52.5860739
  26.0622668  24.4511080  54.9914503  25.7265449  25.1128244  55.5961466
  26.9814825  24.6863556  54.8652267 114.7825920  68.7633811  44.6606731
 115.6605541  68.7912952  45.0409842 114.2192876  68.4762489  45.3793335
  51.8189955  29.2302918  43.7816286  51.4325190  28.4356713  43.4135962
  51.7534113  29.1118312  44.7292042  29.9390888   3.7145901  45.3726768
  30.7153773   4.1913775  45.0789452  29.5174503   4.3049461  45.9971237
 108.6136996 108.2778436  60.7668304 107.7562391 108.2518404  60.3421926
 109.2382848 108.1458501  60.0535965  18.6493426  96.3008284  45.5304813
  18.2966643  96.9202661  46.1693430  19.4271880  95.9372436  45.9535551
  46.4799166   9.8995322  77.4611187  46.6969442   9.7203517  78.3760118
  47.3222256  10.0891745  77.0478630   4.6023157  29.7736645  47.3624086
   4.9113733  29.7704196  48.2683325   3.6509225  29.8506784  47.4341822
   4.3039256  92.7161109  38.6148858   4.5963365  93.6252486  38.5501194
   4.1353875  92.4536752  37.7099252  21.7711878  46.5860367  64.1373825
  21.5374732  46.7011404  65.0584459  20.9416628  46.3880539  63.7027264
  37.9330039  30.9786868  22.4253845  37.6126838  31.2101126  23.2972050
  38.7284803  30.4721022  22.5891614  10.0355721  29.7008729  46.4479446
  10.2828395  29.5593905  45.5341244  10.7817590  29.3750119  46.9511843
  38.7730408  12.1672523  75.3873682  39.6112466  12.2175097  75.8468437
  38.1163764  12.2898185  76.0729361  72.3688745   1.3027459  10.7537377
  73.0089951   1.7931125  11.2695038  72.8242779   0.4967830  10.5102980
  36.1409974   2.3213118  18.7025213  36.5960121   1.6064005  19.1476011
  35.3434777   2.4535073  19.2150819 112.3800554  25.5907845  67.2258759
 111.9059264  26.4016271  67.0415688 113.1749123  25.6524086  66.6961241
  22.9715329 105.4491027  58.0120420  22.4767858 105.1544069  58.7766409
  23.2435399 104.6411394  57.5767946  17.7174771  45.0041580  32.2691894
  16.8752575  45.3953886  32.0371604  18.0777133  45.5890226  32.9358196
  49.7487824  88.6847759  88.1443335  49.2076164  88.1450391  88.7205757
  49.6536224  89.5727492  88.4888311  28.0982572 109.5497934  38.0882382
  27.9117852 108.6599225  38.3875537  27.2993022 109.8232524  37.6375461
  26.6145229  30.1098633  59.3966532  26.4346099  30.4787564  60.2613974
  27.2588515  29.4209766  59.5594645   8.0105668  11.9208241  59.5355034
   8.2436687  11.4092147  58.7608099   7.1451640  11.5967441  59.7850704
  40.7343626  16.1831284  35.3503990  40.0181723  16.0861993  34.7227764
  40.7932997  17.1262836  35.5027699 114.0995657 101.8650507  65.1865625
 114.7155606 102.2864198  64.5872068 113.9512240 100.9986990  64.8075390
   5.2708340  45.1810122  68.5205889   5.0852591  44.8782349  67.6317024
   6.2231761  45.2732611  68.5482597  42.0351839   4.2338049   7.8551620
  42.3268652   4.9045879   7.2377449  41.1409950   4.0291616   7.5817162
  19.7232950  22.4808311  63.3069277  20.1417613  23.3109975  63.5348320
  20.1583195  22.2070646  62.4994373 111.0115492  26.7676806  34.5754528
 110.5043977  25.9726977  34.4110370 111.3115340  26.6776252  35.4799581
  35.6277275  13.0965269  60.7800388  35.3055525  13.0200756  59.8819351
  36.1392784  12.2996223  60.9196377  52.5176954   4.9267194  59.6499443
  51.6067505   4.7100413  59.4513035  53.0073881   4.6288815  58.8833094
   7.2412091  29.3055892  85.3594017   6.6584665  30.0185204  85.0979233
   7.8242761  29.1856837  84.6098137  28.1496143   8.1151801  51.5593576
  27.8698301   9.0290374  51.6124487  27.7205229   7.6898116  52.3017693
  19.7888756   8.9167339  66.4593363  18.8669622   9.0562707  66.2429190
  20.2635098   9.1944599  65.6758690  23.4723520  20.8615923  43.5598898
  23.9247847  21.7049813  43.5750198  23.9903188  20.3226233  42.9620171
  66.5688276  14.1559458  32.6538229  65.8506918  14.6426356  32.2492909
  67.0409632  14.8099291  33.1692100  36.6147614  20.8155560  56.7217350
  37.4512124  21.2445831  56.5414047  36.6373658  20.6318450  57.6608658
  29.9360561  30.7573175  29.5215535  30.8254385  30.4229164  29.4057751
  29.8691535  30.9405088  30.4586744  42.4818659  20.4565358  31.3086820
  42.2930002  19.8127508  31.9914007  42.8915644  19.9492991  30.6079054
 110.5533134 110.3413924  52.1397257 110.4542195 109.3964567  52.2559547
 111.3394510 110.5629651  52.6388454  35.1340866  24.9260426  15.2127469
  34.2030478  24.8728895  15.4285550  35.3428769  25.8577228  15.2806461
  34.2647696  32.3105359  22.0893717  34.9290514  31.6226959  22.1322370
  34.7074485  33.0448413  21.6638565  30.1501226   1.0025584  34.1622853
  29.9523067   0.1089572  34.4426012  30.3314066   1.4740387  34.9753499
   3.6229447  43.4290361  27.4718404   3.8890842  44.3003988  27.7653193
   4.3366289  43.1393623  26.9035339  56.8110323  50.6460571  25.7256174
  56.0786295  50.7381344  26.3349962  56.6206741  51.2711620  25.0261593
  33.2965350  28.9649034  34.7477198  32.4036837  28.7321210  35.0024009
  33.3139324  29.9213052  34.7826886  42.5197697  26.1161017  36.7772126
  41.7849350  26.5748835  36.3700700  42.9382896  25.6464672  36.0557437
 106.4794194  90.6384229  28.2835722 105.6080353  90.8414482  28.6237216
 106.9121157  91.4890908  28.2103086   3.8216141  42.1632862  32.3922729
   4.6514642  42.1218252  32.8675222   3.9862227  41.6834068  31.5805769
  10.1117599   3.3888757  32.7822328  10.3008199   3.8019949  31.9397259
  10.7390106   2.6682901  32.8417706  27.0899582  28.5293484  47.6921558
  26.1597371  28.3339977  47.5792027  27.5397897  27.7509880  47.3634624
  36.8061399  10.6068611  65.1019764  37.3622823  10.1522219  64.4693327
  36.4590812  11.3574386  64.6198797  33.6810660  12.9220140  35.6529570
  34.2454720  12.3150313  36.1317587  33.2076836  13.3978605  36.3353848
  10.7992518  22.7823067  47.8622246  10.2270222  22.8201175  47.0958328
  10.5782795  23.5662603  48.3650351  21.4331794   0.7381677  11.1583102
  21.1444592   0.0414292  11.7477405  21.6478777   0.2873724  10.3416586
  26.6809988   8.9747912  44.0157843  26.2453508   8.1453770  44.2120361
  26.2396550   9.6150750  44.5738935  21.1743903  74.8767185  60.6430054
  21.6215611  75.1732969  61.4356661  21.3140130  73.9298582  60.6292820
  50.0554276  25.6767368  27.4495840  50.7657003  25.7709908  26.8148732
  49.9903917  24.7333384  27.5979185  59.9567032  14.2357397  63.1709146
  60.7109880  14.3623269  63.7464714  60.3384781  14.0348256  62.3164463
 103.1561648  76.1054050  66.2016630 103.6848985  76.8465101  65.9059715
 103.1598770  75.4981839  65.4617310  53.5732508  12.3265469  48.1509495
  53.2064056  12.4325371  49.0286875  53.6343002  13.2179689  47.8076267
  68.1393719  17.3838151  87.8472710  68.6182976  17.0982540  88.6252975
  67.2455549  17.0716405  87.9882336 111.8320167   4.5151031  51.0823154
 112.4356511   4.7147512  50.3667736 112.2734388   3.8296548  51.5838528
 108.0046474  23.2295227  60.0185537 108.3426994  23.8654590  60.6490564
 108.1464010  23.6395931  59.1653347  34.3409181  29.7938466  54.9602890
  35.1205707  29.6192694  55.4874468  33.8960361  30.5063176  55.4193068
  32.3638225  29.7596788  37.9461145  33.0317497  30.3634095  38.2711029
  32.8400469  28.9484930  37.7688599  80.3540998 109.9068704  31.5823793
  80.9045731 110.1034390  30.8243728  80.1582178 108.9735090  31.5005374
  13.1075299   2.2774586  15.7785380  13.6217487   2.0226038  16.5446055
  13.7085080   2.1725021  15.0409472  20.0522399   8.3017468  82.2853661
  20.0680184   8.3100212  81.3283253  20.9680629   8.1870377  82.5390244
  13.8618994  38.8121438  38.1205058  14.7983682  38.6592388  38.2465124
  13.7992930  39.2140055  37.2540069  50.2363729   2.0464130  33.5354090
  50.8402157   2.7878988  33.4929061  50.7979345   1.2753439  33.4558249
  40.4906940   7.7795142  72.2062349  40.8334684   7.8296256  73.0985498
  40.7309675   8.6170554  71.8099689  18.7492448  94.2376529  62.8214359
  18.5893375  94.9876725  63.3942652  18.4242612  93.4851502  63.3157635
  34.0881562  11.9881165  47.3445225  33.4675097  11.4280486  47.8107357
  34.8402357  11.4213490  47.1731138  25.2753305  21.7085814  57.2843647
  25.9302402  21.2516999  56.7565536  25.1112175  21.1220574  58.0227995
  37.1047807  28.5945106  54.0039253  37.4303770  29.4243383  53.6552048
  36.9245648  28.7765217  54.9262190  16.1483204  10.3180766  49.7845554
  15.3496242  10.4655361  49.2780256  16.3015819   9.3753612  49.7210598
  69.8672724  10.0888443  19.9721885  70.3652716  10.7401538  19.4782007
  69.9655676  10.3550422  20.8863592  86.9670253  98.8405978  87.2057152
  86.6446673  99.4561028  86.5473366  87.8205758  99.1896426  87.4623299
  35.9825206  19.3578696  40.5724669  35.5825281  20.1639485  40.2461576
  36.9202018  19.4779336  40.4222345  31.5081644  29.3445683  31.5667081
  32.2270131  28.7617016  31.3222575  30.8621716  28.7693048  31.9765759
   8.7457031  41.6750097  11.0225368   8.9383364  41.5832472  10.0894213
   8.8489610  42.6103926  11.1975598  39.0022993   6.7542720  11.8247366
  38.9087462   6.8672478  12.7706313  38.1045032   6.6701698  11.5036118
  19.5501077  19.9216413  77.3403883  18.6652160  19.6452427  77.1020555
  19.4189525  20.5979562  78.0049419  30.0639582  13.5964489  56.2797022
  29.2821312  13.2866323  55.8225489  30.7928443  13.1944525  55.8070946
  42.6926470   9.5820624  37.7565837  42.8705788   9.2504060  36.8764830
  41.7483521   9.7383505  37.7672720  32.8715467  29.2299795  52.7182913
  32.0489192  29.2741799  53.2056952  33.5502720  29.3490434  53.3826637
   9.0537715  12.5012720  71.9760847   8.2888073  12.9511940  71.6174316
   9.4760680  12.1030021  71.2149811  28.0878282   2.8206807  37.5700307
  28.3854175   3.7290391  37.6205993  28.7171459   2.3325595  38.1010008
  45.0439787   3.6687490  73.3279228  45.2156019   3.2724312  72.4736929
  44.9201441   2.9243475  73.9167881  12.2382098  93.2175707  63.4802580
  13.1907493  93.1384264  63.5315990  12.0889073  94.1039716  63.1512690
  23.1828880  26.4416766  46.2037563  23.7773800  25.7395482  46.4680099
  22.3499203  26.2194777  46.6197205   6.2426209  41.5889025  65.3154659
   6.0300285  40.6557131  65.3013706   6.9852519  41.6744280  64.7176266
  83.3922946 104.2069512  30.8507204  83.3083337 104.7572069  31.6294384
  83.2162773 104.7986787  30.1192093   3.8599622  16.0384798  69.4884014
   4.3944159  16.3629639  70.2131796   3.1988055  16.7177737  69.3555021
  23.7319160   1.0123368  79.7038937  23.7881374   0.1206261  80.0472927
  24.4385886   1.0662269  79.0605116  34.9657369   5.9122407  41.5076113
  34.8126411   5.2764416  42.2065735  34.2870069   6.5752441  41.6340351
  20.9303713  74.7723818  51.5835953  21.8598247  75.0009060  51.5723944
  20.5202603  75.4627037  52.1046495 102.6532542  87.1904027  40.3426266
 102.2852337  87.8425299  39.7463679 101.9021880  86.6621315  40.6129217
  22.8802299  24.2799830  41.2475252  23.3168292  24.9892545  41.7192698
  22.4451900  24.7130394  40.5130625  12.2632766   7.0877361  17.6297033
  12.2147965   8.0335653  17.4908209  12.2239804   6.7140603  16.7493320
  18.1172943   7.0170885  37.6139641  17.3455131   6.4995176  37.3843861
  17.7623117   7.8364348  37.9587698  20.0197577   3.2154423  45.6986094
  20.9369087   3.2917476  45.4354620  19.9906516   2.4262969  46.2395668
  29.9005270  13.5005546  34.8640895  30.3195620  13.6778128  35.7062435
  29.4955277  14.3322992  34.6183085   8.9661008  16.2166381   9.9135649
   9.1376579  15.3078175   9.6668977   8.9820302  16.2121475  10.8706224
  60.6079769   0.9035568  50.9223127  61.4846134   1.0518425  51.2769270
  60.1152945   1.6871887  51.1660767  52.1849155  21.8362379  40.6235790
  51.4373589  21.4950752  40.1326609  52.3807287  22.6762891  40.2086067
  37.4044371  21.9069052  19.5206869  38.3414793  21.9826317  19.3405461
  36.9815540  22.3155642  18.7654388  33.6438513   7.0739961  54.3726110
  33.6601901   7.5517577  53.5433292  34.2545819   6.3484198  54.2430878
  30.2426052  14.1216338  30.8552599  30.8837938  13.7491477  30.2499819
  30.0811601  13.4250927  31.4916563  41.1979151  14.8246920  48.6638498
  41.7726898  14.4201159  49.3136072  40.8544350  14.0890586  48.1568003
  90.7991051 108.5739373  14.3005133  91.6701495 108.8184242  13.9878786
  90.9583890 108.1416201  15.1395380 114.5194661 102.0921515  18.1257904
 115.1458108 102.7503239  17.8245687 114.8203670 101.2752997  17.7277410
  34.8585272  19.4807744  21.5865946  34.6804404  18.9398396  20.8172417
  35.3320694  18.9006948  22.1828294  27.3383713  10.4563618  76.0345936
  27.0625544   9.9623495  75.2625084  27.2425938   9.8396474  76.7603493
  39.7432590   3.2088917  49.8035049  40.4848289   3.7853909  49.9877644
  39.0841246   3.4511957  50.4539347 115.7968606  21.5867209  45.6292677
 116.0642077  20.8920646  46.2311077 116.6022307  21.8321943  45.1739073
  16.5883362  13.0610907  48.9833784  15.8635211  13.1136787  48.3603907
  16.5033150  12.1927214  49.3769979   6.8543440  31.5390635  31.7065692
   7.6822317  32.0193362  31.6934919   7.0919842  30.6601071  32.0018554
  65.7977247  13.4761000  19.5612872  66.2452126  13.8726246  18.8137901
  66.4651442  13.4359467  20.2462435  42.3771858  25.2730703  25.8571815
  41.9823790  24.4583631  25.5463552  42.4115276  25.1748085  26.8087053
  21.3947582  36.1815405  33.1759238  21.6342878  36.4505982  32.2890949
  21.7486215  36.8700600  33.7389112 116.0678684 103.0316537  56.1765242
 115.7064878 102.5827878  56.9408226 115.7439529 102.5297104  55.4286194
  13.5169744  34.8169518  34.1286564  12.6555777  34.4085550  34.2149091
  13.6687529  35.2369928  34.9752736  27.5172353  24.9630213  30.5133867
  27.9539084  24.5847702  31.2765884  28.2193542  25.0937986  29.8760843
   2.5009894  47.4423456  24.0340590   2.1442410  47.5528860  23.1527281
   2.2545908  46.5512991  24.2821670 110.5793005  21.9476151  73.3831120
 110.9304445  21.0669398  73.2514238 110.7991683  22.4160194  72.5778246
  56.6513014   2.2320344  18.3551371  56.7372274   1.8282349  17.4915421
  56.6829920   1.4969882  18.9674556  28.4980917  28.3137703  29.9566531
  28.2783580  28.1795621  29.0347314  28.8134623  29.2165446  29.9987435
   5.8825755  24.5630240  48.4566736   6.2189978  24.3863440  49.3352127
   5.9082097  23.7141109  48.0151796  67.7652693  30.6489277  51.3477755
  68.5263729  31.2092876  51.1962843  68.0672979  29.7688413  51.1231470
  22.1176887  30.0302887  65.2647543  22.9015231  30.3747797  65.6927299
  22.1194196  29.0969563  65.4771709  60.2065468  42.9903412  31.8786240
  60.1449728  43.7177420  31.2594891  60.2952623  43.4107256  32.7339840
   9.1216677  34.1475487  48.7673998   8.2007629  34.4053745  48.7262774
   9.3967044  34.0947342  47.8520870  45.3250122   9.6357560  10.8739126
  45.2348423   8.9589375  11.5447474  44.6512651   9.4238913  10.2278411
 109.6097457 107.8812610  58.4038019 109.0380608 107.2952395  57.9078293
 110.4330336 107.8825905  57.9155159  17.9581535  50.1493835  22.1856189
  17.0714772  49.8601484  21.9702578  18.5060680  49.7766399  21.4949036
  40.6651354   6.4678633  39.4667101  40.4022884   7.2830069  39.8941231
  39.8580766   5.9563875  39.4094586  14.9189103  14.0900099  46.9194460
  14.9364018  13.2603621  46.4423609  13.9935088  14.3335962  46.9424677
  94.4900893 107.9822504  28.2128191  95.3547298 107.6323261  28.4277153
  94.0946125 108.1813889  29.0614486   4.7987491  96.9281506  35.1972508
   5.3487092  97.4911427  35.7420540   5.2978641  96.1158382  35.1120234
  29.5632315  17.9492056  49.1082764  28.6425900  17.7047122  49.2024660
  29.7204781  17.9311013  48.1642532  19.6013916  12.0526361  50.5917692
  19.3066859  12.8971767  50.2509832  18.8416004  11.4780891  50.4977083
  46.1746311  43.3698368  14.4647861  45.8723736  43.4617853  15.3683448
  47.1295929  43.3786917  14.5296061  43.1787014   9.0625674  25.7186079
  43.7333679   9.6329558  26.2508035  42.3152256   9.4747478  25.7460022
  28.8445258  13.2152677  66.1256409  28.8359046  12.4189401  65.5945873
  27.9214716  13.4507143  66.2192774  28.6615944  10.4822719  39.6067739
  28.2452917   9.7817069  40.1089048  29.1148472  10.0301445  38.8951731
  16.4930761  42.3808861  52.3436022  16.7869139  42.6771927  51.4821529
  15.6497145  41.9598198  52.1772385  55.4832554  28.8271713  24.6931124
  55.0509405  28.9004707  25.5439734  56.4107084  28.9690518  24.8826742
  97.7194893 109.6871699  57.9117727  97.3563301 109.2155015  58.6613560
  97.5923907 110.6114105  58.1259155  15.5829954  24.8004293  33.3575296
  14.8328233  24.3238521  33.7129855  16.1603129  24.9334860  34.1093493
  38.5732579  25.4974866   5.6726009  38.3417773  26.2248707   5.0950533
  38.7527752  25.9102011   6.5173930 110.1138538  44.0433025  70.3625059
 110.6447869  44.8246336  70.5170012 109.2443317  44.3826818  70.1504087
  11.8803763  50.5753708  59.7528696  12.1939468  49.9032307  60.3579617
  11.5988648  51.2943840  60.3185558   5.5922824 108.0580859  40.8780479
   5.0909597 108.1130355  41.6916132   5.9099752 108.9491101  40.7318354
  97.1569704  91.4792632  27.8327370  97.7876329  90.8280086  27.5255513
  96.7651283  91.8292450  27.0326090 104.9455463 102.1882032  45.3575277
 104.1465341 102.0409678  45.8636236 105.5551206 101.5209245  45.6727886
  41.2810850  52.4954081  14.6526909  40.3497458  52.2976828  14.7513914
  41.5656376  52.7523899  15.5297434  51.0238075  52.6019859  31.5886760
  50.0753403  52.5976276  31.4597225  51.2745380  53.5206175  31.4913249
  36.8006182  32.1037436  24.5651960  35.9225392  32.0271254  24.9384761
  37.3772049  32.1878457  25.3246069  48.6499071  45.8136606  46.3611221
  48.4542465  44.8845291  46.4822245  49.5312977  45.9213972  46.7185831
  49.4402266  50.1802540  25.8956361  49.5357847  49.9236155  26.8128252
  49.8135471  51.0606241  25.8531165  37.0971656  11.4888072  22.7691770
  36.2402010  11.2804186  23.1412220  37.4032068  10.6625843  22.3951077
  15.8486021  53.2550192  42.0402145  15.6010401  54.1761971  42.1200895
  15.3962278  52.9528570  41.2526321  39.0351558  35.5259943  40.9822607
  39.3550968  34.9013543  41.6331816  38.0835271  35.4244709  41.0003710
  39.7410822  40.5979300  34.7184372  40.6163454  40.2157354  34.6546340
  39.4166756  40.6051970  33.8179159 111.4997541 105.5397596  66.9321251
 112.1104991 105.0473749  66.3836908 110.9975111 104.8682593  67.3937178
  30.4710007  20.4780078  49.7096300  31.2690830  20.1861310  50.1501989
  30.0038624  19.6693349  49.4997215  47.8078938   9.1852444  27.9352832
  46.9025612   8.9257437  28.1063437  48.2958555   8.8670075  28.6947918
  77.3147440  35.0381684  32.9434443  76.8518686  35.4779148  33.6566067
  77.4916220  35.7324433  32.3086739  37.4560356   7.3751837  61.4401388
  36.7129517   6.9382989  61.8562984  38.0922413   6.6757405  61.2909555
  59.8636007  22.6274538  27.7296782  60.1580811  21.7291236  27.8797269
  60.3357553  22.9063940  26.9451427  58.3483315  41.6057920  30.5428648
  58.7477350  41.4031887  29.6968985  58.9105177  42.2842836  30.9167981
  53.6654997  20.8360171  35.7393980  53.9531803  19.9251246  35.6782126
  53.2537222  20.8997726  36.6011429  34.3560934  35.4459643  24.3717599
  34.0647244  34.9595332  25.1429415  33.5475898  35.7614875  23.9680266
  50.4145813  14.1624439  20.5449867  49.9419403  13.8130820  19.7894824
  50.1484013  13.6022007  21.2740326  73.5754776  57.1986008  23.1655335
  74.5188093  57.0388889  23.1363368  73.3975124  57.4156046  24.0806675
  36.2869906   8.5074693  23.7285542  35.5874562   8.3221304  24.3550777
  35.8693695   8.4231496  22.8713989  57.2409630  57.4290562   7.9327369
  56.8752956  56.9305658   8.6635089  56.4814711  57.8384256   7.5182235
  75.6583612  77.9139949  80.0337668  75.7654875  78.0367089  80.9770043
  74.7650211  77.5847269  79.9350067  46.7176199  39.6678281  44.2594147
  46.1806870  40.3581238  43.8702822  46.8807936  39.9668884  45.1539373
  32.9108620  32.3675442  19.4853878  33.1320381  32.4717355  20.4108381
  33.6635113  31.9112611  19.1091502  58.3992767  32.9650855  55.7968140
  58.1612062  32.2706795  55.1825237  57.6242638  33.0732870  56.3480711
  55.8036518  34.8619890  36.5926504  55.8959770  34.7340822  37.5367618
  55.0135469  35.3941798  36.4991808  40.6286478  36.0046673  45.9813356
  40.5908060  35.1787210  45.4990387  40.0073147  35.8907628  46.7005062
  43.1971264  33.5154366  45.8145618  42.2570229  33.6726522  45.7266903
  43.2792425  32.9947901  46.6135693  36.1128211  34.0482855  31.7210913
  36.7266965  34.7687745  31.8635130  35.2497911  34.4619346  31.7386651
  24.2042565  20.8991933  15.6085646  24.4636464  20.0504541  15.9671593
  23.3699131  20.7295227  15.1711702  40.9979010  23.3146286  33.3046913
  40.2578974  23.1863046  32.7112603  41.3116693  24.1974783  33.1088495
  75.7062483  25.7156467  52.8857183  75.9244490  25.8524537  51.9638157
  75.8753586  26.5618181  53.2999945  61.8146229  62.6595354  46.5172482
  61.6694784  61.8361855  46.9833565  61.2370110  62.6086712  45.7556677
  52.5151491  49.5377636  38.4282231  53.1841469  49.7595072  39.0759134
  52.8466845  49.9015474  37.6072645  64.2288113  33.8599753  38.8282704
  65.0437880  33.5708451  38.4178448  63.6208439  33.1334114  38.6914682
  51.9067097  76.2281561  36.4061141  52.6332521  75.7445097  36.7991233
  51.8880320  77.0594406  36.8802953  25.2942395  43.7672043  20.5513191
  25.2798033  42.9082727  20.9735227  24.4485259  43.8301420  20.1074290
  18.0531573  56.2074518  61.9288731  18.3259726  56.9399357  62.4813843
  18.1892288  55.4325438  62.4740601  84.2236328  32.8984427  26.7034149
  84.8067951  32.1435094  26.6244268  84.0469646  33.1601977  25.7998085
  85.0369549  29.9576068  27.7948713  84.5533562  29.1346049  27.7239203
  85.2350330  30.1978111  26.8897200  44.7853184  49.4659472  35.9042382
  44.7027159  50.2318478  35.3360820  44.9625492  48.7410450  35.3047895
  12.0018268  54.6328545  62.4736071  11.4755809  55.2327728  63.0021858
  12.7905512  54.4832516  62.9949141  29.8818326  34.4058752  21.8353605
  29.2033863  34.3028331  22.5026846  30.5865312  33.8231301  22.1182704
  43.7901306  57.9257870  47.5493193  44.2722988  58.4223795  46.8881512
  44.2781448  57.1070147  47.6370001  63.4151888  23.2285213  31.1775303
  64.1168404  23.7447381  30.7807469  62.9704666  23.8400292  31.7644811
  31.7057896  53.3691263  83.6106300  32.2167969  52.6457787  83.9737797
  30.9434676  53.4361935  84.1856098  32.2304821  49.1744947  18.4353209
  31.6247869  48.4334946  18.4184325  32.3303127  49.3811083  19.3646085
  42.7765369  46.6587448  36.3722563  43.4385777  46.3357449  35.7610273
  43.2467413  46.7681885  37.1987939  52.9639626  24.5789623  44.6966362
  53.4552336  24.8810363  45.4605961  52.4909401  23.8065100  45.0061560
  39.0052271  63.9646244  47.2093868  39.6250129  64.6347284  46.9211864
  38.2265878  64.1117382  46.6724396  35.9423542  36.1091375  16.3144648
  34.9999809  35.9552598  16.3814414  36.0701728  36.4272547  15.4207659
  95.3401350  23.0422153  87.2162332  94.9330234  23.7005796  87.7793010
  96.0229396  22.6504745  87.7607955  74.3188763  23.3567905  31.1789846
  74.4229174  24.2714405  30.9166408  74.0808725  23.3988619  32.1051669
  82.6943302  59.3193054  30.4753327  83.4914112  59.3261480  31.0052752
  82.1170902  59.9520206  30.9027696  59.9734449  49.0596104  42.7598619
  60.4188061  49.8768473  42.5362444  60.6747246  48.4098291  42.8070688
  59.2599392   5.7874888  25.9248281  58.8286495   5.1186812  25.3929305
  58.7499380   5.8153433  26.7343664  39.0156269  33.2200694  33.5392451
  39.6820831  33.8811159  33.7265563  39.1122842  33.0408263  32.6039577
  62.8422165  59.6092033  44.4591761  63.5720825  59.2513275  44.9645996
  62.8363752  59.0964222  43.6509323  36.9094110  56.9841909  18.3340597
  37.4682474  56.2078619  18.2988107  36.0174298  56.6370249  18.3427548
  64.4050264  11.8495679  48.8858461  65.3486633  11.9825935  48.7959576
  64.0325546  12.2311652  48.0909395  32.9734254  41.9168568  35.1539731
  32.8068256  41.0150146  35.4281259  33.1594110  42.3842716  35.9683251
  45.0338125  27.9565883   5.8745396  44.5952654  28.1406975   5.0438708
  45.8584023  27.5406384   5.6230050  19.5566445  24.3944539  66.6594668
  19.7534686  25.3263940  66.7542572  18.6023933  24.3443097  66.7153187
  58.8832808  67.2069788  44.7030115  59.7348070  67.5216675  45.0064898
  58.3127546  67.9739332  44.7531080  47.3842621  46.0284996  40.5942631
  47.5720882  46.2559748  39.6836567  47.5891161  46.8232632  41.0868216
  71.9185543  43.3676386  30.8751464  72.7319050  43.5232353  30.3950596
  72.1275616  43.5961914  31.7808557  16.5574551  70.1102877  37.8512836
  16.0628235  69.5967436  38.4899092  16.1663878  70.9830475  37.8912234
  54.5589876  41.3819265  23.8753676  54.9496889  40.6119537  23.4621787
  55.1176071  42.1096706  23.6022973  65.4994583  64.5311880  56.4312553
  66.3072681  64.0630579  56.6422653  65.5392361  65.3279829  56.9601917
  44.4001436  36.9927406  37.1259880  45.0903749  36.9962668  37.7891588
  44.8136950  37.3665571  36.3478684  17.4839246  56.5247488  55.6856108
  17.4497247  56.2038660  56.5867710  17.1533537  57.4215317  55.7379818
  26.0794044  52.3886013  59.7315979  26.1455941  52.9790068  60.4821110
  25.7816195  52.9467916  59.0132761  55.6108809  52.5087452  41.1771917
  54.7534704  52.1050882  41.3118935  55.7429981  53.0547094  41.9522429
  33.6829543  67.5695562  24.9483180  33.5031486  68.5086679  24.9039388
  34.3982244  67.4922132  25.5796957  63.9358234  62.5184155  37.6626277
  64.5515299  63.1529188  38.0294323  63.5748959  62.9537773  36.8903446
  31.9144416  36.8821073  27.1707940  31.6820550  36.9898486  26.2485027
  31.0779047  36.9195247  27.6345205  61.2810373  54.4585752  43.0955601
  61.6962910  54.8240137  42.3143721  61.5780449  55.0216913  43.8103437
  39.1797996  76.8776512  47.1345711  38.8644481  76.3332033  47.8559351
  39.4014096  77.7136946  47.5446367  73.2467127  35.1142859  65.3842354
  73.8228559  34.9856567  66.1377239  72.5059271  35.6113267  65.7312489
  66.5004492  50.3112364  36.5902948  67.1332932  49.6141338  36.4176893
  66.6232109  50.5223942  37.5158095  68.7601948  64.3875504  52.2082281
  68.5010481  63.7463713  51.5464401  67.9467392  64.8366499  52.4380732
  22.8166294  40.1200199  70.3439331  22.1028996  40.7578278  70.3490210
  23.1454682  40.1357222  69.4451284  23.3354712  38.2208037  45.7399130
  23.2443666  39.1220212  46.0493279  23.0272055  37.6844668  46.4703560
  56.1389589  18.6889863  27.4152970  56.5561771  18.9870417  26.6070127
  55.2290344  18.5238111  27.1683455  58.2162666  58.4235811  35.7742929
  57.9933500  58.7934303  36.6285491  57.3806524  58.3717680  35.3102970
  77.5791407  45.8755779  37.7289820  78.0142021  45.5420685  36.9442987
  78.2250214  46.4551497  38.1329203  55.6975794  80.6704235  36.0533071
  55.0711632  81.1188221  36.6214395  55.1539278  80.1596737  35.4534578
  38.2166123  38.5148978  31.7216444  38.0791807  39.4518638  31.8610692
  38.4796286  38.4453559  30.8039212  43.6801529  50.3924417  17.9579842
  44.3422937  50.9339333  17.5283492  44.0019083  50.2858782  18.8531661
  80.8152199  46.7071676  54.7039890  80.4737282  45.8823299  55.0493336
  81.4013290  47.0291948  55.3888321  44.6404505  61.3065481  29.8251224
  44.5182276  61.9459772  30.5268502  45.4658985  61.5594721  29.4117212
  76.7904472  53.0717993  26.6891503  76.5691757  53.0916023  25.7580876
  77.6124763  53.5583782  26.7503738  83.8452530  80.0367641  24.6140313
  83.9912796  80.9701347  24.7681069  84.3283272  79.8483753  23.8094354
  56.3200331  53.9153910  43.5386753  57.2459698  54.0194321  43.7578630
  55.9255219  53.5523176  44.3316269  37.1207404  64.1781712  45.1157522
  37.3033118  64.6459675  44.3008518  36.2586784  64.4947481  45.3856850
  86.9225186  25.0369405   0.4754786  86.0164154  24.9414872   0.1820521
  86.8544555  25.1856851   1.4186053  46.0424137  52.1806526  40.9813833
  45.7244587  53.0238342  41.3041496  46.7465210  52.4068832  40.3736973
  69.0937042  67.9412222  11.2712324  69.0042734  68.8942337  11.2708318
  68.9489269  67.6866913  10.3599226  38.8088942  52.1901369  35.1650548
  39.2490268  51.7371225  35.8842874  38.7438488  51.5329409  34.4721651
  79.8811865  40.1533175  12.1632016  79.4678736  40.7444143  12.7924955
  79.2604637  39.4306493  12.0700085  74.6550894  57.5761175  43.5101795
  75.0918961  58.2006121  42.9310131  74.5125389  58.0620337  44.3224621
  71.1704254  49.8009825   9.9809790  71.1821127  50.6254101  10.4672050
  72.0928001  49.5592499   9.8971707  45.6183147  62.5825739  71.6010761
  45.1820230  63.4339094  71.5677452  46.5428686  62.7812958  71.4529562
  62.9527140  45.6299162  33.8223743  63.0782700  46.5787983  33.8319254
  62.6411676  45.4384327  32.9377818  54.2718744  76.7696571  46.0080576
  53.3219481  76.7530394  45.8914709  54.4866705  75.9010935  46.3481903
  49.8643255  62.2864437  53.6087751  50.7677412  62.5998831  53.6515045
  49.7451591  62.0228624  52.6963282  60.4644156  64.1154528  38.6784124
  60.2914810  64.9974585  39.0076399  61.1182499  64.2404652  37.9905868
  48.7130117  61.6687107  71.5204096  48.8337994  62.5454140  71.8851519
  48.4864521  61.8201733  70.6028271  57.7443838  60.0644445  11.6837096
  56.8791246  60.0646114  12.0930445  58.2596207  59.4556618  12.2129977
  42.2184515  80.4137802  40.5723047  42.2619915  80.7747555  39.6868467
  42.3845577  81.1627674  41.1447287  64.7157764  56.2517118  32.8760386
  64.9359703  57.1832418  32.8776526  65.4320526  55.8371210  32.3951054
  75.8301401  68.4218740  28.1896091  75.9506273  68.4050798  29.1390491
  76.6896057  68.1941986  27.8350472  61.0411263  68.9566517  45.4113054
  61.3716030  69.5615196  44.7471142  60.3835440  69.4618797  45.8893871
  52.1268034  65.5093050  35.1502132  52.6153755  64.7928667  35.5554843
  51.4061546  65.0780630  34.6909451  55.6906271  87.0735264  33.1976342
  56.1980343  87.6521206  32.6284313  54.7830582  87.3514557  33.0738831
  76.3754177  62.5138092  51.8310308  75.9426165  61.7593479  51.4313984
  75.7763672  63.2439184  51.6751242  40.6173849  88.0790234  48.8678217
  40.0151968  87.5706005  49.4110584  40.4316330  88.9906120  49.0930557
  62.5512075  59.7729635  56.4106941  62.4641848  59.3220806  57.2505522
  62.9865122  60.5978966  56.6257000  35.3347063  69.6405506  53.6535645
  34.5229220  69.3023443  53.2755995  35.1814651  70.5806732  53.7480211
  73.9572382  60.8278799  51.0232162  74.1160393  60.9122610  50.0830603
  73.8153505  61.7255592  51.3236761 109.6565247  57.3943233  25.0007105
 109.6595478  58.3031368  24.7002482 109.3776608  56.8902540  24.2362618
  18.0867279  83.0794525  47.0522022  18.5621822  83.1361580  47.8810358
  18.6138284  82.4892712  46.5136099  77.3412132  62.2064972  43.7233114
  78.1040287  61.7090321  43.4285736  77.6676846  63.0986643  43.8402891
  60.0963831  79.0915823  32.2254229  60.7467079  78.4778023  32.5668645
  59.8196173  79.5970297  32.9897213  63.8718510  74.2215967  48.4324360
  64.0372801  74.3256426  49.3694735  64.6939468  74.4774961  48.0142212
  70.1894331  63.4328556  41.0908461  69.4389248  64.0233564  41.0254383
  70.8719921  63.9583445  41.5082264  36.8074393  54.0304136  34.8803282
  36.3213348  53.3621216  34.3972969  37.6999235  53.6880779  34.9304342
  65.7321405  57.2670841  26.0396981  66.5341234  57.7737379  26.1675811
  66.0048532  56.5158939  25.5128455  70.0257635  75.7651901  50.6805468
  70.2823544  75.3611374  51.5094805  70.7674313  76.3231468  50.4463577
  46.1279058  63.9429808  58.2785130  45.4045105  64.1009569  57.6719046
  46.7644453  64.6285486  58.0759048  57.0894766  70.8159256  57.3884726
  56.1776447  70.6941462  57.6529789  57.3885345  71.5683174  57.8990698
  68.8610840  87.2921276  30.7195330  69.2130899  88.1218719  30.3972864
  68.7691355  87.4214363  31.6634917  66.0957193  21.6963506  62.1875906
  66.3712788  20.8821869  61.7663622  65.2953672  21.4635682  62.6582146
  43.2272399   2.9206408  37.0710254  44.0249503   2.8143919  37.5892925
  43.1082214   2.0750750  36.6384983  67.3863173  58.3383512  21.9322896
  68.1563377  57.7763844  22.0188379  67.3780489  58.8587093  22.7356529
  39.8614240  81.3442802  44.2485142  40.5528927  81.5802288  44.8669243
  39.6133375  82.1731091  43.8389540 101.3295000 103.8916445  89.3978717
 101.3963478 103.3176470  88.6347939 102.2363155 104.1075946  89.6153112
  28.4160137  72.8718758  38.1376600  27.7962208  72.6793289  38.8412333
  28.7694812  72.0176697  37.8894162  46.1180210  70.3497839  43.7720823
  46.2123156  69.4480419  43.4651566  47.0150948  70.6442595  43.9294910
  59.7060299  52.8375626  28.7191534  59.9850798  53.3014679  27.9297495
  60.3501415  53.0848932  29.3826103  45.9478760  57.6758909  32.2824383
  45.0361967  57.3870945  32.2416306  46.0777855  57.9305553  33.1959486
  77.8928423  64.1424274  49.6653175  77.5271368  64.1877937  48.7818956
  78.6280298  63.5341978  49.5892572  73.6789751  44.5415592  12.6259577
  73.6619854  44.4032812  11.6789508  73.0240059  43.9334059  12.9685962
  88.9591122  53.7998056  32.4749994  88.1248665  53.8282204  32.0065260
  89.5516396  53.3387136  31.8812537  51.0071850  63.7899494  67.6432180
  50.0884819  63.6632967  67.8802204  51.2661028  62.9626036  67.2373962
  48.1553984  28.5620260  18.0227160  47.5069523  28.3637333  18.6983120
  48.0285454  27.8813171  17.3618257  72.6683855  36.4221025  37.3527598
  72.3223114  35.5672288  37.0965314  72.8165674  36.8785334  36.5245414
  57.8621149  68.0282831  37.9731631  56.9061470  67.9925871  37.9402113
  58.1240749  68.2582664  37.0816970  50.2541399  64.2410707  33.7857413
  51.0157633  64.0396261  33.2420707  49.5107746  63.8880110  33.2968760
  27.7409744  61.1152792   4.6115810  27.2976112  61.2956190   3.7826422
  28.5653162  61.5981627   4.5523021  62.6409036   5.8491315  95.7035352
  62.8258306   5.1419152  95.0855754  62.8746968   6.6477670  95.2305061
  54.1058445  55.5906343  50.5007648  54.5043802  55.6631660  49.6335077
  54.2019320  54.6667671  50.7320070  50.2354956  89.4612026  53.0628204
  49.8919344  89.1108227  52.2409773  50.0874424  88.7634563  53.7011480
  65.8137035  55.2800989  14.8919928  65.5141640  56.0002422  14.3370998
  66.4664173  54.8239565  14.3608308  67.4110603  18.4684491  28.3785701
  67.7691412  19.3208873  28.1308627  67.0700312  18.1052518  27.5612450
  66.4339113  90.6605339   5.4864913  65.9722233  91.0176849   4.7278604
  65.7712173  90.1499081   5.9516042  32.5675559  65.3900528  36.8277097
  32.6217198  66.0130072  36.1029816  31.6451478  65.3995275  37.0832562
  73.8579082  66.5516901  50.7434797  74.8000956  66.3830614  50.7344484
  73.7856436  67.5051546  50.7872200  55.4982376  89.8277378  27.6070547
  55.5046177  90.7138348  27.9690337  56.0336494  89.8883343  26.8159199
  56.5568542  54.5541716  28.6045170  57.0533466  53.7687826  28.3745384
  56.2800980  54.9174547  27.7632880  78.1466913  53.2132006  53.3691263
  78.8475370  53.0448008  52.7392960  77.7858448  54.0596151  53.1052971
  74.6920872  59.6117020  37.9278326  74.0923262  59.2589760  38.5851765
  74.3008804  59.3650484  37.0897698  43.6157036 101.9460297  55.4096317
  44.2207718 101.4267921  55.9392738  42.9973984 102.3121166  56.0420179
  55.3316212  58.7194252   6.4084816  55.5056238  59.6445847   6.2351775
  55.4663706  58.2881975   5.5646116  61.8067265  76.6783476  32.7729154
  61.2125444  76.0851526  33.2325912  62.3357153  76.1050701  32.2181582
  49.4743538  55.1923323  33.7201023  49.1038895  54.5155382  33.1535888
  49.7450972  55.8861685  33.1188369  55.3357124  94.9370289  15.6002271
  56.1371326  95.2978230  15.9794092  55.5001211  94.9273682  14.6573031
  74.4645548  80.1033878  27.6976109  73.7687969  79.7052479  27.1745110
  74.1771412  79.9910164  28.6036992  84.1237926  68.3287096  34.5603251
  84.4603062  69.2102671  34.3995619  84.2717838  68.1825399  35.4946494
  81.7195320  85.3081703  20.8810592  82.0626163  85.1404858  20.0033307
  81.0680294  85.9981632  20.7557774  77.8447390  63.7024689  53.9845800
  77.1590757  63.4300518  53.3747578  78.4873772  64.1530800  53.4366703
  70.3240919  49.6319056  33.9022398  69.4592428  49.9853086  33.6939645
  70.6379747  49.2643833  33.0760193  47.9656172  64.0926409  54.4952774
  48.4158421  63.2812309  54.2604494  48.2703829  64.2878342  55.3814173
  66.1421299  89.1704845   8.5790056  66.3348293  88.9660168   9.4940430
  66.9928503  89.3878365   8.1978697  39.1545987  71.1777067  45.4587269
  39.2981815  70.5899000  44.7170401  39.8905635  71.7888641  45.4259491
  22.8641605  59.8360777  60.0701141  22.6810408  60.6888342  60.4644585
  22.6927400  59.2065430  60.7704973  49.6897650  67.9413176  28.9841175
  49.3297005  67.5893116  29.7981668  50.5887842  68.1844187  29.2052555
  40.4081059  46.0657930  35.3774357  39.9717283  46.5476990  36.0799837
  41.3396788  46.2424803  35.5085444  71.0838413  80.7331276  24.5671058
  71.6255522  81.4559269  24.8838663  71.2536049  80.0193119  25.1818347
  64.6736860  66.4015007  59.0634203  63.9433908  66.7786264  58.5728312
  64.6538448  66.8528986  59.9072695  57.8176165  72.5747252  36.6609693
  57.8928280  72.5779867  37.6152039  58.2875109  73.3602476  36.3809919
  54.1556549 102.4188423  34.4032645  55.0864697 102.6419640  34.3975163
  53.9609957 102.2270393  35.3206253 101.8167019  64.5309973  39.8914361
 101.5610504  64.2184162  39.0235853 102.7710247  64.5937490  39.8518801
  83.5424519  74.5899820  25.5566001  83.9849949  74.1972351  24.8041773
  82.7912617  75.0484800  25.1801515  79.6767807  70.4829073  15.9679937
  79.9816656  70.4178524  15.0629842  79.2700958  71.3477230  16.0221434
  91.9125462  35.4923487  21.6353679  92.5014496  34.9270129  21.1355472
  92.1114254  35.2957034  22.5507975  77.8260994  63.2561970  46.7114353
  78.7042856  63.3815765  47.0710135  77.7448606  62.3086786  46.6026354
  57.0782089  39.3746519  34.6035314  57.3921156  38.4736681  34.5265841
  57.0412302  39.6932483  33.7016678  58.5426712  60.4362679  55.1717377
  57.7045870  60.1659870  55.5469704  58.5843754  61.3788843  55.3328753
  61.1398172  80.2356625   4.7845492  61.3022280  79.3632936   4.4256225
  61.6353655  80.2538586   5.6032872  78.5684729  44.4093084  14.2739058
  78.6029148  44.0498209  15.1603675  77.6339769  44.4659805  14.0745687
  62.0699596  70.8723640  43.8952971  62.8208923  71.4610529  43.9712954
  61.5801859  71.2047863  43.1430674  68.5739422  61.7072582   9.9597853
  67.8221703  61.1255074   9.8473525  68.2704592  62.3745728  10.5752718
  49.2978382  21.0226417   3.3525324  49.6631241  21.4591527   2.5829497
  48.6348152  20.4294753   2.9992819  69.0425634  62.1117163  31.4113832
  69.8598433  61.6706038  31.1796331  69.2971182  63.0211878  31.5672565
  62.8375959  72.1949053  52.4479485  63.6184883  71.6418505  52.4241114
  62.1270657  71.5962744  52.6781988   5.6377065  81.1266994  47.6124907
   6.5231985  81.4896870  47.6318312   5.1018542  81.8225670  47.2318792
  65.6270313  77.0441723  54.8965836  65.1322794  76.4970350  54.2865849
  65.8103657  76.4691257  55.6395102  36.5359998  69.3920183  30.3623390
  37.4724102  69.4250679  30.1666927  36.4836621  68.9478302  31.2086177
  88.8604832  52.7414417  48.0972958  88.1123066  52.8354740  48.6868858
  89.4046021  53.5082626  48.2766104  53.2568741  85.0252438  14.0095043
  52.9970551  84.5579910  14.8034823  52.6857519  85.7930183  13.9856935
  87.6697254  36.5436745  32.7482724  88.0622768  36.5133834  31.8757939
  86.9419479  35.9234238  32.7051306  56.6628504  58.9051914  42.8529215
  56.4575577  59.8234415  43.0287266  57.3320007  58.9360332  42.1691704
  49.4720441  37.0398225  87.9879697  49.4031793  36.3037957  87.3798962
  49.9233800  37.7209748  87.4894066  68.0641890  40.4094791  11.8377078
  67.4633884  41.1160755  12.0743310  68.8335562  40.8570862  11.4856386
  71.6801167  58.9802933  21.2098312  71.7487001  59.5509529  21.9752550
  72.2525454  58.2399559  21.4109755  92.6972103  54.7863340  48.6308813
  91.9500542  55.3723097  48.7518311  93.2525063  55.2347755  47.9930925
  41.2832165  50.9588909  85.4125977  41.7690182  50.6879473  86.1915779
  41.2356186  51.9125509  85.4796696  42.2093010  57.3125172  34.1387987
  42.9770088  57.7702045  34.4814086  41.9741058  57.7980089  33.3480978
  63.5497475  65.7515526  52.7958107  62.7051067  66.1600876  52.6063013
  63.8361502  66.1611891  53.6121464  22.4225569  82.5844097  53.8695908
  22.0441103  83.2819366  53.3343649  23.1415796  83.0065823  54.3397141
  69.2166519  46.3331127  32.6866961  68.5418749  45.9722948  33.2617784
  70.0333405  46.2138748  33.1714988  28.3685207  47.2119331  34.1537023
  28.5134006  47.9169178  34.7847605  29.2192602  46.7798233  34.0778232
  68.8151550  98.5048962  11.9944513  69.2874050  98.8209152  11.2241626
  68.0532360  98.0483627  11.6376686  63.8979006  62.4479580  56.4130306
  63.1790161  62.7943087  55.8843756  64.5484734  63.1500244  56.4219952
  54.7145414  73.2531548  50.8729744  54.4985914  73.4791422  51.7777014
  53.8884592  73.3477354  50.3987646  79.1533804  41.3290977  39.0901661
  79.5911598  40.9556866  39.8551130  78.4629917  41.8823051  39.4556189
  56.8085146  75.0229454  49.7567129  56.6304970  75.9603310  49.8332071
  56.1090565  74.6045780  50.2586699  66.6703701  53.0848360  42.9904604
  65.7797623  52.9851580  42.6541328  66.9461250  52.1939039  43.2059479
  78.4316587  55.1547813  31.6643715  77.5158453  55.1147127  31.3888597
  78.7604427  54.2654800  31.5329361  84.6395683  67.6282644  37.1056724
  85.5937958  67.7034235  37.1103573  84.4736767  66.6892767  37.0219660
  33.2896566  58.2739830  43.6601400  32.8694487  59.0345955  43.2587385
  34.0848279  58.1397343  43.1444693  69.6978521  64.9463177  22.4279833
  69.3998575  65.8425665  22.2725177  70.5610418  64.9061012  22.0162606
  66.9089174  62.3550272  42.1359968  67.0024014  63.1851721  41.6687155
  65.9740543  62.2947598  42.3325300  82.1411133  85.8005238  32.8645682
  82.4952793  85.3043270  32.1266127  82.8020763  85.7129192  33.5513616
  92.0137691  64.0298319  35.9880519  92.8884220  64.0368080  36.3768673
  91.8691444  64.9335051  35.7075357  61.6388845  60.2861881  47.8887320
  61.1159945  60.1150799  48.6720181  61.6285181  59.4583607  47.4082851
  35.5412745  81.8648434  39.2741561  35.2877855  81.0247803  39.6565962
  35.1450467  82.5192356  39.8494911  71.6963911  63.8782358  46.0011578
  71.2590456  64.4128942  45.3385115  72.5269365  63.6275387  45.5967045
  36.1886907  61.4589453  55.9747887  35.9410000  62.2027969  55.4256344
  36.4638233  61.8533564  56.8024206  66.8729067  72.0826817  58.6992359
  67.1577215  71.1814737  58.8506985  67.3143959  72.3405981  57.8900337
  88.1898880  44.7262430  20.0056553  87.3557091  45.1728773  20.1501703
  88.8480759  45.4167652  20.0844121  42.4311209  61.4898443  49.6457958
  43.0665779  60.8077431  49.8629761  42.6534748  61.7483187  48.7513781
  52.5182915  55.3736544  20.1911926  52.0183039  55.5677319  20.9840226
  52.1813965  55.9881210  19.5391488   5.8600980  81.3092804  29.4095182
   5.2437031  80.7077408  28.9918566   5.3855389  82.1387577  29.4641352
  44.1762877 100.0461674  48.6303568  44.3742609  99.8359871  49.5429659
  43.7487841 100.9017277  48.6689281  59.3758488 110.0487232  26.3457823
  58.7012243 110.4048347  26.9239712  60.2019262 110.2836800  26.7684174
  52.3048639  63.1566238  32.0492959  53.1073284  63.0208969  32.5531459
  52.6092768  63.3906794  31.1724949  37.0957708  96.4467049  52.9704618
  36.3675833  95.8287144  53.0341578  37.7617979  95.9807968  52.4649286
  85.9909982  19.0866030  13.4973311  86.0879725  20.0279368  13.6412191
  85.6410521  19.0148390  12.6092863  11.0894836   1.0560263  38.6904597
  10.3463901   0.4803122  38.5098767  11.0105193   1.2641562  39.6214175
  43.3427715  64.2466545  29.3055820  44.0799904  64.3961287  29.8975277
  43.6074066  64.6607161  28.4841490   5.6374229   4.2764224  53.1940651
   6.1742557   4.7394885  52.5509405   5.2522433   3.5490931  52.7053213
  87.4275875  58.4506178  33.8155246  88.2821465  58.1910229  34.1598558
  87.0989609  59.0901232  34.4474053  58.8427019  63.0722284  55.6702471
  58.3192253  63.2207775  56.4577389  58.9913225  63.9476490  55.3127813
  19.9913037  60.4704571  50.4786539  19.6200395  60.4366255  51.3602734
  19.2497671  60.2943277  49.8995733  63.8707161  90.8087540  34.2927361
  64.2964602  91.4460564  33.7193060  63.4475088  91.3391781  34.9678445
  70.7761335  54.3874216  24.9136996  70.2984524  53.5919476  24.6785927
  70.6810188  54.9581242  24.1511488  76.3535494   6.6836871  13.5782242
  76.9368309   6.3725127  14.2704594  75.5180520   6.2521876  13.7570691
  54.2359781  69.1579628  49.8032045  53.3233070  69.2872763  49.5452452
  54.5885038  70.0437641  49.8887539  67.2350502  78.6239386  43.9941120
  66.4281940  79.1381359  43.9654255  67.2413540  78.2368040  44.8695087
  62.3619556  99.9083138  35.1835728  62.9773378  99.9205589  34.4505072
  61.5742302 100.3315544  34.8421168  72.9295331   0.3332891  91.6166838
  72.3073274   0.1768054  92.3270382  72.7098924   1.2073125  91.2940921
   4.6936000   3.5353316  48.4459352   3.9552177   3.3635939  49.0303421
   4.3759788   4.2157114  47.8522730  94.9721432 102.8222561  51.5437222
  94.5195389 102.0948982  51.9707298  95.8194447 102.4589920  51.2861252
  89.2324924 106.5911674  45.2886105  89.8214340 107.0193386  44.6672916
  89.6007729 105.7150841  45.4029560  15.3375382 100.5470753  13.7401581
  14.5276970 100.9633446  13.4450054  15.4910321 100.9126663  14.6113706
  30.5598701  16.7888106  34.8033190  31.1606754  16.4204539  34.1555643
  31.1236823  17.2801341  35.4007840  54.7125340 104.3766022  36.9712043
  55.3712845 103.6839771  36.9207907  54.1361856 104.1073895  37.6864505
   3.4613956   4.4055212  22.4129677   4.0742362   4.0780390  21.7546225
   3.5923064   5.3537215  22.4114037 113.3697862  42.0962180  44.3474913
 113.5825414  42.1187342  45.2804756 113.9833087  42.7121962  43.9469910
  55.9188271  89.3002892  19.9220109  55.2509451  88.6149979  19.9453366
  56.2043333  89.3875408  20.8314633  51.5350103  72.6389980  11.1551297
  51.9374657  72.1435261  11.8684125  50.5955410  72.4876213  11.2586308
  11.6792167  12.0653380  66.6927481  10.9067596  12.6281775  66.6403008
  11.5378917  11.4011801  66.0180902  44.9394608  93.4080315  24.1169691
  44.8545408  92.5589848  24.5507240  44.3523216  93.3516407  23.3630967
 103.6227989  85.2047157  44.5699453 102.8351974  85.5577087  44.1560364
 103.4651661  84.2618942  44.6197176  83.4723949  58.3801365   1.1154792
  84.1249561  59.0777254   1.1768148  83.9323139  57.5951147   1.4128834
  17.1221889  10.6829966  52.4901199  16.5722812  10.3823412  53.2136059
  16.5482772  10.6532038  51.7246342 102.3811913  84.8021889   8.0380762
 101.9070244  83.9803410   7.9117501 102.2610950  85.0079346   8.9651579
  90.7919693 104.4158936  52.6611376  89.9242783 104.6887684  52.9592514
  91.0422421 105.0768185  52.0155573  71.0144424  95.9104824  48.4945869
  70.0807524  95.7075500  48.4373951  71.4506340  95.0667477  48.3758974
 100.2610874  97.6213360  58.5052919 100.6219769  97.2476292  57.7013445
  99.3129253  97.5964832  58.3763838  71.9888258 101.6339779   3.3896264
  71.7064095 101.0363293   4.0819257  72.4716139 101.0794735   2.7767101
  93.9654350  93.2299900  43.5151052  93.4611225  93.1757927  42.7033377
  93.3579350  92.9373455  44.1944695  27.8835511  97.5116730  43.2532263
  28.2829356  98.2356739  42.7710056  28.5741901  97.2055531  43.8410568
  87.5698662  90.2381706  48.6626625  87.4874401  89.9899960  47.7418804
  87.8989029  91.1367607  48.6399937  74.1208744  91.2525463  49.7230530
  73.7019444  92.0458698  49.3893290  74.6616220  91.5558815  50.4523039
  34.0460467  73.1462955  60.1517773  34.6418881  72.5460196  60.5999708
  33.5940790  73.6072636  60.8585072  18.9253963   3.6780680  75.9278917
  18.3475078   3.6421717  75.1656628  19.3978465   2.8457964  75.9096718
  92.7372265  87.6283360  18.0051577  92.8932858  87.5504017  17.0639861
  91.7965221  87.7888680  18.0794787  97.6148891  94.0754223  24.4781399
  97.3725033  94.1261005  23.5535240  96.7871094  93.9257812  24.9348879
  99.3860692  18.7334670  77.1612072 100.0342292  18.0750216  77.4113512
  99.5645398  18.9061488  76.2367821  50.1603842  85.0075531  55.1090765
  50.9203386  84.4413662  55.2437639  49.5985937  84.8383331  55.8653784
  11.1948741  28.2619894  60.0506783  11.8318427  28.7803973  59.5589924
  11.0271705  27.4999465  59.4962406  11.5249217   8.4701098  53.7573767
  11.7797721   9.3750132  53.5772991  11.0560287   8.5146464  54.5906830
  98.0849648  79.1904449  54.1482687  98.0827904  78.8619852  55.0473499
  98.3224106  78.4308910  53.6163616  92.9978085 107.1338940  53.5361290
  93.2542992 106.2139034  53.5997963  93.5623550 107.4931240  52.8516769
  56.3445044  89.6786594  37.0399404  56.9687939  90.3797054  36.8527842
  55.6193542  90.1164150  37.4857712  23.3063472   3.6192358  78.1373215
  22.7166141   4.3474902  78.3324957  23.0462898   2.9300250  78.7485361
  15.2104515  95.0484562  38.3442163  15.6051487  94.2852688  38.7660956
  14.2932171  95.0252533  38.6169362  96.9515419  99.6160126  15.4698002
  97.6310825 100.1693344  15.8548892  96.8976212  99.9024391  14.5580530
  81.6554165 105.1386929  87.1253586  81.8553543 105.1303101  88.0614090
  80.8528233 105.6557369  87.0565033 104.5653439 101.3990307  36.3435674
 105.0031471 101.3735676  37.1943927 104.4112778 102.3297024  36.1812449
  51.9088554  86.2411690  36.5079403  52.3376131  85.6882954  35.8546972
  51.0004711  86.3008976  36.2121296  99.0559006  76.9843578  27.8615570
  99.2010307  76.2726641  28.4849834  99.9272728  77.3493958  27.7076840
  79.9569273 105.4466057  48.4602404  79.3583536 105.7155991  49.1570759
  80.6531429 104.9706745  48.9130020  16.6914619  21.2680090  37.9620671
  17.6118339  21.1292876  37.7386689  16.6148055  22.2141875  38.0849576
  13.2329334  31.8603934  36.7251921  13.0965198  30.9184874  36.8273067
  12.7658046  32.2514857  37.4634767  86.1676598  74.1916084   9.5806813
  86.4495564  75.0441504   9.2491031  86.2104702  74.2788982  10.5329311
  99.8074150 101.9045830  18.7321758  99.2862892 101.4815140  19.4145823
 100.2168465 102.6501846  19.1711259  99.1645145 106.8399525  29.5575643
  99.7605133 106.4553642  30.2003026  98.8973522 106.1033058  29.0078282
  67.5719738 100.2941418  40.1229525  68.0568266  99.5444489  39.7778416
  66.6538572 100.0273609  40.0769186  76.4280224  97.9568195  39.2113256
  75.8371973  97.7554417  38.4856462  76.0369253  97.5187588  39.9672246
  89.9284458 108.3379364  40.3651285  89.3636990 107.6455498  40.7084799
  89.3365479 109.0733624  40.2068996   7.3650993  10.2330721  68.7870932
   8.1769241   9.9272479  68.3825493   7.5997985  11.0668601  69.1944695
  91.5130520  95.9019279  53.2017851  91.2035656  95.0499439  53.5092878
  91.2643814  96.5119839  53.8962078  25.6527293   8.6030234  29.0549946
  26.2385333   7.9785670  28.6270618  25.7473434   8.4185256  29.9894691
  35.0591911   7.9659976  30.8222294  34.2233432   7.6571215  31.1717749
  35.4426063   7.1958388  30.4026270 103.2293052  29.4519366   9.1741759
 102.6189059  29.4929636   9.9103546 102.6994819  29.1392268   8.4408772
   9.0264267 107.9714584  26.6378522   8.4921974 107.4806309  27.2622800
   8.7729019 107.6257420  25.7820320  84.9466610 100.6124496  66.6717768
  84.1318703 100.5859566  67.1734238  85.5895710 100.1832867  67.2363234
  63.8716221  88.1463528  34.4925547  64.8169804  88.1182766  34.6400023
  63.6887980  89.0625763  34.2843699  60.2809668  83.2816410  33.1390476
  61.2229443  83.3008862  32.9700947  59.9004698  83.8058090  32.4342752
 113.0764359  14.9012888  21.7357326 113.1435746  14.1939963  21.0942745
 113.9823693  15.0881899  21.9818735  96.1428899  14.3006075  19.0944970
  96.0073584  14.9002684  18.3608246  95.5417174  13.5752524  18.9251745
  79.1999006 101.7339325  35.9854531  80.0673771 102.0547009  36.2320995
  79.1842031 100.8268738  36.2907815  99.7079182  99.4115734  60.3887701
 100.1208401  99.1728306  59.5588732 100.4218292  99.7674084  60.9178686
   5.7194961   9.3478716  35.0414157   6.3265861  10.0817049  35.1371050
   5.1841319   9.3749465  35.8344340  93.4352589  58.7841129  46.4696932
  94.3549156  58.6708879  46.2296247  93.0821037  59.3664980  45.7971334
   9.6099818   7.4789656  18.8207459  10.3266872   8.1125773  18.7875319
   9.8838199   6.7764796  18.2310283  85.5777740  98.0105591  43.5467100
  85.1502132  97.1689224  43.7050295  84.9583530  98.6601830  43.8791895
  82.7063847 109.3164062   0.4836752  82.7294731 110.2288437   0.7720430
  81.8454361 109.0003204   0.7576855 107.8539008  23.3475913  45.6539011
 108.1773299  24.0791453  45.1281166 108.6452025  22.9071558  45.9638834
  77.6241016  93.4192467  33.8565087  77.8522396  93.5531139  34.7764349
  78.2194138  93.9944839  33.3759499  88.3349419  97.7466583  54.8376465
  88.2659340  96.8397331  55.1359081  88.2801533  98.2671833  55.6390715
  41.7399788 102.1188545   1.8981139  42.3935127 102.4317265   2.5235975
  41.2149811 101.4908123   2.3942792  15.7887614  39.5828284  59.6538544
  15.9649909  40.0559844  58.8406467  16.3789333  38.8297499  59.6255016
  81.2815952  96.5433216  66.9572496  82.1017170  96.9451237  66.6705608
  80.7260799  97.2827148  67.2040749  82.8497887 108.9181042  48.9802361
  83.0016613 109.0877056  48.0504990  83.4005165 108.1607628  49.1786337
  77.0745468 100.7797718  79.0643692  77.8566790 101.1118698  78.6236763
  77.3946762 100.4493618  79.9037600  18.7581981   6.3964690  52.4999952
  19.2856563   5.9635199  53.1712532  18.1599010   5.7165946  52.1900892
  33.0192817   4.6408022  85.6965542  33.7349094   4.4945944  86.3152027
  32.9809249   5.5918349  85.5951023  90.3944492  86.1014271  27.1323848
  91.0249519  86.1057091  26.4121866  90.6584835  86.8361187  27.6862335
  24.8077644  23.8232935  52.7196360  25.1122726  24.1742648  53.5564899
  23.8553394  23.9119280  52.7550650  90.8541679 100.4630566  65.4754829
  90.2225876  99.7593498  65.6242275  91.4063835 100.1424885  64.7623730
  69.4961119  93.5029221  34.7836518  69.4673491  94.3811989  34.4041276
  68.9569902  92.9712105  34.1981053  28.2570613   1.5158404  46.0515642
  28.8186134   2.2886504  45.9911585  27.4874271   1.8162096  46.5349627
  76.9617176  82.5810432  21.2095976  76.8455553  82.1526814  20.3615165
  76.9593763  83.5166931  21.0076499  82.4963760  85.2599907  30.2321267
  83.2654381  85.8057308  30.0679970  82.0873833  85.1578045  29.3727589
  82.5074482  71.1328125  35.0395656  82.5936413  70.6984854  34.1909432
  83.2700253  70.8386517  35.5377340  68.9042377  71.7847061  26.1541104
  69.6940327  71.6379690  25.6336117  68.2056379  71.3636112  25.6532407
  95.6902981  97.7133656  55.6495762  95.4146576  98.5890388  55.9205961
  96.5844345  97.8321648  55.3292131  33.0184139   4.3143214  52.4231243
  32.2090686   4.7877921  52.6155329  32.9741920   4.1362895  51.4836645
  26.9746268  20.4822672  80.6163692  26.9785846  20.4351748  81.5723991
  27.2324527  19.6053065  80.3322983 115.1329202   9.1996516  40.5718184
 114.4172305   9.4906367  40.0067139 115.5735415  10.0074805  40.8354521
  87.7890968  76.6989899   5.6761646  87.6754475  75.7527018   5.7647943
  86.9072628  77.0314789   5.5086726  85.6092072  83.5669518  37.6120973
  85.9542084  84.4216824  37.8702545  86.1439323  82.9369736  38.0952406
  78.2061434 104.0740490  65.1213551  78.8441610 104.7844410  65.1884747
  78.6057997 103.4496021  64.5159054  62.3014927 108.7232685  66.2194347
  62.1258783 108.6425114  65.2819586  63.2509804 108.6278725  66.2943411
  97.2632122  57.3743105  37.7604890  97.0171070  56.5211821  37.4029398
  96.5459919  57.6020050  38.3520746  81.6674137 108.4217358  41.1100388
  80.7298660 108.4891224  40.9291983  81.9314003 109.3123436  41.3410330
  26.3403762  44.4711340  68.9880705  25.9885848  44.5515383  69.8746443
  25.8353866  43.7600649  68.5935926  12.9476780  80.7554245  40.4960108
  12.1954293  81.3391209  40.3977680  12.5630230  79.8874044  40.6176805
 101.7541313  87.0830059  58.9969397 101.5017319  87.6325607  58.2549715
 102.4627686  87.5657463  59.4224215  85.6133938  85.7282352  27.6282692
  86.4730167  86.0029411  27.3091650  85.1030731  85.5683994  26.8343830
  85.9510136  80.8817005  47.4166679  86.2878895  80.3763866  46.6768026
  85.2553654  80.3355598  47.7827930  63.1302786  69.3148470  20.9602046
  63.9498758  68.8860750  20.7139325  62.5214815  68.5937929  21.1204314
 116.6199559  23.8654841  14.8015976 116.7883843  23.1454600  15.4094005
 116.3335246  23.4363211  13.9953685 114.1475201 100.9270000  32.6493883
 113.2213593 100.8896542  32.4104929 114.1958714 100.4757214  33.4921479
  61.3914442  67.8467798  31.0517907  60.9813929  68.2697678  30.2973557
  61.0278368  66.9613457  31.0568690 116.4130211  89.6787739  74.9644899
 116.1974049  90.2428150  75.7071829 115.6434822  89.7252083  74.3971348
  98.3850002  96.6291332  39.1416359  98.8141537  97.4818993  39.2112947
  97.4588871  96.8135643  39.2982626   1.2865413   1.9679678   4.5889106
   1.3791574   2.8503073   4.2295617   1.0163129   2.1062220   5.4967082
  10.6304420   7.2577132  29.4560361  10.5872024   8.2138957  29.4470501
   9.7660602   6.9817198  29.7608352  75.6179857  88.0696201  80.0410557
  75.4447842  88.1693649  79.1049528  75.1302052  87.2854042  80.2926636
  87.4181843  79.3598557  91.3325024  87.1674252  78.6538029  90.7368183
  88.3753109  79.3488884  91.3274670  75.8899927 107.3888683  39.6526456
  76.2789345 107.7110672  38.8395357  75.1562738 106.8441296  39.3677831
  75.4642820  96.5171623  41.3125229  75.7688761  96.3698292  42.2079277
  75.2383280  95.6447983  40.9897995 115.0527573  56.0970068   1.4924803
 114.1179276  55.9016371   1.5569177 115.0892067  57.0360327   1.3104704
   6.7548145   4.4240130  45.3950071   6.3716853   3.5468424  45.3976250
   7.5943721   4.3173350  44.9478006  27.5538886   5.0904692  80.5959606
  27.2020305   5.9683169  80.7436752  26.8501533   4.6229399  80.1460552
  44.3060493  86.8388367  57.3711443  43.5344267  87.1602631  56.9047594
  44.3752337  87.4059868  58.1391191  64.9665117  98.4739399  37.0835590
  64.0470171  98.3263016  36.8622828  65.2928257  97.6111889  37.3393297
  92.8848457  78.4154415  44.6922255  92.1686172  79.0417528  44.7970152
  93.6763763  78.9536619  44.6976042 106.6695976  72.1966171  57.1776152
 106.2551212  71.3561344  56.9825888 106.8494034  72.1627092  58.1171656
  79.7891140  69.6663523  35.3219604  80.3208542  70.3184938  34.8656845
  80.0353050  68.8330793  34.9203610  79.2097950  93.7588692  56.8254042
  79.1976452  93.7132454  57.7814388  78.3134127  93.9936733  56.5854120
  66.7144471  66.8630399  92.7384369  67.6443845  66.6746129  92.8647451
  66.5669232  67.6758374  93.2219984  93.7393856  90.7714367  71.1405563
  94.1738701  90.1061249  70.6068659  94.3935394  91.0190392  71.7940187
 113.8451862 107.1468449  70.3841972 114.6738720 106.7519188  70.1130104
 113.8470650 108.0122185  69.9751091  81.0213470  92.3314571  69.2477274
  81.8795300  92.6888275  69.4758511  80.9301281  91.5557480  69.8010826
  99.9541187  77.7913141  36.5414047 100.5743313  77.3164082  35.9881973
  99.1576576  77.8487301  36.0136056  89.1720867 106.1599827  25.6098056
  88.9022732 105.7591343  24.7835135  89.5916939 106.9807911  25.3520608
 115.7143182   1.9901885  46.8577719 115.1640099   2.5737418  47.3801327
 115.2118653   1.8403471  46.0569429 106.8038625  21.8104399  70.3997421
 107.3979396  21.1373080  70.7316828 106.8908185  21.7584074  69.4479179
  26.0200942   1.7256773  50.1687479  25.3027213   1.6761816  50.8005428
  26.7672313   2.0386160  50.6787348  98.5923958 101.1318016  35.3523660
  99.1665840 101.8884754  35.4706717  98.4782696 100.7775402  36.2342405
  80.1070690 108.4797764  78.7569571  80.0720119 107.8300285  78.0549431
  80.5778313 109.2203331  78.3746052 103.5000706 101.3094330  40.7195807
 104.2703533 101.3445282  40.1524210 103.7937355 101.6921520  41.5463305
 107.9570407   1.7348803  46.6510725 107.4265689   1.2490214  47.2825623
 107.4180526   2.4903143  46.4164734  85.3612232 109.6521664  16.0669315
  84.8300171 109.0937424  16.6345763  85.9746742 109.0504551  15.6451929
 106.1602879 108.7067890  22.9904294 106.0074711 109.2641068  23.7535000
 106.6541862 109.2597675  22.3850226  20.0003970  27.2428454  41.8784094
  20.5235923  26.6692484  41.3185024  19.8243011  26.7190112  42.6599598
  97.7263040  18.5952891  53.8066721  96.9288272  18.2573641  53.3991528
  98.1590337  19.0909232  53.1114531  20.1885665   6.0469378  45.5944490
  20.2535880   5.1042689  45.4415464  20.0428355   6.1271990  46.5370798
  18.8084281  28.7121905   1.0998934  18.0676807  28.1886614   1.4055620
  19.5579398  28.1189383   1.1501349  88.0051708  95.4786587  29.7360826
  88.7572193  95.5064678  30.3275800  87.6179981  94.6153927  29.8813415
  27.3289264  16.2829817  40.3784084  26.5462650  16.7003096  40.7382727
  27.3674453  15.4310454  40.8130932 103.5136813  25.0999487  15.8347929
 104.4151658  24.8021925  15.7127380 103.5130042  25.5141104  16.6977501
  27.9994930  13.1204451  12.3746967  28.5812534  12.6659907  12.9840040
  28.3544887  14.0077818  12.3213160   6.4508480 105.7419872  19.2499113
   5.7860703 106.2655163  18.8024569   6.8852276 105.2563286  18.5487044
  26.5765632   1.8225707  66.4884138  26.9532455   1.9612444  65.6194401
  26.8237842   0.9263934  66.7163944  18.4052718   2.3318900  10.6096864
  19.3555320   2.2564353  10.5228984  18.0778659   1.4498747  10.4333603
  20.4499877  10.4636420  75.3225374  21.0872138   9.7893847  75.0868464
  20.7346595  11.2407816  74.8416662  48.9221824   3.3197726  70.6683254
  48.8849319   2.9255808  71.5397978  48.0954898   3.7950266  70.5848837
 102.0487136   2.7611483  41.8376207 101.6645879   2.8086890  42.7130747
 101.6031426   2.0239104  41.4202738  43.4310878   6.0292662  39.1666842
  43.8662685   6.6994322  38.6396885  42.5204051   6.3194312  39.2186809
 102.3752308  97.3054504  49.5708656 102.1252346  96.7643452  50.3198338
 103.1163788  97.8228188  49.8859310  44.2056716   5.7178439   6.6574365
  44.3416751   4.8163260   6.3658744  44.8437751   5.8411349   7.3601806
  95.5561543  97.3419857  77.2781181  95.9422970  98.1733704  77.5536633
  94.7135735  97.3074722  77.7309942 108.2171440 103.8066959  10.6459928
 108.9879894 103.6737919  11.1976790 107.9425526 102.9230022  10.4012108
  93.2507706 107.8002262  42.9121590  93.1240177 106.8671227  43.0838633
  92.5800800 108.2340813  43.4395885  25.4783214  13.1707610  73.3878946
  25.4258788  13.1402243  74.3431664  26.1199916  13.8571013  73.2050657
  92.5187969  76.8736506  37.8520918  92.1190548  76.0565805  38.1501484
  93.2830238  76.5960884  37.3469710  12.1567947  27.9787816  92.0837946
  12.4406844  27.1995630  92.5617691  12.9322654  28.2563962  91.5961452
  97.4353600  87.2577572  26.2764716  96.6029930  87.7253342  26.2073731
  97.5509930  86.8466854  25.4198050 106.1581230  72.8452921  35.7700896
 106.8167686  72.2254658  36.0834980 105.3378963  72.3521757  35.7871056
   9.5978016 107.5622654  16.1764693   9.5991749 106.9598103  16.9202971
  10.2635903 107.2129345  15.5840862  48.6878932   3.7357081  40.7178307
  48.9088119   4.6601904  40.8307934  48.2104934   3.5044421  41.5145969
 116.4411640 103.6112309  72.7101946 116.7378139 103.1438923  71.9292784
 116.4227104 104.5311356  72.4462509   6.0158408  10.8658732  45.7325077
   6.6622794  10.1649703  45.8166695   5.2696574  10.4525984  45.2981710
  65.0446224  99.4719601  50.0894403  65.6914616 100.1747799  50.1517391
  64.2198324  99.9212265  49.9047518  35.6282294  18.2802332  56.4952564
  35.8816684  19.1975821  56.5976048  35.9040321  18.0532015  55.6072092
  24.9694980  16.3245524  71.0535002  24.2722476  16.6933478  70.5112171
  24.6723521  16.4633883  71.9527531  94.1024590 104.5189476  36.9940948
  93.2523727 104.5078182  36.5542459  94.3097210 105.4483700  37.0912433
  30.3325618  29.4170130  34.5104694  29.9670757  28.9647139  35.2707839
  29.5875228  29.5355738  33.9213252  10.3121246  14.4389571  61.2879610
  10.0584663  15.2548254  61.7195368  10.1695216  13.7630881  61.9506025
 107.6268101  80.4604435  47.4672651 106.8519592  80.4694271  48.0291986
 108.3598614  80.5948734  48.0679274  38.9100230  10.1083697  13.6236203
  39.7992576   9.7821368  13.7617302  38.9757121  10.6602610  12.8443027
 115.9434098  30.0077857  28.2289147 115.0908488  30.4003085  28.0410266
 116.2947768  30.5315436  28.9489508 109.1660786  91.1728477  46.0619831
 109.3614292  92.0541954  45.7437086 108.2495689  91.0304356  45.8254099
  41.8993057   5.2386034  25.9562850  42.7254928   5.3286971  26.4311910
  41.8929828   4.3293990  25.6570387 109.0209770 106.4871788  13.6867297
 109.5517826 107.1295929  13.2157826 109.2287445 106.6349983  14.6093428
   4.0283073  20.9802474  85.2379036   3.6427272  21.8525446  85.1563358
   3.5704768  20.4537714  84.5825863  73.6173677  62.2174501  28.9567399
  74.0958643  62.1178055  28.1337309  74.2165279  61.8830729  29.6241426
  32.0823825  20.7428683  58.3611631  32.3138583  19.8832358  58.0094767
  31.3093627  20.5802477  58.9017487  24.6923125   3.9220370   2.6274872
  24.1401065   4.0483702   1.8559030  24.4978297   3.0309428   2.9179117
 104.8210430 103.6316395   7.1625537 104.5717621 104.5476913   7.0403254
 105.3240967 103.4135723   6.3779449  49.0478481   6.4746035  66.9743729
  49.1597999   6.7983950  66.0805845  49.7708095   6.8672217  67.4636698
  98.9295387  72.8418636  49.7350883  98.7833595  73.6771822  49.2911196
  98.2480145  72.8048277  50.4061937  96.8059349  97.6374054   8.7618393
  96.5620232  97.5375938   9.6820426  96.9018173  98.5820389   8.6405724
   3.8533843  12.4337233  46.5745258   4.6294368  11.8978346  46.4108610
   3.4535182  12.0448817  47.3524380  99.9056149 100.2929592  32.6191449
  99.3106651 100.5727577  31.9234586  99.4630718 100.5465221  33.4291387
  11.6613162   3.4124793  55.7734108  11.3909400   2.7769507  56.4361572
  10.8400214   3.7447585  55.4110622  95.3306103  85.2254581  42.6402378
  94.7581863  85.4288101  43.3799744  94.9903488  84.4005775  42.2937775
  27.0088542  -0.2002775  92.8796101  27.9265750  -0.1685487  93.1498432
  26.6414512   0.6304873  93.1813812  16.6285194  21.1245001  33.9532328
  16.2735618  20.3471411  34.3844461  17.5754321  20.9845675  33.9487624
  95.3062534  99.3121147  22.4291706  95.2487087  99.8843670  21.6640306
  95.9818077  98.6736965  22.2005177  41.1630309   6.2644709  21.2170005
  40.3169120   6.0456313  20.8265924  40.9725440   6.3902606  22.1465802
  52.1994460   1.4119090  14.5388663  51.6237701   1.1096228  15.2413297
  52.7462829   2.0819987  14.9489820 110.2351856  54.6268559  49.2647362
 110.3921127  53.8433886  48.7376833 111.0786724  54.8100758  49.6785021
  25.9874976   3.4789408  33.1202102  25.0550140   3.2841433  33.0265617
  26.3448299   2.7220572  33.5846281 113.3672905 103.1234455  23.7194347
 112.4413109 103.0978584  23.9605379 113.7164116 103.8805389  24.1897106
  82.6495361  86.1578560   6.6132230  82.5021458  85.2289391   6.7910731
  82.2904778  86.2937546   5.7363892  25.2701438   7.0255126  58.2109594
  25.3975070   6.4241351  58.9446831  24.4916785   6.6949500  57.7626896
   4.9646324  86.2646198  42.1149397   5.0361866  85.4169273  41.6761446
   5.8708329  86.5425396  42.2482872 110.5082816   9.2260779  41.7102003
 110.7201117  10.1518572  41.5906143 111.3425321   8.7721480  41.5910006
  95.2445191  25.7006014  56.9060850  95.1820439  24.7463263  56.9472170
  94.7837180  25.9363116  56.1008883  25.1187081 106.4135647  59.7361708
  24.2468590 106.1781883  59.4188309  25.6582970 106.4534855  58.9465618
  11.7155135  16.7304839  58.5920811  12.0561183  16.7724551  59.4856453
  10.9496177  16.1597193  58.6542702  53.2276422  57.7610769  94.0761091
  52.4945813  57.2021856  93.8182457  53.4390336  57.4828519  94.9672545
  36.2396205  13.6395110  43.4332609  37.1928943  13.6822165  43.5085487
  35.9173930  14.1229857  44.1939545 107.1078491  62.2100019  38.1138396
 107.1228409  62.8652811  38.8114214 106.6275597  62.6304579  37.4005556
  34.3550361  12.0094431  53.7552691  35.0390971  12.4732340  54.2381763
  34.5823920  11.0841788  53.8470936  30.3093589  20.5444945  34.8163652
  29.4788039  20.2348555  34.4550610  30.0766719  21.3283289  35.3140497
 101.5553474  92.8815556  74.3421078 100.8859825  93.5581779  74.2403746
 101.1718082  92.2556686  74.9564314  31.8861736   4.9531687  21.8758178
  31.0365833   5.3761519  21.7512560  32.5255931   5.6311835  21.6574740
  83.9037228 108.5659409  38.2870221  83.7510967 109.5036983  38.1705952
  83.0433464 108.1657982  38.1610727   1.5328801  10.7325114  63.4439993
   2.0022739  10.1649703  64.0553856   0.6258643  10.7152880  63.7493849
 113.8391036  20.8431662  42.8145266 112.9130382  20.6838454  42.6321697
 113.8435429  21.6261328  43.3651352  72.1049595  87.8939152  35.5933070
  72.9232359  88.1961536  35.9874058  72.2828913  86.9893169  35.3358674
  80.9151840 102.7922821  55.4921722  81.5908241 102.1956730  55.1699972
  80.5658340 103.2069016  54.7033358  17.9577411  25.7897128  14.9444127
  18.5774863  25.0629176  14.8818195  18.4763301  26.5656699  14.7318268
  90.1326656  99.7052956  70.3770256  89.2610645  99.7883797  69.9902058
  90.7221413 100.0783443  69.7215891  96.8388653 108.4192085  48.0903530
  97.3826790 107.6365852  48.1798315  96.5752506 108.4237671  47.1701813
 113.6801147  97.1521664  57.3340082 114.6034241  96.9638062  57.5021076
 113.2273579  96.8539524  58.1228733  29.2035926   6.5437354  70.0351667
  29.7057117   6.8134726  69.2661762  28.4795631   7.1682681  70.0795984
  25.0597919  18.2315386  37.5622225  24.4945205  18.5001124  36.8379569
  24.4593776  17.8654612  38.2116246   4.1330380 104.1450024  81.3324165
   3.8956112 104.9615097  81.7719460   3.4991497 103.5053062  81.6567612
  66.8339491 106.0916328  41.5037298  65.9931564 106.4511681  41.7866421
  67.2330093 106.7926788  40.9884405  34.9784148   0.6920184  44.6154213
  35.6138480   0.4345931  43.9474392  34.1933406   0.1856364  44.4069576
  92.4569053  35.5563582  48.0611324  92.6445168  34.6392096  47.8614330
  91.6142720  35.5351866  48.5147429  80.6824303  92.0776844  31.6199446
  79.8633194  92.5566387  31.7460465  80.7903862  92.0337772  30.6698656
  77.6158142  89.0644932  33.4380078  78.5388327  89.3177032  33.4254622
  77.1644402  89.8228359  33.8086843 110.2114964  81.1858654  41.9230509
 110.6105518  81.5423298  41.1293697 110.9527683  80.9846306  42.4942350
  96.6945076  96.7324448  26.7179084  96.0468292  96.6723442  26.0156798
  96.1813927  96.6667271  27.5232744 114.1557980  77.6134682  67.5293875
 113.2816219  77.3702621  67.2245932 114.6940136  76.8416452  67.3537731
 108.0305481 100.6791210  37.1608949 108.6974049 101.2120914  37.5938702
 107.9034233 101.0991001  36.3101959  30.5835689   7.7509631  45.3883314
  31.2734473   7.5905264  46.0321999  30.1259673   6.9135416  45.3138924
  62.2082472 102.5479889  45.6238842  62.2560930 102.7526379  44.6900415
  63.0315685 102.0978355  45.8129215  19.0488399  20.3131999  36.5715837
  19.7201980  19.6373404  36.6650081  19.4201720  20.9347189  35.9454370
 110.5151272  97.6405334  44.2310238 111.3322735  97.6695442  44.7286797
 110.5208588  96.7804050  43.8110590 101.0574245  71.7067623  58.2938194
 100.9972286  72.6618385  58.2728815 100.4756546  71.4456987  59.0076971
  83.4585953 109.4085789  72.8158474  83.8143539 110.1512241  72.3278522
  82.9964542 108.8890076  72.1580410 104.5057076   5.3750361  66.0093451
 103.7381095   4.8415507  66.2153196 105.1903171   5.0442446  66.5908289
  48.0930024  57.0103540  76.1610981  48.3572179  57.2069635  75.2623411
  47.3212033  56.4520158  76.0671480 104.2327023  73.5388708  23.8591003
 103.5436726  73.3429289  23.2242084 103.7621689  73.7548161  24.6642065
  20.4177535  13.8811339  28.8653159  20.1670039  13.2047785  29.4945216
  19.6120895  14.0719164  28.3849621  23.3766711  10.7129134  77.0952368
  22.5985778  11.1045397  76.6984463  23.0474818   9.9424399  77.5581026
   5.9588969   1.8012846  16.7702329   6.1667407   0.9087695  16.4937603
   5.1160300   1.7234171  17.2171700 105.4323101 109.7985744  25.6268120
 104.5205116 109.7964478  25.3355241 105.5422115 108.9604950  26.0759950
  95.0482082 100.2282810  63.0471563  94.5202923  99.6560383  62.4903059
  95.7042599 100.5984116  62.4565363 106.7550945  93.1200409  48.1787634
 106.7820168  92.9556942  47.2361612 105.9124756  92.7635479  48.4600735
  89.2163181 109.4548893  49.8188686  88.8575077 109.2947006  48.9460468
  88.9194012 110.3371716  50.0416708  18.1329692   5.6600131  42.4257612
  18.3627284   5.5919207  41.4990425  18.6294234   6.4153613  42.7407408
  31.3783038  13.7271822  37.1643972  31.8179191  13.0967844  37.7349854
  30.6659187  14.0778960  37.6989436  82.1341866  46.9865263  66.7931032
  81.3296241  46.6947306  67.2217798  82.0522851  46.6742362  65.8919954
   8.0580962   2.3556174  43.0710173   7.4874747   2.7728308  42.4256134
   8.1845725   1.4665450  42.7396727  37.8164256   5.0721110  64.3590307
  37.8292335   4.1151751  64.3408680  37.6883949   5.2924670  65.2816820
  99.7691631 106.4456844  58.4900141  99.0754986 106.7134476  57.8872108
 100.0738239 107.2635651  58.8830519  14.7983975  89.3394756  61.4048862
  14.3092675  88.5176373  61.4444399  14.4026989  89.8189163  60.6770182
  27.9848922   3.0534495  59.1821480  28.0811465   3.9958895  59.0451384
  28.3390392   2.9013861  60.0583267   1.0576767 105.0652790  38.3054233
   1.3236088 104.1480541  38.3702493   1.6001648 105.5181503  38.9510655
   8.9581836   8.7267626  36.9613242   9.6533740   8.0723895  37.0301819
   9.0803207   9.1157378  36.0952902  28.7575114  30.1671828  73.6369896
  28.7082065  30.2056540  72.6818371  29.4954265  30.7339228  73.8617516
  29.0153278  22.2984065  86.4176273  29.4729293  21.4621771  86.5045071
  29.0348876  22.4857653  85.4791451 101.8684959 107.6863670  39.3247104
 100.9133434 107.7100849  39.3825865 102.0783043 108.2627201  38.5898423
 115.5207271   6.3701666  40.0172424 116.0687226   6.5529860  39.2540193
 115.4945249   7.1979750  40.4971075 105.6164360  86.0663700  42.7643776
 104.7264194  85.9543133  43.0983639 105.8909035  85.1843739  42.5134230
 114.0544510  78.5200119  35.9536982 114.2820358  78.7939787  36.8421698
 114.8689556  78.6105585  35.4591060  45.2474082  13.4725035  73.7201977
  45.7656348  13.0196799  73.0549002  45.4611076  13.0224932  74.5375443
  88.5754460  36.3867796  41.0197306  88.9010781  36.2650050  40.1278973
  87.6420993  36.1818636  40.9639883  81.6666698  81.0643101  15.5201542
  82.4254513  81.5980339  15.7559860  81.3076878  81.4892960  14.7412109
  96.4406586  81.2150955  54.5306110  96.8475151  80.3706264  54.3367672
  96.9864082  81.5909672  55.2213478  15.2850497   4.4042529  56.2900686
  14.9483741   3.5101546  56.3490248  15.5945361   4.6024073  57.1739101
  85.1127815  96.4850616  16.7109573  84.4230366  96.0096931  17.1741235
  84.8512173  97.4039650  16.7695725 106.5454102  93.6188030  68.8226318
 106.4784336  92.6652145  68.7734795 106.2010765  93.9266205  67.9842329
  19.1995747  33.7578916  10.8266119  19.7682984  34.4166993  11.2250571
  18.6624653  33.4357690  11.5504889  76.2515382  99.4643508  29.3316102
  76.5273488 100.2271532  28.8233876  76.8751670  98.7787901  29.0921831
   7.4762040  97.0118927  53.3911848   6.7407018  96.6441893  53.8811445
   7.0883256  97.7124142  52.8667307  11.9469195  80.7346689  47.7919674
  11.4976197  81.3449680  47.2072458  12.5391513  80.2467691  47.2197342
  62.9463530   6.8707925  51.1895657  62.9592419   6.8948531  50.2327538
  63.8079357   7.1973026  51.4489889 109.4435035  98.9108562  31.4240599
 108.4917032  98.9333557  31.3250566 109.5858013  98.9059423  32.3706102
  30.0703621   9.2837256   4.4698635  29.2894840   9.2489892   5.0223655
  30.7107496   8.7374794   4.9256593  12.4332744 106.0732027  47.9202604
  12.0308095 105.3244187  47.4802876  11.7107755 106.6851532  48.0607796
  37.6415634  15.4610360  46.2801504  37.0840979  15.9334338  46.8984604
  37.8943324  16.1201465  45.6336927  85.7866090  85.4962265  12.9467773
  85.6495141  85.9857785  12.1357441  85.8569472  84.5836245  12.6667023
 114.4893887  26.3403869  34.6908045 114.3053060  27.1548486  34.2228293
 115.4010030  26.1419535  34.4767594  12.9227859 107.5625580  31.4802575
  12.6089364 107.6271870  32.3822308  12.1274453 107.5813129  30.9479904
 110.7043826  91.7494880  73.9905691 110.0297128  92.3485827  73.6709785
 111.1934912  92.2612964  74.6348190  40.6161070   8.2731992  65.1960611
  40.6935596   7.6042479  64.5158148  39.7059751   8.5648227  65.1426792
  37.8938505  60.8978999  90.4571487  38.2934850  61.7654962  90.5187993
  37.4997877  60.8771349  89.5850732  46.1754894  20.6848288  30.2913690
  46.0488081  20.6121182  31.2373567  45.4909086  20.1318312  29.9148369
   7.7808821  46.5294165  89.0658499   7.4323046  46.8140364  89.9106671
   7.0077765  46.2803102  88.5594095   4.5726043 109.0605710  16.1562598
   4.0978938 108.2294228  16.1476004   5.3883916 108.8656657  16.6174924
  74.4739335  46.5072364  81.3284047  73.5737627  46.4048625  81.0194667
  74.7196167  47.3929257  81.0611458  94.3783604  56.4057552  47.1686506
  95.0838339  57.0525800  47.1811914  94.0572571  56.4190160  46.2670135
 100.4033362 100.7000219   5.9349287  99.5234072 100.4253798   6.1928540
 100.2588617 101.3725828   5.2693307   7.8832608  87.1005069  11.2708497
   8.0009442  86.5130650  12.0173717   7.9037744  87.9785477  11.6514468
   1.7217761 109.9076341  46.4384508   1.4766103 110.2649076  47.2919655
   1.3799745 110.5404088  45.8067894   5.0974732  95.6981288  75.5912685
   5.1868850  94.9775957  76.2150240   5.6805116  96.3791071  75.9267807
  44.1346979  22.0206547  43.0774975  44.3062544  21.8282580  42.1556616
  43.8732624  22.9414272  43.0853701  29.9559927  29.2054129  24.0659261
  29.0123343  29.3551826  24.1234326  30.1174474  28.4666252  24.6527457
  27.2408962  17.1890128  29.6855760  26.6800070  17.8138304  30.1451802
  27.9079199  16.9480109  30.3284073  24.3242264   3.1646961  22.4447751
  23.4695935   3.4537047  22.7646303  24.2861509   2.2093013  22.4895287
  15.2897245  96.4212858  51.4272070  14.9695903  95.5340539  51.2642145
  15.6743508  96.3800572  52.3027611   3.7490111  99.0138434  21.9600224
   3.6908227  98.3394598  21.2832284   3.0802518  98.7694727  22.5997686
  78.4976721  15.0181985  19.4242954  79.4475079  14.9205434  19.4914377
  78.3640194  15.9512329  19.2575157 107.3281228 106.9125782  43.2079792
 106.6693484 106.3274666  43.5820007 108.1621658 106.5723228  43.5317564
   4.3149310  98.0664979  49.7669172   3.9638501  98.9166032  50.0320482
   4.4676572  98.1533455  48.8259792  40.9681350 102.6024204  13.8935876
  41.1708242 101.7691617  13.4683490  40.9081679 102.3878925  14.8245084
  94.3461608  65.6975662  44.1975689  93.4002435  65.5768262  44.2805958
  94.7240519  64.9258291  44.6192980  60.3809452  28.1296873  27.6437306
  59.6635914  28.5107112  28.1501436  60.4398537  27.2261763  27.9542589
  19.0160447  89.4285857  24.2344069  18.8299113  88.5457884  23.9146376
  19.5348865  89.2917668  25.0270724  35.8370805  13.2672977  19.8128164
  36.3474774  13.6392355  20.5321145  35.9753656  13.8716030  19.0834856
 117.0167815 108.1470700  38.5057616 116.6264879 107.4382298  37.9944420
 116.8268072 107.9187184  39.4157052  70.3423994  69.6946014  91.7736571
  69.8218696  69.0389467  92.2377666  69.6953385  70.2519334  91.3413070
  96.7605566 108.0334612  19.8964787  97.2122359 107.2105699  19.7092128
  97.1943640 108.6775379  19.3368280  13.4017086  18.5937214  45.1723623
  14.3568373  18.5625863  45.1176834  13.1772947  19.4929600  44.9331093
   6.0961592  16.6765475  84.5772362   5.9938282  17.5594509  84.9325371
   5.7530481  16.7359233  83.6856174  73.6845081  57.5426329  88.7259944
  73.7335461  58.0304713  87.9038985  72.8721969  57.8422276  89.1341944
  12.1595085   4.4792551  37.1813440  12.4068677   5.0898302  37.8757811
  12.5050497   3.6347729  37.4706221  24.6202207  23.5331082  34.7513509
  25.1220107  22.7477622  34.9696922  24.9667645  23.8106942  33.9033628
 109.4252836  72.6646339  44.8719263 109.6519052  71.9706284  44.2528725
 108.6223947  72.3573386  45.2928495  71.7425959  30.4195595  81.8156155
  71.9242208  31.1824036  82.3645361  70.8075683  30.4820204  81.6205354
  34.6144467 108.5473590  58.1751633  34.7647887 107.7343427  58.6574841
  35.3167134 108.5736591  57.5252676 114.9636471  83.0298411  55.4388666
 115.1658880  82.8170835  56.3499451 115.8174025  83.1788670  55.0325155
  48.1867409   6.0205626  30.5344415  49.0703297   6.3638687  30.4016161
  48.3205795   5.1098114  30.7968378 113.2465326 108.2344030  35.6009650
 113.3082973 108.5147004  36.5141201 112.5300657 108.7554345  35.2384281
  40.2185249  10.7724905  36.5869546  40.6865406  10.6887543  35.7561851
  40.1585484  11.7164266  36.7339873  17.3777437  23.7326241  42.6275110
  18.2727671  23.9905334  42.4069452  16.8385696  24.1299844  41.9436789
  32.2835016  46.2889957   1.4595577  32.9813123  46.6287518   0.8993270
  32.1906257  45.3730345   1.1976033  23.3327222  27.0324111  22.6390934
  23.5976768  26.6829610  23.4899259  23.6536551  26.3902521  22.0059538
 113.6496087  17.1616101  18.1509018 113.1042724  16.3873756  18.2901847
 114.0046066  17.0490479  17.2691202 112.7043092  93.8698493  56.9780111
 112.3750340  94.7380721  56.7456341 112.3688471  93.7148963  57.8610086
  57.4343109  16.1026037  33.7437034  56.6027641  15.8982599  33.3159137
  58.0940533  15.9611750  33.0647540  41.0033560   5.7977027  42.6114464
  40.1008320   5.7214147  42.3018265  41.4529800   6.2851536  41.9211817
  35.8688116   8.6279386  33.7909055  35.9282517   8.2135439  32.9301047
  35.3834176   8.0000150  34.3260098  19.7186595 100.9639691  25.2480888
  19.1071635 101.6633796  25.0175929  19.1794044 100.1735853  25.2750397
  65.4434872  16.5969777  85.0461006  65.0807238  17.0683277  85.7960701
  64.7364473  16.5930450  84.4008732   9.8996383   9.6128958  27.1066546
   9.0723497   9.5009446  27.5749421   9.9270844  10.5444467  26.8882704
  27.3171693  96.4312779  67.3119688  27.1111470  97.1157037  66.6753006
  26.6272002  96.5022420  67.9716206  26.6454249  77.8008710  51.1076546
  27.5746518  77.7642833  51.3344383  26.1934501  77.8170167  51.9512701
  40.9358659  39.0155245  93.5972902  40.3044148  38.5897923  94.1771640
  40.6813510  39.9382544  93.6022246  98.4693395  96.2526773   3.2591745
  98.8347208  96.4726364   4.1161144  98.5929310  97.0444714   2.7357060
  43.9399099   9.0969956  58.6829329  43.0602217   9.4029677  58.4621096
  44.0762806   9.3900216  59.5839119 110.2797186  76.5606700  55.9477854
 110.4969870  77.4826275  56.0857010 110.6679093  76.1084758  56.6968250
  21.0256511  93.4379171  66.6892195  21.8306333  93.3269083  67.1951008
  21.0204106  92.6979863  66.0820055  51.1109447   3.7760797  28.9255166
  51.6378498   3.3570969  28.2450366  51.3734388   4.6962065  28.8991451
  93.6933529  87.9194628  42.9733896  93.7526237  87.8738557  43.9276648
  92.7787577  87.7135717  42.7801085 108.4424912 102.6724838  51.9116688
 108.7869655 102.2856747  51.1067152 108.7915146 102.1201985  52.6112366
   7.7632934  75.6177246  51.1003256   7.9289275  76.0639345  51.9308043
   8.2112199  74.7762524  51.1870480  -0.0562614 103.1207936  40.5649233
   0.5018502 102.3536383  40.6922626   0.2524930 103.7521302  41.2147856
  40.0904179  32.1464109   7.5549322  40.5374527  31.3004851   7.5266415
  40.7307911  32.7428699   7.9427302  96.8528663 105.5336293  49.1218281
  97.4681865 105.0692218  49.6892262  97.3222732 105.6380560  48.2941914
  38.5160589  12.2872686  32.6380324  38.3802271  12.6576245  31.7658997
  37.7569342  12.5788391  33.1429553  97.8998756  96.8325995  22.2781730
  97.0986294  96.4809500  22.6662183  98.4721886  97.0054316  23.0257130
  24.9730086  12.2696126  23.6116743  25.5846643  12.5174081  24.3050027
  25.1868105  12.8532994  22.8837800  28.7062621   4.1740739   8.8373536
  29.2097878   4.0811938   9.6460980  27.8157806   3.9194050   9.0790451
 109.7687447   4.1338208  63.9491034 108.8682001   3.8938433  63.7307835
 110.0854182   3.4096313  64.4890118  46.6818696  80.6144296  19.7571206
  47.2083264  81.2531458  19.2763817  45.7772332  80.8907520  19.6104658
  24.8756409  22.8185797  37.8040552  24.1954923  22.2521281  38.1684208
  24.3989897  23.5732198  37.4582887  93.6477708  98.3215999  14.5534575
  94.3218207  97.8697168  15.0610876  93.1781899  97.6206397  14.1013730
  15.6493771  49.5677900  42.4128437  15.5270553  48.8052225  42.9783201
  16.5433896  49.8585606  42.5929213  32.6559711  13.4442508  65.1570511
  31.9115829  13.3017552  64.5724010  32.4158239  14.2183638  65.6662750
  28.0814672  14.4071555   6.2959462  28.5049677  13.8016868   5.6874353
  27.3737240  14.8023736   5.7868958  35.9021020  15.5580306  32.0953441
  35.2514267  15.0598848  31.6006684  36.0876584  15.0150692  32.8614998
  24.0300322  49.7639179  16.8985736  23.9070415  50.6041670  16.4568901
  24.6452498  49.2879057  16.3407648  23.3028221   5.3562146  18.2266045
  23.5975575   4.8270363  17.4854338  23.8157177   5.0358790  18.9685988
  23.6410952  28.7994528  62.1847916  24.2148876  29.2499089  62.8045368
  24.2369032  28.4214163  61.5380049  54.7765017  45.6063890   8.8856673
  55.2235031  44.9045324   8.4125763  55.1436758  46.4120626   8.5219336
 100.3488838 106.2988376  51.1295986 100.1928913 106.8904017  50.3934288
 101.3003980 106.2915420  51.2335348 111.2600648 104.5801722  40.1886988
 111.3348114 104.2971241  39.2773652 110.3330457 104.7918760  40.2984762
  39.4061852  19.1084254  40.6022596  39.2241597  20.0221705  40.3827858
  39.0877962  19.0096152  41.4995337  58.4846878  22.8642058  42.9994726
  57.7580738  22.4004507  42.5833035  58.1894588  23.7731671  43.0529261
   8.5380441  91.3428055  29.1224194   8.1445056  90.6734191  29.6821332
   7.9514962  91.3994097  28.3681035  35.2523547 105.7900911  23.4409690
  36.0762626 105.9723296  22.9890800  35.4181939 106.0378020  24.3505669
  22.8928977  98.6492907  27.9133439  23.2022315  99.1827678  27.1812606
  21.9873363  98.4358429  27.6883316  52.3879235  88.5079885  90.1860078
  52.6418834  89.4004417  89.9509187  51.5409487  88.6066771  90.6208943
  35.9309363  41.9571829  35.2979088  36.0579967  41.0451508  35.0365877
  35.0596595  42.1809196  34.9707222 104.5716225 104.8728233  47.9178286
 103.7228238 105.2336698  47.6617718 105.1849710 105.5986451  47.8028584
  82.2133415 105.0966597  89.8387225  81.8369787 105.8987904  90.2008964
  81.8220299 104.3933154  90.3568037 104.6056783  99.6118366  29.5146251
 104.6796476  98.8109766  28.9956045 103.6685550  99.8067044  29.5221043
  16.7364085  39.7553444  45.9800625  16.9818735  38.8990879  46.3304949
  15.9992516  39.5732427  45.3972483 106.3161933  69.2025815  10.2455199
 107.2128569  68.9386856  10.0391579 106.1936962  70.0253927   9.7720134
  86.6963642 102.8479005  87.2822263  86.7807978 102.4998666  86.3945468
  85.8024614 103.1878615  87.3221804 101.6043913 102.6058870  45.6313896
 101.7464482 102.4207269  46.5597057 102.3414337 103.1637930  45.3829193
  32.6695991   3.5602772  10.8019865  32.9681015   4.2948484  10.2657640
  33.3747244   3.4235087  11.4346993  12.6604617  19.6285295  19.7296584
  12.2902250  20.2600956  20.3463268  12.2824895  18.7888277  19.9909437
  88.5025036  96.9557320  24.1566181  88.2611310  97.3604845  24.9897742
  87.7559453  97.1262394  23.5823274  54.1684532  28.0408597  29.8982739
  54.3374777  27.1021676  29.9790072  54.8650265  28.4543777  30.4081988
  58.3968258  14.3395603  17.8435326  58.7879753  13.6050165  18.3164787
  59.0563679  14.5851648  17.1947551  25.6400084  10.3365624  88.7487030
  25.8413863  11.1762238  89.1617966  26.3575244  10.1952934  88.1310844
 107.2205745 108.7521783  34.9822712 106.3121378 108.4676391  34.8822236
 107.6558077 108.0167388  35.4134703  42.9638624  15.5424333  33.1781483
  42.5102997  14.7029197  33.2538486  42.3620987  16.0957301  32.6801753
  50.1337767  20.6603789  18.4251928  49.1826010  20.5584025  18.4583282
  50.3893042  20.8203363  19.3336809  99.3767201 109.5501554  75.4708195
  98.8251578 108.7999739  75.2489233  99.8340856 109.2835983  76.2683153
 108.2288992 101.8808549  56.5375328 107.8176939 101.4301180  57.2750854
 107.4950635 102.1862655  56.0042048  65.3137922  17.1775067  47.8192043
  64.5754051  17.0459664  48.4139395  65.0436544  17.9053724  47.2593212
  74.5237780  61.9752359  26.5221596  73.6795568  62.4126577  26.4117718
  74.6940899  61.5657520  25.6738973  53.5847330  40.4798222  34.7230673
  54.2179203  41.1417818  34.4453740  53.3096790  40.0556183  33.9102745
  27.5814897  93.4563743  44.6304226  27.4446946  94.3600523  44.9148273
  28.4888154  93.4357773  44.3261766 101.6800010  96.4070701  60.6987047
 101.3761222  96.8916093  61.4662409 101.3351857  96.8985712  59.9532127
  39.9908590  28.5901475  30.1948476  40.0516176  28.2913876  29.2874980
  40.8825064  28.8559198  30.4197145  60.7712984  32.7007747  28.7267065
  60.2869892  32.8483224  29.5390511  61.5130281  32.1541071  28.9859891
  18.5065776  96.5230381  69.9599218  18.7123853  96.1190771  69.1168976
  19.1872626  97.1850716  70.0808144  22.1086574   3.6152694  42.7244902
  21.5726280   3.0173543  42.2035265  22.4671721   4.2327526  42.0869827
  11.1576128   3.7969172  18.8919604  12.0552397   4.0838560  18.7241411
  10.6308377   4.2684186  18.2466495  33.7143642  95.4833805  14.3957639
  33.9567786  95.2451598  13.5009372  34.5496732  95.5714821  14.8548114
  63.4671688   9.7612780  18.8225317  63.8915348  10.2337813  18.1063712
  63.9182472  10.0649309  19.6102870  31.8304014  46.3020039  35.0636125
  31.4139223  45.5350780  34.6704078  32.4380159  45.9402275  35.7087111
 112.6911368  46.4203787  40.4194450 111.9565749  46.7661524  39.9124050
 112.9753622  47.1562290  40.9616423 104.5272075 107.2547262  70.1723623
 105.0549733 107.6585164  69.4834137 104.9461495 107.5304355  70.9876537
  54.3904209  14.0606856  44.8338461  53.8645077  14.3231559  44.0783596
  55.2924061  14.2495549  44.5750284  53.3668041  45.4191637  29.4892597
  52.9804420  45.0621557  28.6895704  52.8952694  44.9825668  30.1986766
  29.3706560  42.0467377  36.7341924  28.4712601  42.3724556  36.7692518
  29.8979926  42.8204155  36.5352631  19.2427313  49.4008780  20.0123286
  18.7660086  48.9500999  19.3153596  20.0310421  49.7361279  19.5852375
  31.0941249 106.8555092  79.6098089  31.4053136 107.7297967  79.3752575
  31.7121488 106.5516581  80.2746010  18.6913073  10.6170356  56.5141773
  18.5040140  11.1437058  55.7371473  18.8850546   9.7446418  56.1712170
  33.9290571  14.9881923   4.6255836  34.8220301  15.1266837   4.9412560
  33.7422633  14.0718615   4.8297352  58.6741400   4.4194388   4.8148465
  59.2900324   5.1380771   4.9579021  59.1979551   3.7340817   4.3999562
  30.6573897  99.8543262  18.0580509  30.3196078  99.0834354  17.6021326
  31.3785010 100.1608955  17.5082815  29.6591568  34.2221713  42.3662376
  30.3276610  34.8929262  42.2268772  29.3682027  33.9872837  41.4850998
  19.3868363   6.2425739  31.9414973  18.8873792   6.5519339  31.1858058
  19.3285453   5.2883929  31.8927860  61.0732079  26.0055161  25.5875611
  61.8772888  26.3427114  25.1926136  61.0322618  26.4280891  26.4454579
   8.7275916  95.7796167  36.5745354   8.4486896  96.6741072  36.7703223
   9.5704108  95.6887971  37.0190954  26.1083055  14.6053684  28.5954547
  26.6260552  15.4103482  28.6085987  26.2583113  14.2383075  27.7242517
   5.4489714  18.6011124  42.1038723   4.6354029  18.3788788  42.5565910
   5.7008618  19.4502079  42.4669456 102.8714477 108.4567166   6.0935986
 103.0128061 109.3553428   6.3914585 101.9784128 108.2505616   6.3696820
  21.8998700  88.5779439  49.2057467  22.4803907  89.2742692  48.8985634
  21.4164620  88.3073555  48.4251499  30.5786681  30.9086633  18.6985648
  31.2839770  31.5346837  18.8624954  30.2321792  30.7053113  19.5673704
   7.6530391  98.7919640  31.9321036   7.6266652  99.3685423  32.6957083
   8.4225446  98.2407998  32.0746160  24.8175740   1.1522060   6.9109070
  25.0683546   2.0728526   6.8350720  24.1987896   1.1318716   7.6409221
  35.5520511  21.5997028  42.7229118  36.4427662  21.2941742  42.8947020
  35.6393790  22.1790528  41.9659710  50.8602715  14.2573857   0.9026609
  50.6788683  15.1476133   0.6012962  50.7874203  13.7183726   0.1150131
  25.2700782  18.3326137  21.4180183  26.1502266  18.0079675  21.2278223
  25.4009366  18.9975190  22.0940447   3.6448651 109.1257629  23.9555693
   3.5476047 109.6981482  23.1945515   3.1475431 108.3398308  23.7292576
  63.2889891  33.8235497  23.3965373  62.7381754  33.0564547  23.2403398
  63.9641619  33.5146022  24.0006280  52.9891586  26.8307233  49.5498753
  52.4326754  26.1917353  49.9951267  52.4528980  27.1511865  48.8246441
  43.8935518  23.0448723  19.9360991  43.3370352  23.8097715  20.0825715
  43.7269163  22.4794865  20.6902909  29.5809507  26.1358690  38.9433336
  30.5274057  26.0051394  39.0013337  29.2236543  25.2545404  38.8345551
 105.8359211  52.3506019  84.6732982 106.5320986  52.8313497  84.2255838
 105.3095978  51.9774101  83.9662297  54.1463137  30.7567167  10.5107284
  54.5696831  31.5844989  10.2831984  53.2252312  30.8892155  10.2865052
  40.9781361  16.2560773  64.8857117  40.6375694  15.3802145  64.7037506
  40.4933691  16.5457654  65.6585741  55.5688715   5.3730398  48.8899326
  55.2696466   6.0904682  48.3313704  55.0083733   4.6344793  48.6520195
   4.1202241 100.3502833  19.6508706   3.2300263 100.4428416  19.3114400
   4.0026885 100.1412927  20.5775523 113.9733421 107.0131560  20.9193611
 114.6239197 106.8299844  21.5971708 114.0443837 107.9555776  20.7676148
  72.6547527  29.6468449  43.9352417  72.3487043  30.2460003  43.2543755
  72.3008728  28.7945652  43.6810350  37.4039674   3.3678505  61.4378548
  38.0577517   3.9879543  61.1149502  37.2630358   2.7661020  60.7069206
  29.6550417   3.5524240  42.0647335  29.5295596   3.7201571  42.9987288
  29.3892837   2.6403779  41.9473553  32.6376271  46.2599564  21.5558839
  33.4525537  46.5520811  21.1474872  32.4450374  45.4226112  21.1339927
  49.2449951   5.5236870  34.2141366  49.7509766   5.4527956  33.4046984
  49.8883438   5.3938651  34.9108982  38.4908819  11.5240359  50.0182724
  38.6009049  12.4634922  50.1650620  37.5523686  11.3724756  50.1298666
  26.4202476  10.3697169  16.1083329  26.0806417  10.8072901  15.3276730
  26.5978003  11.0811937  16.7235625  28.3439660  41.4586687  39.6590590
  27.9683685  40.6080437  39.4319081  28.8748717  41.6967344  38.8989949
  18.9807206  98.2539820  47.2502327  18.6702472  98.1125509  48.1445694
  19.8133069  98.7143146  47.3557186   7.3477250 105.7500293  49.7890186
   8.1752807 106.1402555  50.0702810   7.5687343 104.8415135  49.5841169
 115.1704823 103.0508470  38.4904122 114.9449288 103.9614331  38.3001757
 115.7774793 103.1036585  39.2286491  56.0691833  34.7229791  39.2475796
  55.7751465  33.9428568  39.7178817  56.8771172  34.9801445  39.6918082
  14.1428232   1.8381761  12.9427552  13.2877612   1.8617485  12.5131691
  14.6192193   2.5794530  12.5688744  51.7694998  24.5990181  35.1923656
  51.7569017  24.2341280  34.3075323  52.0551682  25.5048752  35.0738406
 115.3683105  51.2502384   2.9377675 115.6744350  52.1441364   3.0909616
 116.1544386  50.7104063   3.0203009 103.5436355 100.1249110  77.1084070
 104.4383013  99.7855877  77.0826626 103.5681831 100.8149891  77.7712917
  22.5403547  18.9255118  29.7375059  22.8347039  19.3494356  28.9313555
  22.3896670  18.0139089  29.4874978 113.4464394  91.0096978  30.6864142
 113.1196367  91.9055521  30.7693481 113.7340652  90.9430002  29.7758913
  20.6424260   8.1530130  24.5548940  19.9307752   7.5492823  24.3420720
  21.4190078   7.7565789  24.1599369  57.7713823  35.9239960  47.6486826
  58.3127308  36.6242075  47.2841501  57.1600103  36.3731313  48.2324076
  14.6736050   4.1592941  25.0106883  13.8075900   3.7555835  25.0678444
  14.5188236   4.9975616  24.5752788 104.1234838 107.9249754   2.2168636
 103.8860213 107.4100356   2.9880193 103.4205663 107.7551614   1.5897264
  20.0646162  25.1452637  33.4932423  19.8327792  24.7715521  32.6430535
  19.8298132  26.0703468  33.4202957  27.6042843   5.8238423  36.5846324
  27.8419399   5.8366597  37.5117707  28.4209085   6.0197723  36.1253190
 110.3846585  79.6562969  61.4842939 109.9388420  80.2770721  60.9079981
 110.8890235  79.0989911  60.8916187  66.0516596  20.7467890  43.7206554
  66.5619469  21.3920879  44.2099667  66.6612530  20.4056859  43.0662298
  46.7084599  61.1280918  33.7102413  46.3598871  60.2367115  33.7231779
  47.6330662  61.0204887  33.4871912  68.8265181  10.0252068  34.3883443
  69.6825457  10.3998983  34.1808510  68.2147026  10.4991913  33.8250899
  40.8471614  80.9395229  25.0188923  41.4527970  81.0292946  24.2831111
  40.0197202  80.6747257  24.6170855 113.0752098 110.4146346  53.5158157
 113.4364688 109.6342016  53.0955219 113.7259375 110.6542745  54.1756344
  37.6402283   5.0413793  47.4136305  37.6623988   5.0445491  48.3705711
  38.1349707   5.8205694  47.1600103  58.2804632  10.0848997  28.5094285
  59.0899181   9.5816886  28.4211302  58.4034252  10.5981696  29.3079686
  46.1649466   8.2159442  46.7023754  46.3841486   8.4433264  45.7987833
  46.9399261   8.4639227  47.2065020  28.4291601  23.3716607  38.6084008
  28.2682848  22.5392985  39.0528369  27.5615144  23.6679459  38.3333802
  31.5992570   3.7808335  56.7457294  32.0182014   3.1171179  56.1978245
  30.6679106   3.5616866  56.7174959  49.0690279   8.1348461  47.5371504
  48.9677572   7.2164541  47.7872133  49.8662806   8.4184033  47.9846048
  49.6017599  12.9043138  24.7148752  48.7405825  13.0321681  25.1126957
  50.1162243  13.6552548  25.0109243  43.7473822  56.4721251  31.2469625
  42.8166389  56.5794420  31.4430118  43.8335991  56.7496634  30.3349495
  37.8645945  70.3367376  17.4447596  38.1543684  71.0376120  18.0287457
  37.1465421  70.7238007  16.9439435 112.9090273  94.0320002  35.5187941
 113.3368193  93.6850142  34.7359610 113.1246650  93.4037065  36.2079811
  29.9246860  25.3567863  17.8324735  30.1805782  26.0398269  18.4523165
  30.1748657  24.5383525  18.2612014  50.4728746  48.2206154  20.1025057
  51.1054850  48.7609196  20.5759001  49.9526215  48.8466692  19.5988941
  19.6771359  24.1151857  31.0001945  19.6208680  23.1792569  30.8075762
  18.7689793  24.4173789  30.9873772  35.4672623   3.6283106  49.4578695
  35.1554441   4.4955283  49.1991520  36.2137151   3.8033089  50.0309467
  38.5152221  20.6316805  46.3780832  39.0908909  20.3238082  45.6780481
  38.4191871  19.8767185  46.9586372  75.6246424  14.5668626  17.3242939
  76.4775896  14.9898791  17.2254252  75.0487757  15.0469518  16.7292118
   8.3378506  36.1960483  24.0421629   8.3963031  36.5793347  24.9173236
   8.4033507  35.2524614  24.1890788  35.3942657  27.7366495  33.4370947
  35.6717157  27.1983504  34.1783690  34.5316505  28.0657768  33.6896873
  17.3554087  39.0335822  49.5171022  17.0702219  38.3447289  48.9167833
  16.5453720  39.3610692  49.9080276  41.3509798  23.0194950  36.1156034
  41.8299723  23.1722546  35.3010702  40.4485130  23.2655191  35.9125066
  36.2915730  22.0110178  45.6938982  36.7692518  22.7549338  45.3269625
  36.9749618  21.4191771  46.0084438  68.9028858  96.0867833  40.5544424
  68.0457639  96.5091025  40.6111908  68.8056963  95.2789270  41.0585785
  10.1600575  22.9979014  32.1024084  10.5686295  23.1922221  32.9459357
  10.3556764  22.0735788  31.9488025  16.2635183  22.3072290  16.4198434
  15.6681097  22.0466852  17.1225798  16.0456252  23.2234478  16.2486827
  36.1535483 104.6614270  33.5641479  36.8675786 104.3102526  33.0321074
  35.5748874 103.9134454  33.7121701  54.6329308   2.7126667  28.8684678
  54.2165756   1.8524811  28.9228702  55.0840521   2.7074441  28.0242562
 102.4250209  60.1201974  46.9804764 101.7379176  60.2332078  47.6372480
 103.2095944  59.9124919  47.4879503  38.0850077   2.0697327  38.3738589
  38.3874226   2.9630730  38.5373235  37.6116347   1.8276994  39.1698313
  51.1312437  21.0585356  31.4157557  52.0233536  20.9819627  31.0773635
  51.2393427  21.1167955  32.3650455  16.1927164  36.5846539  41.0267401
  16.6919339  36.2081385  40.3020000  16.8585110  36.8961120  41.6398811
  31.8952155   5.7269305  34.3843079  31.6421604   4.8137313  34.5194411
  31.1067605   6.2275088  34.5940495  24.3370438  25.3549433  20.7763934
  25.2526498  25.3561759  20.4972959  23.9689779  24.5618391  20.3868508
  43.5846853  39.5689774  38.6724114  44.5105743  39.3273139  38.6487126
  43.1279755  38.7492990  38.8615465  63.7268353  44.0567017  24.2351580
  64.3626547  44.1146088  24.9483275  64.2486525  44.1633129  23.4398127
   3.1541058  19.8844361   8.8394028   2.6177946  19.5772278   9.5703095
   4.0290457  19.9912608   9.2126334  20.1038915  94.0115105  17.4809730
  19.8049909  94.8296832  17.8778136  20.3515845  93.4613573  18.2240820
   7.8330785 103.0678063  49.3624830   8.6913425 103.2566123  49.7419214
   7.5361758 102.2817599  49.8209715  45.3266764  10.6685662  32.1251488
  46.0850811  10.1143122  32.3091388  45.5226707  11.0692477  31.2782311
  41.7232752   3.9818349  44.5970058  42.3210239   4.3341079  45.2564240
  41.5346003   4.7246462  44.0235376  67.2273350  30.6789970   0.9327607
  67.4111462  30.5449414   1.8625320  67.7622652  30.0229859   0.4858465
 108.4325289  46.2567759   4.0746683 107.5291728  46.1962318   3.7640026
 108.3941233  45.9566736   4.9827957  57.8980350   1.0687669  27.5974870
  57.6977825   0.9236741  28.5221934  57.4473286   1.8847248  27.3799849
  29.5974541  22.7593660  41.1700487  28.7107229  23.1191206  41.1474180
  29.4845176  21.8637562  41.4884233  29.9721742  17.3611784  23.3970428
  30.1246667  16.7901599  22.6441050  29.7904658  16.7607903  24.1200542
  32.8705835  25.7108378  11.4359605  31.9629550  25.4232240  11.5345359
  33.0252123  26.2787080  12.1908426  72.3941994  24.8999810  70.1450014
  72.9658842  24.4598484  69.5159578  72.6275110  25.8255816  70.0738716
 106.6577446 109.8100497  64.3967915 107.1521937 109.6973829  65.2086163
 106.5473687 110.7571703  64.3130636  53.0150693  89.4096924  93.0741832
  52.9904693  88.5217477  92.7175598  53.1813066  89.9682522  92.3148371
   2.2977191   6.8274575  24.6159554   3.0572143   6.9904453  24.0566397
   1.5441743   6.9531322  24.0392327  27.7576190 102.4232178  41.9797611
  28.1861478 103.1938266  41.6072607  28.2066184 102.2786408  42.8126669
  38.0668902  15.4484558  34.8464727  37.1107340  15.4316401  34.8879027
  38.3442092  14.7377002  35.4245329  40.3997278  31.8644547  35.7888889
  40.6286287  32.1115375  34.8929048  40.9963512  31.1460614  35.9990788
  50.3810072  13.3213127  38.1808805  49.9952888  12.7810538  37.4912643
  50.4776049  12.7269411  38.9249396  55.6324053  22.4144554  34.5129514
  55.7299995  22.7488685  33.6213923  54.6876955  22.3123097  34.6283746
  42.6154327  19.8650146  26.6752005  42.2615862  20.7298207  26.8828940
  42.6625443  19.8487628  25.7192993 102.7570146  21.9627380  67.0164967
 102.9844385  22.8814268  67.1597528 101.8575948  21.9867754  66.6898489
  17.8224450  96.1124729  60.6842995  18.3473235  95.8925771  59.9146414
  18.2230550  95.6152820  61.3974237  37.3160434   3.4650055  27.6495838
  37.3123455   2.9706195  28.4692192  38.2324076   3.7104487  27.5220537
  61.2278128  21.1364079  60.0291204  60.6869698  20.4447508  60.4103470
  60.6038046  21.8174672  59.7781181  19.2067873  12.7873635  44.9340773
  19.1701663  13.3069074  45.7371759  19.6563613  11.9820273  45.1901007
  96.2868118   7.8394002  29.8146343  95.6944466   8.5824567  29.9295664
  96.9590759   8.1598008  29.2132711  31.5472794  29.7828960  15.5545247
  31.6766381  30.2971387  16.3514268  32.0689392  30.2342367  14.8909032
  58.9193010   9.7985840  40.5519247  58.1237936   9.3065149  40.3487778
  59.3107605   9.3278629  41.2877274   2.9824334  88.1887900  36.7921233
   3.8353139  87.9155265  37.1300006   3.1892472  88.8111722  36.0949159
  39.6238685  13.6334717  36.4391851  40.2387285  14.3670726  36.4420772
  38.8667011  13.9536345  36.9295192  24.8624593 105.5602436  30.3312087
  25.7513124 105.8027728  30.5907345  24.3282586 106.3179868  30.5692959
  26.7639685   7.8426337  17.8065538  27.3135471   7.7644432  17.0267570
  26.3558221   8.7047428  17.7264595  45.0569868   5.6736964   2.6316181
  45.8393049   6.1848384   2.8388533  44.4661760   5.8307981   3.3681610
 114.0167462 106.4266663  33.6739254 114.5738017 105.8898761  34.2376423
 113.6941849 107.1216055  34.2477226  27.7324033  10.9790492  69.1169310
  28.5464668  11.4303827  68.8937092  27.0951295  11.6822755  69.2417812
 112.6354110  89.6160161  55.9680223 112.4177658  89.0143143  56.6799307
 111.8565976  89.6203481  55.4115486   4.0805083  79.8357426  32.1817446
   3.4665948  80.5104338  32.4717999   4.7455770  79.8054277  32.8694916
 109.0461265  98.4303199  38.8667393 109.6794259  98.5881971  39.5669103
 108.9396130  99.2822551  38.4435463   9.6887952  76.3115226  57.2579479
  10.4804498  75.9816181  56.8328857   9.9466926  77.1594512  57.6195192
 114.2174517 109.2442623  59.8687840 113.7469184 109.6170420  59.1232204
 114.2407047 108.3039216  59.6914387 103.1466686 107.4026429  58.9707136
 103.0494487 107.4097463  58.0184937 102.2647511 107.5705447  59.3027735
  33.3128858   6.7918897  20.7084632  33.9042616   7.4912107  20.9867716
  33.5070705   6.6696787  19.7791684  16.8618846  16.0483599  47.1569395
  16.3985038  16.8652260  47.3419762  16.1669159  15.4061687  47.0125771
   6.6113740 101.2914454  32.9497981   5.8597070 100.7015245  32.8929901
   6.7003947 101.6516130  32.0674229  91.9316887 104.8437290  58.5373592
  92.3312020 105.2679943  57.7780056  90.9895610 104.9227153  58.3877325
  46.7085934   4.6987718  70.4703999  46.4236403   4.8541749  69.5699072
  45.9119129   4.4369951  70.9319210  33.0394793  17.2910476  81.9913101
  32.2970033  16.6898108  81.9323540  33.0679393  17.7210283  81.1365986
  46.6860104  24.2355561  33.4409761  46.2960815  23.7209797  32.7342963
  47.6294756  24.1671920  33.2945943  33.7630987   2.3649822  19.9699223
  34.2086172   2.6873729  20.7533836  33.0288696   1.8511564  20.3062558
   3.9400336  31.6391230  35.1613379   4.6880984  31.1965513  35.5622864
   4.1422918  32.5713015  35.2411318  29.9765807  94.3546151  43.9607763
  30.0416642  95.2915191  43.7758255  30.8258325  93.9991879  43.6987114
  17.3011380  91.4499389  48.0110788  17.9647618  90.9348594  48.4699106
  16.8512517  91.9329273  48.7042999  19.4715482 108.9528160  29.5743012
  18.5368424 109.1586673  29.5610642  19.5596057 108.2012384  28.9881182
  78.4313154  39.4420171  42.0310783  78.2635784  39.1541529  42.9284239
  78.2639408  40.3843451  42.0465946   4.4070273  89.2065298  19.5072365
   4.7707301  88.9471351  18.6606741   4.7220021  88.5398733  20.1176405
  73.9852476  10.4472780   2.4126975  74.2687225  10.9016943   1.6193622
  74.2711639   9.5426506   2.2856802  25.9812766 101.5870260   7.7012223
  25.8985072 101.7645817   6.7642832  26.8939096 101.7922979   7.9041916
  11.7289102  22.6023817  11.0656977  11.3658237  22.9853201  11.8642950
  12.2655833  21.8717623  11.3729608  30.2023363  43.0500793  10.3942132
  30.3403926  42.6339912   9.5433074  29.7933626  43.8902092  10.1864707
  36.8637776  22.8679395  28.1579900  36.0390282  23.2406425  28.4696198
  37.4263883  22.8504634  28.9321947  14.5690942  10.8090580  19.2282987
  14.5540524  11.0630167  18.3055258  14.4115186  11.6247201  19.7037947
  23.1253076   8.7548369  15.8949792  23.4506226   7.9594076  15.4734409
  23.9052081   9.1624159  16.2716317  61.8661737  40.0083351  29.0008664
  62.1942139  39.1159821  28.8898516  62.3086691  40.5128384  28.3182907
  47.5909758  36.5907025  39.4719791  47.8675508  36.6315722  38.5565186
  47.6663351  35.6650758  39.7038555  71.7455292  40.5150557  38.7896991
  72.6400566  40.5681658  38.4532046  71.6463470  41.2982607  39.3309784
  54.2662859  58.0862427  26.0065460  53.7419939  58.5790110  25.3752542
  54.3546963  58.6751413  26.7559552  50.6224632  21.6332483  47.4297714
  50.9572458  20.7441497  47.3128939  49.7100544  21.5129519  47.6929617
 113.7232795  35.2509809  22.3947334 114.2180794  35.4930854  23.1775427
 114.3170526  35.4399133  21.6681170  67.2570562  19.1855729  31.9098449
  67.0147896  20.0536752  32.2322416  66.9194460  19.1597617  31.0145330
  61.1640787  23.5843110  47.2828770  61.9866610  24.0049529  47.0325804
  60.4850388  24.1881609  46.9820309  41.0212326  16.8517399  28.8580513
  40.9008646  17.7214754  29.2392373  41.9706345  16.7349935  28.8227797
  34.9383402  10.0237536  16.8870866  35.4854774   9.9474168  16.1053920
  35.5344152  10.3380477  17.5668967  26.5910244  22.3360205  21.6034842
  25.6341720  22.3255134  21.5799475  26.8060017  22.5385070  22.5139880
  99.6583462  24.5956445   3.1600654  99.0233898  23.8868308   3.0568737
  99.1260910  25.3903008   3.1983536  94.1067808  75.8340932  88.9561387
  93.6665552  75.0168312  88.7226577  93.6321466  76.1507130  89.7247119
  50.5424452  36.7604923  44.7990704  50.4288673  37.2932386  44.0119791
  51.3104582  37.1333694  45.2319098  55.4609013  13.7609971  26.7015505
  56.3639450  13.4811676  26.8513250  55.1264668  13.1497419  26.0452318
  64.3101120  11.5647280  20.7482648  64.7288132  12.2764552  20.2641535
  64.9527931  11.3165247  21.4127851  82.3885267  57.4557467  88.3830579
  83.0251186  56.7673508  88.5756566  82.9179781  58.2432134  88.2573225
  46.0277081  55.6217051  34.7674203  45.9762287  54.9991226  35.4926634
  45.7846785  55.1106977  33.9953852  47.0266962  43.8815880  42.3702574
  47.1408176  43.0979252  41.8325996  47.3391485  44.5984030  41.8181849
  57.7003908  23.9909983  54.0071154  58.4416580  24.5835304  54.1322803
  57.0527172  24.5141053  53.5347700  30.1340127  52.1585989  33.0507064
  29.3285799  52.5062466  33.4336567  29.8378396  51.4750385  32.4496579
  27.8910446  23.1783032  26.9596076  28.1528187  23.7998271  27.6388812
  28.5329056  22.4709439  27.0219660  28.6233187  54.5371532  24.0731645
  28.9539695  55.0552750  23.3393741  28.9572573  53.6545324  23.9128590
  51.6512108   0.6809607  48.8701582  51.3343096  -0.1373108  49.2525673
  52.5405025   0.7761347  49.2112398  81.7203236  48.5065937   3.6598533
  80.9136581  48.7474585   3.2043213  82.0950985  47.8043842   3.1281751
  40.9461451   0.9062610   6.5788609  40.2134085   1.2208402   7.1083611
  41.6325760   0.7055034   7.2150552  70.5971050  23.0017591  35.8844161
  70.2354050  23.8720536  36.0517192  71.1952782  23.1285071  35.1479673
  59.1288280   9.3235767  57.4461031  59.9766588   9.7508824  57.3243570
  59.3404436   8.3952910  57.5447750  51.1859751  36.9195986  33.6541104
  50.4543400  36.8682575  33.0390429  50.9449863  37.6249623  34.2546272
  14.1855413 108.1396613  47.7938747  13.8371211 108.9254246  48.2150793
  13.4308559 107.5563871  47.7134085  19.0262443  98.5525571  52.9789925
  18.5213405  98.5307251  52.1660805  19.8936254  98.2326852  52.7308702
  61.3748455   7.0248401  39.2119169  62.2531605   7.3799169  39.3487430
  61.0233688   7.5308675  38.4793639  10.6288981  24.1200399  34.5954299
  10.0319016  24.8292685  34.3570590  10.3661513  23.8736892  35.4822826
  42.2726393  16.4108908  41.9565296  42.7601480  16.0939968  41.1961699
  42.5084352  17.3361659  42.0236015  63.0842447  76.7277908  25.0258970
  62.9708910  75.8099365  24.7790575  64.0124464  76.8034410  25.2471352
  50.9251261  31.1144066  10.2995813  50.9907627  30.9117079   9.3663955
  50.1871109  30.5883908  10.6076050  55.4065943  67.5096655  31.0310173
  55.6066608  66.8510866  31.6962075  54.8113060  67.0664024  30.4265475
  55.8177757  28.7327480  10.7514155  56.5696335  29.2623973  10.4860675
  55.0813866  29.3442702  10.7494986  40.4624510  29.3089056   5.4346645
  41.2278366  29.8689032   5.5643272  40.4074860  29.1943002   4.4859409
  78.1103086  20.3803968  50.5923367  78.7076426  19.9899232  51.2302637
  78.4052324  20.0392890  49.7480059  37.1403599  55.4754972  37.1248603
  37.4528646  54.7532988  37.6698422  36.8393302  55.0548983  36.3194346
  16.3267636  37.6020312  21.9740844  16.2303913  37.7633095  21.0355043
  17.2671711  37.4755573  22.1000552  31.4937520  71.8684864  35.9467244
  32.2025013  71.2802124  36.2071824  31.3374162  72.4118280  36.7191052
  24.4572186  28.6720657  35.9208417  24.9044728  28.3664322  35.1316738
  23.6416721  29.0570450  35.6000519  35.1028562  43.5470247  22.4618602
  35.9224391  43.2955837  22.0360708  35.2189040  44.4724417  22.6771927
  41.7381525  39.1882372   4.8186293  41.1917925  38.9632916   4.0655541
  42.5575018  39.5010638   4.4351766  53.2099152  22.5891733  24.3324041
  52.8439713  22.3315144  25.1785302  52.7418137  23.3921194  24.1035104
  37.3313689  11.3096488  61.5558720  37.7092052  10.5284500  61.9598532
  37.4710274  11.1852157  60.6171227  37.1682340 104.6909755  30.4343891
  37.7940970 104.5802592  31.1501169  37.5613433 104.2227267  29.6978855
  75.6343937  25.1058507  23.6300135  76.2431002  24.5800948  23.1110811
  75.3257084  24.5104384  24.3129683  68.4673691  41.4234114  20.2145815
  67.6970053  41.2981319  19.6604383  68.9866400  42.0845842  19.7569370
  48.4515667  32.3684692  24.4473124  47.8824759  33.0020761  24.0103769
  49.1355944  32.9009557  24.8532605  70.0300932   7.2376591  21.4522815
  69.2769194   7.4529779  22.0023751  69.7444010   7.4460381  20.5627918
  75.8385420  44.9772501  28.1019592  75.3895855  44.9922466  28.9472055
  75.9289312  44.0470219  27.8952360  19.5317256  31.5166211  14.5110500
  19.9132740  30.6867504  14.2247474  18.5893917  31.4020324  14.3881357
  54.6313286  25.6490517  46.7717743  54.3040752  25.3717279  47.6274776
  54.3075609  26.5440774  46.6700983  88.1267643  24.0916753  48.4827566
  88.1105328  23.5950947  49.3009090  87.6314831  23.5529566  47.8657389
  43.2117653  19.6213830  48.9533234  42.3161888  19.3235695  48.7937021
  43.1268549  20.5615163  49.1119766  58.3496714  27.4969172  18.5920882
  57.6144218  26.9546270  18.3064950  58.0592346  27.8767586  19.4213045
  56.8998432  27.8283715  39.0667534  56.2861443  28.5479569  38.9190936
  56.3540411  27.1098351  39.3861914  47.0248461  31.9392562  41.2587261
  46.8104887  31.4267063  42.0381975  46.7991543  31.3663864  40.5258417
  65.6588125  37.8183150  36.0056400  66.2143612  37.0842838  36.2679386
  65.0397205  37.4391603  35.3817821  13.7114882  14.3262851  28.4175086
  14.4296336  14.3596661  29.0494800  13.6404181  15.2222300  28.0881739
  57.5667667   5.8061635  28.6438084  57.3118067   5.3422338  29.4413018
  58.1662512   6.4888465  28.9451289  53.6566114  32.2669244  47.6840162
  54.1436005  32.1432567  46.8692875  54.1766214  32.8990126  48.1802893
  53.5162592  10.2304041   1.8848993  53.6063242  10.2979231   2.8354576
  52.5734568  10.1533949   1.7385146  19.6321332  31.7257881  25.8664107
  19.3662179  32.0169449  24.9942017  18.8096917  31.5242290  26.3127208
  79.3622065  14.6723258  39.6346259  79.2619276  14.8602211  38.7014222
  78.5001755  14.8532069  40.0093460  75.3040648  32.1781898  18.7416148
  76.2227726  32.1550298  18.4739041  74.8143721  32.1553874  17.9194748
  19.6965533 101.5010773  41.6746235  18.7438375 101.5624951  41.7438841
  19.9019939 101.9055681  40.8317661  39.3029213  40.3207636   5.6092745
  39.4975615  39.7223663   4.8879796  40.1144171  40.8115768   5.7389164
  40.7315540  48.7262249  28.2941484  41.5723705  49.1674232  28.4149718
  40.4334450  48.5314035  29.1826344  87.6878929  15.9487200  44.3527603
  88.3066082  16.6771138  44.4063234  88.0766010  15.3507435  43.7143517
  69.5881128  15.7661521  43.7807894  70.1328754  14.9796999  43.7498426
  69.1675806  15.7325578  44.6400070  41.2733841  47.0945024  31.1290503
  41.3484335  46.1413240  31.1743093  42.1413374  47.4150133  31.3743258
  47.3099136  54.8234320  31.3784838  47.1897984  55.7728863  31.3601232
  46.5946150  54.5020914  31.9274092  45.7275867  39.5553422  16.1605823
  46.5945625  39.2098927  16.3732922  45.2488899  39.5277190  16.9890249
  84.2573643  17.7925992  18.8848233  84.3199062  18.6872792  19.2192900
  84.8298168  17.7831066  18.1177235  67.2853756  29.6919036  27.5041652
  66.3798428  29.5267057  27.2415733  67.2204447  29.9973035  28.4090114
  58.0208349  29.0582371   3.8693106  58.7289572  29.4117641   4.4076499
  58.4659767  28.5456944   3.1944934 102.7252483  18.4476686  77.1098661
 103.2655144  19.2101133  77.3172617 102.3713684  18.6342824  76.2402821
  57.8070736   3.4924963  14.7111940  58.2656765   2.6674271  14.8698616
  58.0636930   4.0537196  15.4429078  14.7937024  29.3752503  23.9909625
  14.4970131  28.9332771  23.1954336  14.7713399  28.6959004  24.6649170
  15.6968188  17.8829408  11.3216090  15.3563416  18.1376576  10.4640377
  16.2231183  18.6315572  11.6023469  42.7561617  46.0462284  18.3222103
  43.2624340  46.7079735  18.7933958  43.3420849  45.2913809  18.2662249
  17.7930033   0.3071177  27.4209476  17.5621641  -0.4426740  26.8725324
  18.7225842   0.1854287  27.6140833  51.0603380  28.6651397  46.4202547
  50.4529858  27.9306674  46.3313437  50.6420326  29.2462897  47.0554876
  25.6038499  12.4182343  30.3202963  24.7487259  12.4101710  30.7503319
  25.6982708  13.3122921  29.9916983  59.4168854  21.9074249  45.4441595
  60.2001286  22.2350264  45.8862448  59.6195126  21.9816136  44.5115948
  49.7744703   8.3790940  42.4756193  49.8769474   8.6997557  43.3716679
  49.1050673   8.9464951  42.0932674   5.3276282  83.0120265  53.2845974
   6.1340171  82.6359045  52.9317522   4.6637422  82.8193413  52.6225138
  62.0214462  24.3217015  20.6417418  61.7314625  25.1830864  20.3414798
  62.1611500  23.8221574  19.8372746  62.2062605  89.5213724  90.8668669
  62.7612036  89.4337464  90.0918873  62.7009743  89.0929390  91.5653892
  81.6585732  31.0739779  51.4286089  81.5808296  31.9479346  51.0460043
  81.0909653  30.5245328  50.8880901  31.4668250  34.3194795  38.5563707
  31.0355592  35.1636744  38.6889505  31.3092566  34.1120648  37.6352954
   0.2051693  95.3025090  42.5673151   0.4018026  95.6283938  41.6890383
   0.2166062  94.3496155  42.4773407  70.7318354  29.0625691  58.4966850
  69.9327850  29.5894337  58.4837818  70.5862141  28.4236646  59.1944122
  47.8790665   9.6704352  32.7174163  47.7699900   9.1251719  33.4965324
  48.6305332  10.2281380  32.9186702  56.2035275  37.5422263  31.7988944
  56.7883015  37.4045348  32.5440884  55.3238535  37.5019431  32.1741033
  13.3086520 109.2482192  39.5391488  13.9422828 109.8914193  39.2212892
  13.8397294 108.5904654  39.9880910  39.2900729  21.0952449   9.8499966
  39.7573709  20.3030205  10.1150405  38.3931041  20.9574032  10.1544309
  76.3891554  17.5048876  55.9744310  76.3455534  18.3361220  55.5017996
  75.5062389  17.1421468  55.9029961  27.8148818  24.1275454  12.2924280
  28.0251765  23.9493155  13.2090747  27.6731777  23.2630277  11.9067347
  31.0107970   7.2144252  16.5121937  30.7674384   7.5145632  15.6364501
  31.4323521   7.9726464  16.9166982  25.0064254  53.8975716   5.3850162
  24.0733576  53.8309193   5.5879366  25.0899196  54.7248936   4.9108803
  45.5508804  29.7115064  16.5745687  44.8898792  30.3991032  16.4938593
  45.9258938  29.6356034  15.6971645  63.1477261  27.0633602  12.8061080
  62.7068329  27.4305129  12.0399201  62.4402618  26.8782520  13.4237313
  49.3265676   9.1448694  30.2815938  48.8814402   9.0939885  31.1274695
  50.1971436   9.4843787  30.4891086  37.3707509  29.5268941  26.4085793
  37.6189566  28.7978005  25.8402061  38.1266260  30.1138377  26.3891125
  69.0235806  41.8988132  23.0698204  68.7484503  41.7623472  22.1632290
  68.6164665  42.7277660  23.3214736  41.0144138  32.5884056  23.2573891
  41.1936569  33.5252476  23.3375812  40.8873653  32.4483132  22.3190594
  74.8200560  18.6601233  20.5035448  74.1975069  19.2635059  20.9092498
  75.6228304  18.7650859  21.0141945  26.6754103  29.9073005  18.5201561
  26.7213368  30.8601618  18.4415543  27.1747065  29.5808816  17.7715659
  27.9280710  45.3880310  29.2420983  27.9035044  45.2894211  30.1938868
  27.1309543  44.9555445  28.9358425  21.4713550  11.2123358  35.3122139
  21.1480093  10.5981135  34.6531153  22.3517871  10.8993304  35.5198193
  44.2082405  17.6297402  46.8948078  43.8714886  18.2004762  47.5855255
  44.3097162  18.2053256  46.1367607  22.4270183 105.1640414  40.8750772
  21.9197732 104.4188415  40.5531883  23.3125287 105.0114279  40.5452156
  38.4024215  44.9237585  17.6036000  39.1681528  45.4972410  17.6353252
  38.7448692  44.0550900  17.8142416  88.9921761  11.0589218  65.2666044
  89.1868782  10.2052093  65.6532526  88.2111835  10.9081769  64.7340965
  27.3952270   1.6161446  34.9701381  27.5817227   1.9312425  35.8545399
  28.2363224   1.6656815  34.5158982  34.6731305   1.2550698  69.3201828
  34.3196106   1.0633929  70.1888132  33.9396095   1.1033335  68.7242317
   0.9824538  18.3460069  35.4512048   0.7909253  18.7368917  34.5987034
   0.2796537  18.6581790  36.0211635  69.4699591  83.5155416  79.7193583
  68.5683506  83.8334871  79.6720226  69.3865316  82.5624824  79.7501834
  33.8445282  56.1318636  31.7871642  33.9001584  55.1796961  31.7064333
  34.0393209  56.3059425  32.7080250  32.6976442  37.1962690  31.5564799
  33.5258031  37.5839972  31.2735462  32.8561926  36.2524819  31.5374947
  38.2882452  41.5341806  38.9594817  38.5270834  42.2483683  38.3686113
  37.3782682  41.3351679  38.7391090 104.4589602 106.7204576  16.2012994
 105.2513944 106.1843630  16.1715782 104.7733890 107.6186140  16.0979486
  43.7828922  18.7793386  41.9090748  44.3464947  18.6385632  41.1483097
  43.3429241  19.6105063  41.7306852  57.3739100  21.3805270  22.3461676
  56.9662380  20.5185461  22.2623467  56.9202423  21.9237304  21.7016935
   0.4720413  74.8839141  82.1882208   0.8069861  75.2334691  81.3624747
  -0.0775278  75.5844832  82.5395067  53.9188099  30.9996319  31.1182857
  53.2478046  30.5709124  30.5870795  54.7410059  30.8047605  30.6685662
  49.0156460  35.3420186  37.0698094  48.6512566  35.6140971  36.2275338
  49.6447372  34.6554971  36.8480754  25.2930570  23.3436346  28.2689953
  25.2902102  22.5312614  28.7752318  25.8380842  23.1488490  27.5066066
  61.4920139  55.5367041  12.3943055  61.7063665  55.3463745  11.4810371
  62.0634460  54.9587297  12.8999150  21.8274760  25.1989484  12.6863658
  22.3041201  25.0364304  13.5003877  22.5102043  25.3886294  12.0428312
  17.4292493   2.6979771  31.4872408  17.5230670   1.8521048  31.0491419
  16.4841795   2.8125042  31.5870357   7.6506406 101.1186331  18.4164405
   7.3176318 100.2319061  18.2784092   7.0277434 101.6824924  17.9578662
  44.3231583  26.3254523  21.1731935  45.0432062  26.2659526  20.5453181
  44.7274446  26.1360931  22.0199084  76.6143894  36.2209463  43.4208536
  76.9696045  35.3601289  43.1993866  75.9071684  36.3576269  42.7904654
  48.9467096  26.9967890  31.9558072  48.8133717  26.1404371  31.5494633
  48.1394863  27.4773216  31.7721963  54.1831446  28.9709544  14.5402563
  54.0004253  28.0596161  14.7689617  54.9454689  29.2027879  15.0706744
  41.1080056 107.7288981  24.7081685  42.0321256 107.5182994  24.8418760
  40.7308274 107.7209397  25.5878878  36.4020610  36.1585140  29.6027470
  36.4215732  35.2149510  29.4429445  35.4934478  36.4105844  29.4380927
  36.5578079  49.4277143  29.4275689  36.6220450  48.7929153  30.1411057
  36.1485243  50.1956511  29.8263121  43.5896855  91.8149792  49.6889877
  43.6555654  91.6742360  50.6334877  44.1866952  92.5421821  49.5129776
  55.5440521  33.7647676  49.1073799  55.7840824  34.6611404  48.8725710
  55.4076290  33.7936020  50.0543690  26.1136627   4.0788954  57.0762157
  25.9658909   3.8288295  57.9882812  26.3424754   5.0074708  57.1165133
  83.0836201  38.7431860  15.2557015  83.0334759  39.2264605  14.4309819
  82.8638840  37.8421116  15.0190270  32.6001287  49.9501848  27.3465490
  32.2880030  50.8504868  27.4374485  31.8726540  49.4118500  27.6583314
 114.0648829  93.2145249  42.6537085 114.1726815  92.8413104  43.5285378
 113.1275355  93.1391763  42.4750042  86.4258688  71.8582583  85.3825350
  87.3471516  72.1049691  85.4638167  86.1117761  72.3515571  84.6247538
  21.1365253 100.4805206  45.0841284  21.1508638 100.0426363  45.9351778
  21.3032323  99.7812234  44.4521284  76.5087765 105.3688431  93.8650969
  76.9488709 105.8872796  94.5387227  77.1847957 105.2081729  93.2067557
  60.9415293  24.2909288  34.8665261  60.2676392  23.6370373  35.0523496
  61.5732861  24.1929102  35.5789232  42.0935440  34.5214772  40.6447124
  41.3747740  34.2375398  41.2094927  42.0765066  33.9090919  39.9092340
  39.8252439  30.1405931  10.3131044  40.5560732  29.9962664  10.9141815
  39.7912216  29.3449712   9.7820127  91.6158581  24.7117138  10.7329726
  91.2871647  24.2784476  11.5206730  92.4164867  24.2350554  10.5138326
  58.0441618  22.3171830  51.4572859  58.6708355  21.8957996  50.8691168
  58.5844803  22.7001905  52.1483707  45.2466440  22.5843453  11.0995221
  45.5824566  23.2178164  11.7336965  44.2947721  22.6555419  11.1709344
  80.6738377  31.2827802  31.4732146  79.7914886  30.9683800  31.6703129
  81.1648846  31.1412859  32.2825885 100.5105417  81.5717364  92.9356413
 101.4366882  81.3439418  92.8544252 100.4517095  82.4623037  92.5897224
  57.8058815  28.6468697  20.8997798  58.4099102  28.9198518  21.5903306
  56.9414616  28.6840081  21.3092136 116.4952820  60.9190238  93.1336682
 116.5833395  59.9855912  92.9408436 117.2363966  61.3270474  92.6858996
  43.3156586  28.5436749  46.5303373  44.1592216  28.2580757  46.1795235
  43.0647659  27.8525400  47.1432114  48.3495808  14.7571981  49.3851471
  48.3284616  14.6162057  50.3316689  47.7085543  14.1377866  49.0363646
  37.9990506   7.3963767  35.4987144  37.6274776   7.2548991  34.6279955
  38.6663532   6.7159349  35.5878115  45.9117031   0.4765176  42.7597284
  45.6111717   0.3832249  41.8557310  46.8662071   0.5036404  42.6932144
  81.3741875  10.5839038  32.5893688  80.7658386  11.1080801  32.0684242
  81.2017727  10.8453655  33.4938812  67.8175879   3.4833664  32.8388906
  67.6598120   3.5513386  31.8972325  68.4209871   2.7456695  32.9280090
  73.2823181  23.7799263  33.6360049  73.6802053  23.2133174  34.2969680
  72.8351545  24.4592953  34.1407156  42.7946472  39.2277527  20.9925985
  42.6323748  40.1076460  21.3327217  41.9415712  38.7952471  21.0304356
  71.2882519  43.2089758  52.0497322  71.7346144  43.2140255  51.2029934
  70.8410549  44.0543413  52.0897913  37.8191358 106.7950343  43.2045984
  37.0851403 106.3939421  43.6700106  38.5583001 106.7132448  43.8072395
  80.8226109  47.0314789  10.4708064  81.2880421  47.1023941  11.3042188
  79.9321651  47.3218775  10.6682909  47.9457951  64.5594311  42.3691320
  47.0335579  64.6644258  42.6393747  48.0409384  65.1419926  41.6156101
  70.1488018  25.8787799  26.8921089  70.9097528  25.7524133  26.3253498
  70.2354097  26.7765164  27.2127342  65.9514189  22.6558065  18.3512855
  66.2598753  23.5568047  18.4476566  65.5087519  22.4644613  19.1781247
  42.3990488  16.7727983  25.0957847  42.1878672  16.7727768  26.0293984
  43.0200386  16.0519969  24.9906707  64.3917227  13.4112310  65.8054686
  65.0000715  13.7292588  66.4725542  64.9401140  12.9136753  65.1988935
  69.3239730  88.7437177  83.4249290  69.0093296  89.1494489  82.6170845
  70.2400320  89.0141273  83.4877427  60.5960655  29.2003536   5.4850399
  60.5532408  28.5546398   6.1903435  61.4768124  29.1019201   5.1233459
  63.3521891  45.7615566  36.8134379  63.8669968  46.5573120  36.9475317
  63.0669737  45.8117104  35.9010935  78.2396889  10.4205227  33.8220572
  77.6828432  10.6221974  33.0700755  78.4622002  11.2751210  34.1913605
  88.9302826  35.8625388  37.9035306  88.7851810  35.9411478  36.9606638
  89.8749638  35.9736729  38.0105710   9.1618592  19.3176663  16.2400842
   8.7680018  18.5210395  16.5957439   9.6855509  19.0152752  15.4981017
  83.1051159  32.8258181  29.0678501  83.5587311  32.9671812  28.2369018
  82.3635674  32.2637391  28.8433170  28.8605714  44.7077656  24.9191332
  29.5185566  44.0128756  24.8988128  28.1679106  44.3988943  24.3351364
  58.5987139  14.5197785  49.1613531  59.0032911  13.6964393  48.8881207
  57.7897644  14.5697248  48.6520958  62.7741432  13.2594800  31.7109275
  62.8340435  12.6519120  30.9736991  63.5599899  13.8012743  31.6392493
  62.6972437  11.5928411  62.6930904  62.2540998  12.3451090  62.3007345
  63.6294460  11.7771554  62.5779247   4.4498902  93.1266259  42.8859234
   3.7746698  93.3208095  42.2358513   4.1847640  92.2879302  43.2634544
  28.2857370  46.8314219  26.9593310  28.7555146  46.2587643  26.3530278
  27.9453254  46.2409496  27.6314116  51.0657406  28.7247849  25.4540277
  51.5112495  28.0590987  25.9780645  51.0095501  29.4861341  26.0314560
  76.8316126  30.7454515  51.9871759  76.4860439  31.5516520  51.6039562
  76.0700130  30.3238344  52.3852158  61.1917782  49.6177340  25.0279355
  60.5322027  49.9757814  25.6220651  60.7159519  49.4510174  24.2142844
  66.4417076  56.6795254  12.4195290  65.7003164  57.1565056  12.0466232
  67.2130966  57.1067047  12.0470965  27.0735025  29.3035102  24.0575290
  26.3648224  28.7251067  24.3394041  26.7726469  29.6614695  23.2223153
  59.0069914  64.2025137  18.9493966  58.4147644  63.7948895  19.5813286
  59.0410471  65.1223898  19.2118859  46.4631510  56.2532902  26.1801291
  46.6682577  55.4138851  26.5919113  46.8871403  56.9043112  26.7392683
  64.4976616  53.2246637  35.6768250  65.3106451  53.6947012  35.4914761
  63.8119555  53.8858843  35.5828810  78.7860250  29.8014617  45.5916262
  78.2376385  30.0873804  46.3222075  78.5927820  28.8686752  45.4978228
  21.4960480  32.8931570  21.7106962  20.6041360  33.1784320  21.5123415
  21.6671038  32.1892571  21.0849977  12.2797471  82.4492418  34.4898820
  12.5853997  82.2530662  35.3755021  13.0058271  82.1893918  33.9228606
  33.5018015  20.8413410  35.8030653  32.9199958  21.2644625  36.4344954
  34.1750908  21.4969206  35.6210566  93.4140587  82.2915649  26.4253044
  92.6119423  82.7004147  26.7503762  94.1101074  82.6684284  26.9635653
  42.2599411  31.2458205   5.4708391  42.3191786  31.9465518   6.1202228
  42.7335596  31.5832114   4.7105223  77.1340656  28.9698124  17.4816489
  77.9202890  28.4897614  17.7417195  77.4388647  29.5854735  16.8150961
  74.9942780  56.8262196  51.1593819  74.9412394  56.8747234  50.2048826
  75.0232315  57.7395487  51.4443731  85.3684235  28.4156203  39.4278121
  85.1160049  28.5312128  40.3438663  86.1625195  27.8823638  39.4636464
  58.0242538  42.6458025  44.4535017  58.3772039  42.4109030  43.5953188
  58.5766888  42.1742249  45.0769281  54.1426182  37.1549463  37.5403357
  54.4291258  38.0682182  37.5491953  53.2264709  37.1939898  37.2657728
  67.8359604  53.9032888  28.9652562  67.3628616  53.1444263  28.6238813
  67.9477596  54.4767714  28.2070684  99.7549646  79.2168809  94.3802986
  98.9484804  78.7014390  94.3917558  99.5905178  79.9046350  93.7351775
  72.8338957  40.4532433  28.5558748  72.1678782  39.8114538  28.8023734
  72.6679230  40.6268263  27.6292944  66.9895220  86.2884998   1.7797318
  67.1253729  87.2313690   1.6860276  66.8382263  85.9784126   0.8868788
 112.4924946  30.2921605  12.2019482 112.9432583  30.7999325  12.8766429
 111.7711735  29.8659444  12.6648343 110.5839062  42.7832603  12.2243750
 110.0611782  42.2307539  11.6432405 109.9447060  43.3531380  12.6520371
  63.1850338  41.5623856  43.6103249  63.6770821  41.0001183  44.2086315
  62.3923922  41.7923784  44.0951538  95.1435947  62.2757149  20.5193496
  95.0197029  63.0983400  20.0458837  95.9199238  61.8837738  20.1194477
 101.1369610  76.9934320  32.6931787 101.6586494  77.1372461  31.9036269
 101.7515469  77.1291494  33.4143519  63.4112263  55.9165907  41.6396379
  63.8565540  56.3170099  40.8929253  63.6930037  56.4355326  42.3929882
 116.5893555   4.4408563  43.5565615 116.9372845   5.2758390  43.8695765
 117.2157955   3.7880835  43.8691139  26.0742354  48.7640858  26.9346404
  25.4265380  48.7080765  26.2320852  26.7853570  48.1894636  26.6511822
  55.6727552  75.8481646  34.8622704  55.9889317  76.0687208  35.7384086
  56.4367914  75.9602404  34.2966580  82.7809620  75.5852032  16.8243062
  83.2801914  76.4018917  16.8288457  83.3985043  74.9287748  16.5018666
  51.7283630  43.8475180  38.4034634  52.2472000  44.4835615  37.9110336
  51.2746525  44.3695068  39.0652108   4.6502649  92.4942733  61.1748190
   3.9665949  92.1858621  60.5800934   5.4295790  91.9999243  60.9207983
  78.9136982  61.5026808  33.3036041  78.6061668  62.1871424  32.7093267
  78.7609196  61.8589592  34.1787934  45.9011841  26.8902874  32.4008346
  46.2000513  25.9814739  32.3697710  46.5908051  27.3530722  32.8767371
  68.2637215  48.5982609  22.2327876  68.4974432  48.3958483  23.1386757
  68.2165337  47.7451563  21.8012619  66.5380049  33.1982756  29.8057365
  66.9081926  33.5937691  29.0165734  66.0527420  33.9090037  30.2248025
  62.5455189  47.9969597  11.1976898  62.2938967  47.4067783  10.4873371
  62.0810556  47.6608562  11.9642019  70.7055807  30.5542779   2.6862624
  70.8708954  31.4475799   2.3847395  71.0044384  30.5492616   3.5955968
  59.4402742  36.9477153  13.5851109  59.1316271  36.4973283  14.3713176
  59.9346638  36.2823653  13.1064415  74.7204113  50.0183821  41.1381006
  74.9119043  50.0137329  42.0759392  75.4990196  50.4041052  40.7365751
 104.0689564  36.9057941  29.9492049 104.4180679  37.7761531  30.1411152
 104.8178101  36.4174032  29.6072721  78.3822966  57.6698399  14.5804667
  79.0513849  57.3910999  13.9552832  78.3228731  58.6176920  14.4609821
  40.4748201  54.0397739  25.8067942  39.6451283  54.0499353  25.3295732
  40.9864759  54.7462606  25.4126930  92.3009968  24.9496293  28.3526874
  93.2518196  25.0456667  28.2983780  92.0796394  24.3507028  27.6395822
  75.9410858  23.7377000  83.4364319  75.4225445  24.1227531  82.7299786
  76.7074871  23.3688164  82.9973602  48.1615877  70.0571632  12.8754258
  48.4223032  69.3962955  12.2339368  48.3781052  70.8921766  12.4605703
  84.3414783  54.3245411  29.6462035  84.8890018  55.1092434  29.6725225
  84.2441082  54.1315937  28.7137222  72.5062037  34.8527241  26.3982439
  71.9261312  35.5856538  26.1919427  72.8459406  34.5698357  25.5492520
 115.5312412  84.6292020  90.6108235 115.2604978  83.9608813  89.9813189
 114.7109049  84.9597860  90.9768684  76.7542648  63.6238813  14.4530952
  77.5888205  63.8600683  14.0481663  76.4307356  62.8931284  13.9262545
  89.3743896  50.8330822  12.1328378  90.2529240  50.7121038  12.4930787
  88.8753700  50.0856924  12.4624145  25.9251142  31.0449362  48.0817938
  26.1948466  31.2043476  47.1773243  25.8999395  30.0912404  48.1596708
 107.7167099  39.5709015  83.9252682 107.3304384  38.7376345  84.1948874
 107.6379793  39.5738626  82.9713161  27.6739526  16.7506063  34.8392844
  27.6551604  16.9602787  35.7730484  28.5940099  16.8423545  34.5916748
  73.6789036  74.1707325  11.0246229  73.3167171  74.7813702  11.6666317
  74.2793083  73.6214685  11.5286636  60.9841156  23.3550072  13.3717060
  60.2712345  23.3669877  12.7330458  61.7116451  23.7896919  12.9267526
 106.7727757  32.8044629  62.2356462 106.9162560  32.2125459  61.4972210
 106.9228268  32.2621489  63.0099916  71.0606050  34.9602246  19.1204262
  71.6737270  34.7374320  18.4199440  70.4820633  35.6167626  18.7325096
  69.8643684  42.5030518  10.7985842  69.8474169  43.2718849  11.3685274
  70.4256010  42.7596569  10.0668705  20.6695491  96.9448506  34.0739632
  19.9885875  96.6769182  33.4569263  21.2753278  97.4685656  33.5495710
  44.2318583  38.6652899   1.1387390  44.4374371  39.1989875   0.3711876
  45.0719118  38.2882810   1.4002863  81.9102573  31.3007259   9.7205740
  81.8361855  30.3767490   9.4818008  81.0604668  31.5179372  10.1038432
   6.9387013  35.4133725  21.2944651   7.6521921  36.0177851  21.4990330
   7.3657668  34.6794748  20.8526063  78.7715864  28.9679790  26.2881064
  79.2567348  28.8425303  25.4725552  78.6553955  29.9157929  26.3543081
  77.6706696  38.7108970  34.1109943  77.0948219  39.1127181  33.4604764
  78.2806301  38.1819773  33.5967684  44.3348026  25.2934122  39.0634155
  43.8115358  24.6561861  39.5495915  43.7845993  25.5370474  38.3190036
   1.3541931  78.8596535  37.2762179   1.3597721  78.8952684  38.2327390
   1.9092411  78.1100321  37.0612168  54.5430088  27.7110267  54.1776943
  54.0934324  28.0211353  53.3915997  54.6100903  28.4853292  54.7364330
 100.1675034  52.0072365  19.9832177 100.7935143  51.3043833  20.1573896
 100.5255985  52.4637127  19.2218852  46.4998293  38.1798768  31.2825322
  46.5464163  38.4908986  30.3784704  46.8429184  38.9058614  31.8035579
 103.9568615  52.1166849  18.8658190 103.1449127  52.3717070  18.4276998
 104.5991325  52.0488691  18.1593370  81.0786836  85.4389501  95.4465796
  80.7798117  86.0289074  94.7545848  81.4129608  84.6727491  94.9802882
 102.1417522  35.4712629  33.5561323 101.6696167  34.8178434  33.0400252
 101.5142441  36.1849165  33.6708617  38.2066178  47.1910524  19.7164464
  38.6563516  47.6279736  20.4396844  38.8390374  47.2045422  18.9980471
  69.1563034  53.4792042  17.0155203  68.6282301  52.8150988  16.5724254
  68.9500284  54.2940187  16.5575206  68.9138508  59.7111320  12.8290439
  68.9419842  59.1856718  13.6286271  68.0384159  60.0982237  12.8275037
  78.0725813  58.1702089  61.4906168  77.6879740  59.0323973  61.3326836
  78.2639694  58.1614685  62.4284458  68.9182949  15.0996852  24.6808743
  69.4338989  15.5544972  24.0148926  68.0795240  14.9228108  24.2549491
  78.3458614  41.2496614  27.9803228  79.0134478  40.5817938  27.8237700
  78.3234215  41.7602205  27.1709657  41.8339729  34.0305066  33.4703350
  42.5129366  33.6254287  32.9307485  42.2765779  34.2442226  34.2917109
  47.8130388  39.0612483  41.0266209  48.4945011  39.5231605  41.5149593
  48.1834126  38.1944418  40.8601952  82.1626091  50.3020334  30.2211905
  82.2056103  51.2473822  30.0773001  81.4003468  50.0174522  29.7170043
   9.5432819   1.2348498  24.5271635   8.8219703   1.7880286  24.8270774
  10.2640498   1.8450011  24.3708324  44.9455261  44.0675640  10.5907905
  44.7630978  43.1405258  10.4373169  44.8695135  44.1728258  11.5391433
 110.0708485  63.7961817  16.5241325 109.7904301  64.5566368  16.0149133
 109.7980690  63.0431271  15.9999847  56.5804386  49.3791103  38.6205602
  57.5075531  49.3803692  38.3824515  56.1513996  48.9018726  37.9103494
  18.0440950  52.1019554  36.3912106  18.8509786  51.7057180  36.0623193
  17.4645543  51.3593340  36.5611529  52.8726673  44.7155237  42.3247147
  53.2610655  43.8758469  42.0791054  51.9515038  44.5142508  42.4895620
  49.3007278  60.5908728  39.0020585  49.9431753  61.2907743  39.1188049
  49.7613907  59.7957611  39.2700458  60.9965849  20.0918984   9.7623158
  61.2777710  20.3340244  10.6446660  60.9154797  19.1385400   9.7899455
  48.8119793  40.0317097  15.1082861  49.1811371  39.2319870  15.4829860
  48.2827759  39.7284555  14.3705773  65.9212208  40.5236721  35.8861566
  65.0642633  40.8299589  35.5894232  65.8519030  39.5690703  35.8736300
  74.4525671  25.7430124  27.3323727  74.9675798  26.2269473  27.9779744
  74.5134306  24.8299408  27.6131392  58.2240868  18.9850998  18.3452225
  57.5133657  19.1823423  17.7351367  57.7813339  18.7022877  19.1453588
  50.8242989  64.3320990  29.5873308  51.4980936  64.1654348  28.9282036
  51.2717962  64.8398113  30.2642393  53.9659643  28.9257932  20.9310412
  54.1837120  28.2044148  20.3407645  53.1165409  29.2403936  20.6216168
  71.6105461  45.5219746  18.6437821  72.2550249  45.7839394  17.9863214
  71.6558123  46.2077045  19.3100846  95.9351938  95.9018803  95.4484746
  95.8016317  96.8393946  95.3089734  95.0549715  95.5271674  95.4163915
  65.3506899  45.2196646  39.8076010  64.4193602  45.2301311  40.0283957
  65.6617451  46.0946131  40.0398493  52.4015236  33.6320710  28.8429761
  52.5197601  34.4238019  29.3677735  51.7359018  33.1301332  29.3133330
  93.7000942  54.5965672  41.1234903  94.5770836  54.2317867  41.0048771
  93.4213543  54.8418093  40.2412224  41.2392378  49.1121006  39.1605973
  41.9454241  48.9081526  38.5474610  40.4470873  49.1087246  38.6232686
  51.0401011  50.3725958  35.2552748  51.3314247  49.8642445  34.4983459
  50.7505846  49.7153854  35.8881116  70.0243282  41.7797327  15.4657662
  70.1398516  40.9240055  15.8788216  69.5011902  42.2795296  16.0924709
  51.2729692  20.5596375  36.9947910  50.7512617  21.3559675  37.0943594
  51.3159084  20.1896238  37.8765368  96.4087582  48.1479931  14.3109524
  96.1935139  47.2829771  14.6597290  95.6299877  48.6767912  14.4845092
  59.7038555  27.0170331  34.8396063  60.2086449  26.2113047  34.9501538
  59.1349459  27.0506668  35.6086588  62.7717495   8.6201197  43.1065702
  62.4565220   7.7512723  42.8576422  62.0534515   9.2100739  42.8780317
  65.3430414  59.2288876  37.5895476  66.2028742  59.6492624  37.5754118
  65.3928041  58.5588074  36.9078207  59.2341757  63.2153463  34.7553372
  59.1911936  62.9409885  33.8393068  58.6933708  62.5780678  35.2218556
  89.4803715  41.6851330  35.6774831  90.1908207  42.1501255  36.1193728
  88.7059212  41.8706846  36.2085438  61.7413664  36.6448474  19.8817241
  61.2169313  37.3185205  20.3145766  62.1111870  36.1310959  20.5997252
  56.9403982  72.9094982  28.5624933  57.7666140  72.5743961  28.9107871
  56.8778229  72.5288534  27.6864672  55.6943893  16.2319982  36.9046617
  55.4982710  15.4697514  36.3599157  56.4896822  15.9892809  37.3788285
  68.7099886 101.1283207  28.3058524  68.9239502 100.2711487  28.6742330
  69.5162249 101.6361809  28.3969259  90.1450539  13.4525156  31.9226575
  89.2462063  13.3523762  32.2361445  90.6068897  13.8709486  32.6491952
  81.2722301  27.6052737   4.1392958  80.3526402  27.4988890   3.8958591
  81.7524433  27.0870066   3.4935200  46.0170269  33.1282640  27.0570755
  46.5603638  32.3712707  27.2761083  45.7313538  32.9659438  26.1580348
  62.2255373  30.9160233   3.2463327  62.2566891  30.4547644   4.0844858
  62.6066399  30.3006554   2.6199824  82.8092384  33.6754775  19.3702567
  83.6412430  34.1384721  19.2721498  82.8533077  32.9654169  18.7298620
  48.8369274  40.4600620  26.4709783  48.5340500  41.2426996  26.0105681
  48.8591146  39.7797871  25.7979512  38.6156321  19.2679834  12.7630079
  39.2558241  18.9937794  12.1063495  38.8155961  18.7324035  13.5307336
  41.0942316  56.0518646  18.1891012  41.9700050  55.6674051  18.2269943
  40.7967615  55.8824682  17.2952044  38.6210561  11.1621022  25.2448368
  37.9888892  11.3156295  24.5426798  38.8145494  12.0345151  25.5878949
  54.6058369  49.4286394  40.2729416  54.9148369  50.1399088  40.8340502
  55.2924156  49.3281841  39.6135902  44.2206573  41.2284088  27.1506619
  43.4380913  40.8186865  27.5193810  44.1296291  41.1108589  26.2050772
   5.7443089  71.6200495  11.6272461   5.2594322  71.3381720  12.4029207
   6.2544960  70.8516312  11.3713610  76.3744879  93.0389118  27.1397328
  75.8606005  93.5238743  27.7854633  77.1259260  92.7076340  27.6314974
  49.0940857  52.9446507   3.8874370  49.9142313  53.0681658   4.3652827
  49.0849638  52.0139694   3.6638793  61.6304398  25.6300426  28.7128353
  61.2033463  24.8025608  28.9344120  61.5995693  26.1398149  29.5224118
  73.0680292  95.8348275  89.4675477  73.1112616  95.8317328  88.5113295
  72.3747938  95.2092314  89.6779873  53.8419628  65.1910830   5.4483885
  54.4089317  64.7136497   6.0540587  54.2002201  66.0785961   5.4340988
  83.2268160  68.9331139  94.7052407  82.7879351  68.8285149  95.5494428
  83.8749521  68.2290745  94.6833877  62.8952265  59.4064713   5.7118273
  62.6543474  59.7868156   4.8671108  63.4611416  60.0632334   6.1175728
  57.0621586  51.5060043  35.4316068  56.8589163  52.2843790  35.9503102
  56.2342310  51.2765169  35.0095868 103.4565926  50.9043121  33.7815881
 103.3427906  49.9673033  33.6225510 103.4168816  51.3014746  32.9115772
  63.6518431  52.4734116   4.5850435  63.2105780  53.2900000   4.3511501
  63.1261063  51.7896605   4.1699407  47.9101324  30.1662111  39.3440318
  47.5018406  29.6916080  38.6199570  48.3374643  30.9152889  38.9287019
  44.7761822  37.4289966  24.9961543  44.7136545  37.4704194  24.0418983
  45.6966829  37.2300887  25.1674557  77.0049286  64.3672323  30.4312181
  76.6861629  63.8440847  29.6957302  76.3048029  64.9984550  30.5973840
  38.5918260  38.2546091   9.4235396  38.5134339  38.8501120  10.1688349
  37.7355742  37.8308487   9.3644565  76.6586971  26.5898228  50.2871704
  75.9419727  26.3553047  49.6976423  77.2679377  27.0840859  49.7387505
  87.5885677  42.1090841  27.2205663  86.9007301  41.5019798  27.4935913
  88.3971882  41.7207861  27.5546145  42.2767973 100.8045006  44.4236279
  42.0092154 100.0758362  44.9837017  42.7393770 101.4013767  45.0118351
  56.7704535  55.9019613   5.7033926  57.1225405  56.4481831   6.4061785
  56.1349201  55.3330421   6.1377454  60.5905628  73.0333614  12.6042855
  60.1827860  72.9302454  11.7444503  60.6035614  72.1491957  12.9707849
  82.8551006  22.0585418  13.2650530  82.6890278  21.1253548  13.1315851
  83.5396004  22.2730494  12.6312649  50.7301903  35.4159427  19.0324688
  49.9822187  35.5715799  18.4557998  50.3438759  35.3052545  19.9012268
  58.4985238   1.3697423  94.9997743  58.7320405   1.7397536  95.8511206
  58.4335786   2.1277322  94.4188592  95.0878048  58.8637304  17.3824346
  94.6421909  58.9604330  18.2240438  95.0957394  59.7466373  17.0127821
 111.1238575  60.0239801  22.2093844 111.6692924  59.2516088  22.3583078
 111.2628460  60.2412176  21.2875795  44.1158772  38.9452839   6.8255424
  43.5805655  39.2312860   6.0853571  45.0150347  38.9826536   6.4994311
  66.2699652  22.4642253  24.0459657  65.4640150  22.3969173  24.5579720
  65.9951019  22.2998667  23.1439304  60.8973026  35.4476762  17.7602172
  59.9436188  35.4248142  17.8389204  61.1891603  35.9406948  18.5270190
  10.7648307 104.4587617  46.3037920  11.2031442 104.3127947  45.4654551
  10.6199485 103.5799949  46.6545200  97.9463291  17.8911531  33.1176925
  97.6449203  18.1093013  32.2357655  97.9601669  18.7290907  33.5801864
  71.2708807  46.7475700  25.7969308  71.3170481  46.5429592  26.7308664
  71.8914747  46.1439896  25.3885412  49.7888136  31.4878249  42.0449781
  48.8607740  31.5856099  41.8318844  50.1827240  31.1390805  41.2453270
  84.4446468  62.2363663  29.2693377  84.3720055  62.3217630  30.2199483
  85.3438282  61.9424582  29.1232824 111.1576271  57.3411751  62.6599836
 112.0366573  57.6130104  62.9239035 110.5713940  57.9178715  63.1498671
  98.1413174  55.9427023  26.3333130  97.3618031  55.4479742  26.5859556
  97.7993393  56.7146540  25.8823490  28.8969117  30.4383935  92.2004686
  29.4049340  31.1980142  91.9156636  28.3606320  30.2105130  91.4410584
  66.5336561  51.0798502  39.3443274  66.6899872  50.4895449  40.0814342
  67.1107340  51.8257380  39.5082474  46.8603373  11.3878298  43.3955956
  46.2600470  12.1289361  43.3140898  47.5334501  11.6907203  44.0050268
  19.4669384  38.8443041  40.3075027  19.5453018  38.8690066  39.3538356
  20.2751965  39.2471671  40.6247568  90.0396633  60.4456520   6.1283487
  89.9707508  59.5944977   5.6958902  89.2345333  60.5198908   6.6406715
  49.2297697  40.9562635  36.4018011  49.8445940  41.1449528  37.1107554
  48.6656666  41.7285633  36.3620782  64.0927410  21.3703656  22.3925900
  63.1607151  21.3979363  22.6089096  64.2072344  20.5391049  21.9320178
  67.5809526  22.0908952  39.9052072  68.1863594  21.8703055  39.1973567
  67.7602291  23.0117035  40.0954723  58.3984137  50.2419853  40.5825806
  59.0496063  49.5804310  40.8160973  57.7811766  49.7805643  40.0148392
  59.1961050  50.4988670  27.2373128  59.1504049  51.3370562  27.6972914
  58.3133221  50.3669453  26.8915820  57.8245640  51.7509604  30.4096842
  56.9712448  51.3174248  30.3986645  58.0409622  51.8773317  29.4858694
  48.8493824  25.1775026  23.1603646  48.4968376  24.3018675  23.0015874
  49.7921371  25.0423765  23.2562041  46.6348505  38.6780381   5.0624210
  46.0504913  37.9214430   5.1105940  47.5147915  38.3013034   5.0605005
  57.3760414  31.8231726  39.8868775  57.2621584  31.3495421  40.7108545
  57.5160027  32.7325821  40.1507235  43.5315514  53.1024599  38.1705642
  43.5926914  53.9458895  38.6190295  43.5228634  52.4559641  38.8764000
  38.2936096  37.0542502  27.6730061  38.6920834  37.7481222  28.1983542
  37.5339150  36.7737460  28.1833148  94.0404510  32.4142551  22.0216632
  93.5840130  32.6609373  21.2172699  93.4528732  31.7910290  22.4489546
  68.2612324  93.4648132  32.0845771  68.1376266  93.8987160  31.2403750
  68.7476540  92.6674747  31.8751073  59.3494797  31.2139678  16.7590809
  59.2512178  30.3101015  16.4597380  59.2691374  31.1609459  17.7114284
  76.8011522  52.8559303  56.0076666  76.8767643  52.7087784  56.9504595
  77.3915911  53.5884380  55.8314705  64.2746925  25.5531740  40.7772446
  64.1727209  24.6963954  41.1916924  64.7096682  25.3665376  39.9452615
  51.0426331  62.5609589  38.9753032  51.4230967  63.4358549  38.8976383
  50.3691339  62.5314760  38.2957721  72.1860838  72.6070738  28.7083197
  72.1032476  71.6812944  28.9370036  72.7146053  72.6102972  27.9102707
  82.6318359  52.3170567  43.2779169  83.0133915  51.8417454  42.5398636
  81.6950035  52.1275091  43.2262897  51.7176580  57.1034098  51.0364723
  52.5860310  56.7119122  50.9422016  51.8398333  57.8063583  51.6745710
  92.3639202  50.8720922  15.4277623  92.1398163  50.5538988  14.5532560
  91.8590260  50.3164053  16.0215008  74.4134188  66.8375778  21.0333204
  74.8784447  67.0372772  21.8457890  73.6026001  66.4164543  21.3187289
  62.2742367  57.6687813  13.7665486  61.9995928  57.2335100  14.5736039
  62.0171261  57.0652676  13.0694854  49.2907619  60.0857162  32.5924850
  49.9307299  60.0537586  33.3035755  49.6855736  60.6650782  31.9407988
  93.7420654  57.2838736  10.2895594  93.2541847  57.9254913   9.7732860
  94.5277977  57.1076345   9.7720832  86.5835476  28.0777788  21.6761827
  87.0977688  28.4395766  22.3979306  86.8746853  28.5662985  20.9062314
  36.7438537  10.7793178  91.9494759  37.4474031  10.4160871  91.4115973
  36.3441926  11.4522971  91.3984780 100.9666252  67.5957489  18.9471984
 101.3267899  66.8129826  18.5303247 101.6760826  67.9194689  19.5022619
  83.9982033  64.0598726  39.1580153  84.8466492  63.6485958  38.9930010
  83.9196968  64.7284079  38.4774780  73.0302906  50.8290958  37.8477740
  73.4865952  51.6552830  37.6883054  72.6228142  50.9423971  38.7064695
  73.0494070  44.7590351  24.1473651  72.6859665  44.0241957  23.6532450
  73.9473200  44.8427153  23.8264537  54.0370798   9.9468088  36.2955260
  53.4292603   9.2214262  36.1519694  53.6104393  10.4890585  36.9589829
   1.8690025 106.2209035  80.7963319   1.3968908 105.3943778  80.6953366
   1.9658196 106.3273478  81.7426558  61.3294458   3.1886095   0.9210529
  61.0181332   3.1760821   1.8261275  60.5309963   3.2027519   0.3933071
  63.1872082  60.6461811  31.3840842  63.3810711  61.4897680  30.9754181
  62.6514196  60.8666515  32.1460247  79.9327374  62.5754452  22.7980113
  79.9736834  62.7150059  23.7440968  80.8445930  62.6177692  22.5099802
  65.2170324  58.8405228  32.8047776  64.7148228  59.3940258  32.2067356
  65.3631926  59.3905210  33.5744309   3.8234848  89.3122673  23.6539483
   2.9936737  89.7393036  23.8667488   4.2627472  89.9235916  23.0627108
  90.2133083  39.4598603  24.8109961  89.4165802  39.9634790  24.9778175
  90.7364845  39.5692587  25.6050682 110.5789566  43.8299799  42.9137564
 110.2340031  43.8828707  42.0224428 111.5124798  44.0201187  42.8209686
  61.5157747  66.7659903  10.1295400  60.8012867  66.4191914  10.6638300
  62.2089720  66.1098528  10.2015471   4.3782199   0.6851233  24.9242854
   3.4663070   0.3941954  24.9226046   4.3420089   1.5847624  25.2491975
 106.3558960  68.9445972  36.2789202 107.2424412  69.2280674  36.0555100
 106.0816383  69.5419598  36.9747448  83.1553459  33.8684464  47.2670078
  84.0862846  33.8862586  47.0450735  82.7596664  33.3126044  46.5956593
  14.6375508  72.4050474  41.0142946  14.9932331  73.1227636  41.5383244
  15.2684731  71.6934824  41.1231327 101.2512493  53.1820011  27.2376728
 100.7374191  52.8789711  27.9862571 101.6187382  52.3828363  26.8601489
  27.3883134  26.0416211  90.5437307  27.7604085  25.7757844  91.3846286
  27.8319770  25.4891957  89.9001332  53.8646841  44.0360117  36.2997341
  54.0402937  44.6527672  35.5890942  53.0163622  43.6514902  36.0789990
  96.7387676  77.9958630  35.5825067  96.6388798  78.1900454  36.5144658
  97.0909119  77.1060801  35.5596471  74.9885559  50.5312204  68.4022284
  75.3111267  51.2611818  68.9307499  75.0494242  50.8438206  67.4995613
  72.4815083  40.3104210  36.1676073  73.3077812  40.4594469  35.7079411
  72.0115280  39.6831346  35.6181836  91.4878368  58.1664324   1.0701159
  90.7162094  58.3313131   1.6119990  91.6086388  57.2176313   1.1077421
  63.9393759  49.8443699  16.0989583  63.9591837  50.2846289  15.2492464
  63.0442858  49.9711132  16.4135730  97.3337841  62.4346781  34.9771595
  97.2753143  63.3898640  34.9562955  97.7544594  62.2386980  35.8143282
  60.5450583  17.1531951  33.2249522  60.5311680  16.2274563  33.4679508
  60.8447695  17.6036215  34.0145874  69.1343307  49.0204668  29.6196580
  69.9018764  48.6163998  30.0244284  69.4110441  49.2168951  28.7246275
  10.8984703  76.0250378  34.2856836  11.5289158  76.4918947  34.8341584
  11.3550133  75.2256918  34.0233088  76.3145638  77.7021837  21.2011218
  76.8894625  77.0247698  21.5572500  76.4491129  78.4564495  21.7748976
  84.9932384  36.1822748  22.6393819  84.6662235  36.4928126  21.7950702
  85.6136417  36.8557143  22.9183173  54.6972179  57.1736431  45.3582335
  55.6223440  57.3206186  45.1613188  54.3445683  56.7705870  44.5648813
  85.7000542  66.5359879  31.8484855  86.5087700  66.9207621  32.1863580
  85.2656364  66.1747360  32.6211500  68.2751608  62.8428602  38.9409804
  68.3263016  62.1163464  39.5621037  68.2094860  63.6237383  39.4906569
  65.6117439  91.8984604  32.3531651  65.7554102  92.8271008  32.1709251
  66.4041090  91.6189957  32.8117418  80.3217697  58.9235783  53.4271574
  79.4501400  58.6839914  53.1123734  80.9213448  58.4086084  52.8872061
  75.9706974  85.0683594  29.1896582  75.9932041  85.3774548  30.0953007
  75.0387812  85.0165749  28.9773464  73.1092644  55.8591270  41.5141344
  73.4326124  56.2732363  42.3142529  72.1561289  55.9078455  41.5875721
  57.3390818 100.7462978  40.3846073  56.7718697 100.0030518  40.1794577
  56.9027138 101.4982986  39.9842095 110.6696033  58.6814451  11.8622816
 110.1654816  58.6129332  12.6730871 111.0362244  59.5654249  11.8821669
 101.1640358  68.5232401  15.3435647 101.3468266  68.2646370  14.4402683
 101.5679550  67.8375149  15.8754194 110.7836246  73.6216211  31.1127543
 110.2742863  72.9138565  31.5075588 111.6889191  73.4311533  31.3585377
  99.1378212  34.0843201  44.5528698  99.2052269  34.5367122  45.3937244
  98.3896542  34.4948268  44.1193342  48.3403855   3.2545604  79.6159072
  47.7597982   2.9314746  78.9268764  48.1884938   4.1994657  79.6335562
  75.0002003  58.9776611  45.6578016  75.7884121  58.5541677  45.9978104
  75.2864218  59.8589373  45.4176617  91.6841888  52.0272636  40.9338140
  92.3373127  52.3090076  41.5743494  91.1462879  52.8044367  40.7825184
  85.7731152  74.1329384   4.2968303  85.3152275  73.3016872   4.1719472
  86.5817833  73.8951492   4.7504193  80.4867172  36.4004922  31.0405827
  80.7108974  35.4890800  31.2284589  80.6365681  36.8592906  31.8671918
 117.2849195 104.5964289  89.3743088 116.7198150 104.5755912  88.6020036
 116.7124241 104.3391610  90.0970055  78.7373829  38.5629344  74.7192574
  79.5049477  39.0879059  74.4923687  79.0783453  37.6753426  74.8295021
  46.8955564  48.6928797  11.8971026  46.1684465  48.0953932  12.0718920
  47.2238016  48.4259462  11.0384786 104.1476536  67.1664762  42.4103308
 104.5674896  66.3369942  42.6382113 103.7287426  67.4537277  43.2216454
  91.8713856  90.5204868   6.1174035  92.8265953  90.4725647   6.0785943
  91.5864086  90.3513145   5.2194053  92.7435112  69.8518276  25.7163620
  92.0930958  70.3389835  26.2221932  93.5320282  69.8708868  26.2586808
  94.9759865  56.9326782   0.1543915  95.1260281  57.6097727   0.8141344
  95.8463478  56.7420053  -0.1953749  77.2648287  86.8020916  31.8426847
  76.4637756  86.3249779  32.0592642  77.2018576  87.6155472  32.3432350
  77.5213766  15.7996893  47.1333027  77.4363232  16.4792657  46.4645958
  77.5822020  16.2815714  47.9581213  77.9350185  59.3399811  32.0967722
  78.3089352  60.1309061  32.4851775  78.6874342  58.8725901  31.7339349
  96.3396645  35.3831625  48.9568424  95.5919647  34.8784328  49.2768669
  96.1182117  35.5897093  48.0488110  81.3782215  48.3529806  69.3128633
  80.8753204  47.7152443  68.8063002  82.2061539  48.4354830  68.8396311
  92.4177456  63.1469250  51.8784285  91.7986298  63.8745403  51.9376707
  92.7866936  63.0741024  52.7586555  82.9386997  40.8731556  24.2691231
  83.4706020  40.3076029  24.8290038  82.0618820  40.8317757  24.6508336
  43.0606329 108.5367346  94.9445352  43.0597651 109.4714881  94.7384504
  42.7428686 108.4899760  95.8462398  60.2322578  70.9480524  38.7434554
  60.2746534  71.0389614  37.7915263  59.7858667  70.1131725  38.8846850
  98.7893105  89.9822330  49.5783043  99.5541573  89.4386482  49.3891764
  98.9273453  90.7773209  49.0635109 110.9952450  47.7261019  48.8954973
 111.0833549  48.6265421  49.2080307 111.1764717  47.1866226  49.6651411
  71.8337345  56.3574362  14.8384857  71.7788744  56.9360685  14.0779567
  72.6958990  56.5363359  15.2138567   3.0311436  30.9806299  52.1986723
   2.9268784  31.5702891  51.4519024   2.4060578  31.3033533  52.8477812
  80.0911808  61.5569448  52.6596308  80.2501583  62.2145796  53.3367348
  80.1610565  60.7195234  53.1179762  82.3172283  53.6701107  37.4950004
  82.4337196  54.3163872  36.7985892  83.2037258  53.4969282  37.8117847
  21.4438004  75.7721663  43.0233765  21.4807648  76.4773989  43.6695290
  21.5702481  74.9725246  43.5340881  53.4231043  68.9535761   5.8270431
  52.5125837  68.8967705   5.5372870  53.5604143  69.8841286   6.0043669
  56.5521031   6.7506637  76.1912401  56.7087442   6.8790139  75.2557083
  55.8124524   6.1442842  76.2292631  71.5579510  67.3733330  24.0435791
  72.3405838  67.5738668  24.5569062  71.7298603  67.7585936  23.1843615
  17.7464814  66.3194227  43.4962654  18.2897991  66.9715118  43.9387751
  18.0823178  66.2960958  42.6002121  89.4134808  29.8513341  61.3145638
  89.0008545  29.6281576  62.1489286  89.7509384  29.0188193  60.9839964
  71.2096262  69.6537590  26.3734698  72.0170689  69.2528486  26.6952491
  71.4548445  70.0474215  25.5361342  68.4796095  63.9278650  19.6911395
  67.8838062  63.2299423  19.4188261  68.8616323  63.6108971  20.5095649
  69.4939327  62.2886372  22.8329229  69.3952036  63.2395315  22.7850962
  69.0342712  62.0401478  23.6349154  98.5109806  75.4664993  48.7974691
  98.1658077  76.2529612  49.2200327  99.3314457  75.7513142  48.3950329
  50.0559568  67.4907780  32.0174146  50.3038931  66.8949747  32.7243614
  49.6015024  68.2089615  32.4577737   4.1054959  53.0948782  23.1038094
   3.4290833  53.7720966  23.1127572   4.2868943  52.9253197  24.0282416
  78.7067175  56.2996197   1.4892480  79.1453171  55.6137371   1.9926581
  77.7782488  56.1913919   1.6953093  71.0236263  46.0035706  22.2374701
  71.0664892  45.1062489  22.5679350  70.2905130  45.9974003  21.6220498
  92.6502705  37.4992728  29.6622252  92.5794029  36.9380808  28.8900399
  93.0065060  36.9273353  30.3420877  35.1137066  54.1486216  55.9526443
  34.4388413  54.3002462  55.2909803  34.9850130  54.8500490  56.5911388
  55.8042669  47.6286983   7.4560857  55.3604984  48.4276390   7.1714896
  55.8472490  47.0853281   6.6692358  51.3235855  41.3739252  37.9850173
  51.3150978  42.3309708  37.9999280  52.2495937  41.1437654  37.9090810
  57.1101999  62.5863171  53.0542374  57.3756742  62.6747751  53.9696217
  57.2610283  61.6635799  52.8492117  78.2985067  47.0677042  47.6157904
  78.0565166  46.7202616  46.7573261  77.4821997  47.0611191  48.1156206
  94.9804783  72.8517580  13.7858129  94.1817570  72.3245430  13.7675917
  94.9104500  73.3648777  14.5908201  79.3517971  60.4674625  47.7963257
  79.9413586  61.0582685  48.2649422  79.9093294  60.0373411  47.1479511
  71.5746403  76.2449408  27.2229314  71.9657087  75.8449793  27.9996753
  70.7937908  75.7189846  27.0500875  92.0290470  44.9207163  17.2074640
  91.8948650  45.5561066  17.9106736  91.8107224  44.0766048  17.6024842
 100.0227833  38.3992720  29.4276714 100.1678276  37.7721405  28.7192225
 100.8630180  38.8469076  29.5270395  76.8709898  41.6692877  11.4056551
  77.5251055  41.7384958  12.1010518  77.0493746  42.4159288  10.8338726
  21.4025164  44.5753574   5.1411849  20.6202745  44.5938969   5.6925356
  21.2083054  43.9191818   4.4718960  65.6249189  46.8199396  27.8801107
  64.7726631  46.7156410  27.4570203  65.6398535  47.7330780  28.1667948
  69.5014858  21.8981290  29.8969603  70.3998566  22.1478438  29.6806288
  69.5598125  21.5362144  30.7811809  74.3732977  63.4882450  16.8699074
  74.0842199  63.2721138  17.7564466  74.4309902  64.4436789  16.8630481
  11.5966076  39.1283751  42.9428196  11.7369408  39.6233821  42.1356630
  12.3162884  38.4976697  42.9651880  56.1946392 100.2598286  44.7058821
  56.0671186  99.6918774  45.4657555  57.0114851  99.9532986  44.3121433
  35.8576041   7.8168811  85.7166071  35.8593541   7.2107114  84.9758060
  36.6913491   7.6570739  86.1588241  75.5470371  84.1056633  18.6372805
  76.1653709  83.3835030  18.5259879  76.0760498  84.8944473  18.5181403
  85.3108501  54.8820496  61.0705709  85.4089642  53.9312840  61.0191202
  85.8980179  55.2203560  60.3945398  31.1699390  99.7875023  31.1643362
  32.0494556 100.0553513  31.4306855  31.1032915 100.0603485  30.2492714
  45.2770567  42.0511246  43.5684633  45.7645369  42.8736115  43.5225677
  44.9963951  41.8884754  42.6679039  56.6910601  79.4272947  43.6682034
  57.1478271  80.2648449  43.7463284  56.4888954  79.1796589  44.5704460
  98.5233688  75.2428102  10.4398990  99.2690945  75.6365013  10.8928084
  97.8484440  75.1634121  11.1139989  61.1645651  65.4254436  55.6823397
  61.2590790  65.0935793  56.5751791  61.8912077  65.0293159  55.2014017
  85.5998676 108.1439830  94.9831508  85.8205812 108.5124207  94.1277154
  86.2893408 108.4619857  95.5660154 116.0405159  98.1625748  45.9138489
 116.1982632  97.8846455  46.8161297 115.6892109  97.3842239  45.4814291
  72.6221848  66.9616604  47.6103735  72.1296883  67.3445940  46.8843985
  71.9748831  66.4496517  48.0952215  79.8282290  68.6512852  10.0346410
  78.9683151  68.7525368  10.4427230  80.3227711  68.1093264  10.6494105
  63.5944080  69.0958977  53.4556293  63.6185837  69.8326731  54.0662050
  63.9996433  68.3736610  53.9356184  76.1447287  59.3458986  18.3064306
  76.1009026  60.0596857  17.6701772  75.2304983  59.1137648  18.4693110
  74.4612408  62.0736170   1.3100755  73.7316227  62.2181273   1.9125804
  74.0497875  61.7485857   0.5092669  60.9568167  60.6994438  11.0412276
  61.1146164  60.3053856  10.1832950  60.1894522  61.2566805  10.9113622
  93.9168167  83.3421230   6.5166050  94.7129822  82.9100895   6.2072486
  94.1135120  83.5879898   7.4205357  78.1786346  43.5207796  70.5129004
  78.3684826  44.4567966  70.5766678  77.3538113  43.4109116  70.9860039
   8.5061323 103.7775946  84.6741016   7.6573908 103.8361836  84.2354269
   8.3881151 104.2639828  85.4900243  54.9147081  35.9376693  11.1106753
  55.8021021  35.7367373  11.4079833  55.0400448  36.4569783  10.3164208
  95.8240891  47.0691442  31.7860794  95.4158115  46.4421940  32.3831296
  96.5284443  47.4649382  32.2993660 113.1352871  54.6871845  91.7555870
 113.1554096  54.0307034  92.4519055 113.8281982  55.3050145  91.9888009
  65.2173042  33.2748604  34.5371342  64.5137167  33.4194970  35.1698089
  64.8492432  33.5590506  33.7004781  70.5954123  58.0649424  38.5767603
  71.1488104  57.8052998  39.3133521  69.7028637  58.0173016  38.9192891
  58.9639854 102.1647739  23.9315701  58.8207436 102.9676247  24.4327188
  58.1524229 101.6683769  24.0373635  87.6641464  34.8954964  23.2978988
  88.0804729  35.6875253  23.6378932  86.8057251  35.1885152  22.9921389
  55.5031967  92.3819256   7.8627944  55.3070402  92.6758099   8.7523949
  55.5556250  91.4286423   7.9315627  97.6207542  30.9285331  28.9437509
  97.0123959  31.5668988  29.3160629  97.1651363  30.0902581  29.0207839
  98.3181286  16.5460360  48.5352802  98.1150150  16.8718338  47.6584482
  99.2743301  16.5542150  48.5782862 101.4531708  57.4759769  24.1045618
 101.2983799  57.0762730  24.9604273 101.8807030  56.7889977  23.5931802
  72.7522373  60.2928686  35.3231716  71.9010973  59.9171019  35.5481076
  72.5464535  61.0104704  34.7240615  74.4597578  52.2795820  45.4565859
  74.0580654  51.5772009  44.9451876  73.8713312  52.3998356  46.2019205
  56.2405443  82.5966835  43.8081026  57.0473623  82.7142334  44.3095589
  56.2401295  83.3206081  43.1818771  89.6753120  85.7139492  24.2506576
  89.3406963  85.5131245  23.3766270  89.7759247  84.8597527  24.6707153
  72.4297667  44.1126299   5.5607420  73.3483648  43.9988375   5.3169006
  72.0160341  43.2807159   5.3305674 100.1016235  32.2259068  62.7064466
  99.4712543  31.5081310  62.6459074  99.9159527  32.7727532  61.9430876
  66.2050390  66.4915228  32.7957821  65.3654528  66.9351816  32.9161906
  66.4039421  66.6034698  31.8661928  87.0876503  65.3514338  24.2432332
  87.1223545  64.6641254  24.9085379  87.9707336  65.7206297  24.2339730
  73.7650871  36.2698984  31.8149281  73.6458206  36.7324638  30.9854460
  74.7070742  36.1075783  31.8653536  63.3018637  20.0487089   2.2524679
  62.8907633  20.2148867   1.4041682  63.0661106  19.1444707   2.4598424
  64.5098066  50.7300758  12.1066582  65.4567862  50.8519554  12.1745539
  64.1422176  51.5889025  12.3152792  55.4306602  78.4500933  51.7945290
  56.2527275  78.7598372  52.1746588  54.8517323  79.2118549  51.8226910
  63.7933826  41.9714689  28.5701942  63.8055897  41.6208601  29.4607878
  64.4654560  41.4716625  28.1067920 102.3904133  67.3222685  46.6784811
 102.6673126  68.2363558  46.7416954 101.4644337  67.3684311  46.4404297
  91.5796185  87.3335743  36.7601371  92.2877884  86.8484592  37.1836853
  90.7956982  87.0928288  37.2538447 116.6974068  74.5594549  50.2285099
 117.2528458  74.6773577  49.4579172 116.0647202  75.2760839  50.1796341
  41.1599636  35.2878904  23.7532163  40.9265041  35.8556175  23.0187678
  40.4025078  35.3279090  24.3370748  93.4777260  44.8793125  38.6925340
  92.7791595  45.4821253  38.4378552  94.0321445  45.3905296  39.2820311
  32.9648763  22.6083841  90.2614744  33.4302741  21.8964233  90.7005055
  32.3040753  22.1685828  89.7265454  97.8576088  44.0179968  26.8750453
  98.2866287  44.3224287  26.0753632  96.9230843  44.0412903  26.6692424
  91.7207813  52.0814133  51.5406466  92.1157646  52.6983929  52.1567297
  90.8054733  52.3551369  51.4812183 111.4818764  56.7581463  58.2713318
 111.5867805  57.0245647  57.3579597 110.7483387  56.1433411  58.2587576
 112.3286724  55.4660702  50.9029055 113.1121731  55.7000113  50.4052734
 112.5691319  55.6230879  51.8160105  66.4516830  59.1439390  19.2981088
  65.6523085  58.6603260  19.0898871  66.7500353  58.7682199  20.1263928
  88.6576253  28.0673303  91.5270312  89.5631772  27.7748193  91.6302069
  88.7128430  29.0229310  91.5295200  83.8304424  57.3466539  22.0056772
  83.0215740  57.5622129  22.4698901  83.5576344  57.2147369  21.0977077
  55.3324699  42.2065973  33.2594347  55.7385302  41.5199232  32.7304435
  56.0150814  42.8708458  33.3545518  54.2184925  40.9393978   0.2127011
  54.1187859  40.3724957   0.9774972  53.9829779  41.8116665   0.5287928
  46.3891297  27.3630132  87.6241870  45.7906514  27.5447835  86.8996038
  46.0668641  26.5444268  88.0014105  98.5306931  65.7128477  28.9179611
  97.9905796  65.9576082  28.1665587  99.2929554  66.2891722  28.8628793
  42.1358871  82.7454090   3.7624907  42.0436287  83.0685139   4.6587723
  42.5822020  81.9038105   3.8560352  50.8639240  39.9830437  10.7391489
  51.6070271  39.9223351  11.3394320  50.4952955  39.0997982  10.7242310
  73.3392715  30.0563765  14.9376881  72.9154253  30.5075836  15.6677520
  73.6871147  30.7604766  14.3904412  59.5797348  44.2183828  22.6862049
  58.7420034  44.2085505  22.2232366  60.1407242  44.7828388  22.1543145
  75.7934427  70.2264261  39.4314718  76.0346842  70.3403997  38.5122108
  74.8362970  70.2164078  39.4284415  60.4196453  75.0470591  34.5891809
  60.7584143  74.2465639  34.1883421  60.3088808  74.8238087  35.5133677
  71.4189720  54.7331476  36.9575834  71.3682127  53.9574337  36.3990831
  71.4465284  55.4680347  36.3448715  47.0686102  19.1193032  16.6413295
  47.2527027  18.1985688  16.4553404  46.1906338  19.2640150  16.2885654
  15.0385994  57.4446774  58.1905413  15.5636448  58.1505919  57.8133869
  15.3016037  57.4157763  59.1104460  42.7606201  60.2460575  25.2550697
  43.2023048  59.4952917  25.6519294  42.0313120  59.8642015  24.7666764
  95.4560471  66.4394045  39.3972826  95.8594227  66.1632538  40.2202463
  94.5389462  66.5974522  39.6212554  71.6297960  83.6300468  17.9454577
  71.1712551  84.4698143  17.9176795  70.9644079  83.0031013  18.2290566
  75.1844549  51.4223146   9.2866045  74.2775011  51.7240906   9.3375951
  75.5595732  51.9134951   8.5556704  77.1897459  65.3486776  38.9864612
  77.0797586  65.2370596  38.0421734  77.8820276  64.7308874  39.2216396
  75.5794096  63.1322002  39.7380829  75.4516745  63.0062389  40.6783199
  75.8240461  64.0534973  39.6509075 105.0383472  53.4376621  74.2369986
 105.3098488  53.9929628  73.5061407 105.8484077  53.2557201  74.7133732
  72.2365761  95.2390766  30.2701712  72.2951555  96.1847496  30.1341772
  71.6813564  95.1422977  31.0438585  81.3594055  66.1287975  21.8354559
  81.8153477  65.8981085  22.6448536  81.0665894  67.0295382  21.9738817
  58.9309406  79.3528414  23.4450912  59.1386652  80.2566719  23.6821198
  59.0339184  78.8617468  24.2602301  75.4936218  77.2376823  11.7478037
  74.7046995  76.6957664  11.7353404  75.2176189  78.0713081  11.3668644
  82.9293251  24.8182821  32.0222926  82.6378632  24.9381733  31.1184645
  83.5681438  24.1069770  31.9755888  71.9877291  55.8271122  21.6336179
  72.6638269  56.3083315  22.1106410  72.4203491  55.0204945  21.3535571
  85.6336784  57.4580812  38.7753010  86.4625549  57.4029589  39.2508578
  85.4533768  58.3962917  38.7162161  60.3750372  37.2342038  26.3469315
  60.6961060  36.3949013  26.0172057  61.1580801  37.7806616  26.4137316
  84.9489594  52.5044918  57.7535105  84.3508244  52.7103186  58.4719133
  85.7788563  52.2993469  58.1841183  85.6996059  23.1141281  26.1701846
  84.8565292  22.6835847  26.0284996  85.6493759  23.4505534  27.0649052
  80.6471348  43.6022043  73.6239338  80.9724903  44.3427992  73.1121778
  80.1301479  43.0900669  73.0021000  76.5333796  46.3993835  25.7896638
  76.2609673  47.2932529  25.9970903  76.2867880  45.8887959  26.5608478
  64.5978689  61.3285875  28.3417702  65.2621460  61.7089748  27.7670789
  64.8714304  61.5806341  29.2237377  47.9456234  82.2631741  24.0561748
  48.3351231  82.9799271  23.5553932  47.0133352  82.3006344  23.8424873
  45.2828550  25.3376675  23.4940028  44.6819782  24.7459340  23.9468002
  45.9565687  24.7629404  23.1306434 103.0643368  77.3956919  30.5192566
 103.0080032  78.3419418  30.6522036 103.4792519  77.2985315  29.6621490
  92.2281361  55.8914948  27.6845622  92.0284081  55.5668640  26.8065190
  91.6356850  55.4070759  28.2595253  98.9959145  65.7918358   8.2260060
  99.7888279  66.1828852   7.8591299  98.7346840  66.3911724   8.9251423
  28.2768202  99.0785694  35.7995415  29.0976954  99.4655132  36.1039495
  27.6246166  99.7668934  35.9301853 109.7474289  64.4442606  34.5242214
 109.2276859  65.2242899  34.3301749 110.2316380  64.6705198  35.3183126
  99.1907406  46.7200327  45.0042820  98.3474636  46.3895798  44.6945763
  99.1092968  47.6722336  44.9502754  74.1410398  69.8171568  23.7538719
  74.5749140  68.9671135  23.8274384  74.6030331  70.3766918  24.3781400
  90.5755043  46.0419464  26.3822079  91.3563251  45.5716228  26.6743493
  90.2386475  46.4617968  27.1737146 110.3677940  79.1594696  52.9907274
 110.4844570  79.0917015  53.9383745 111.2583447  79.1708231  52.6399803
 105.5191231  88.9547920  18.6059403 106.0066032  88.4373474  19.2469120
 106.1946964  89.3834019  18.0804670  84.8214054  70.8103609  37.0177269
  84.0911770  70.5753040  37.5902152  85.6024456  70.5550003  37.5086522
  86.6956043 100.9170246  52.3247671  87.3478031 101.1618900  51.6683292
  87.1156979 101.1092472  53.1631041 109.8262215  77.6557159   3.4197679
 109.8013878  78.4483719   3.9557821 110.3166580  77.0252037   3.9471757
  80.9346390  57.7176571  23.9183283  80.1869202  57.7368021  24.5156360
  81.5908051  58.2739925  24.3380642  97.3879528  59.8005199  22.4685884
  97.1127033  60.1782513  23.3039260  97.0198059  58.9169502  22.4723744
 112.8389454  63.3692503  45.7800961 113.0102062  63.1220102  46.6888189
 112.5101757  64.2666054  45.8339167  95.4585457  66.6053247  18.1797504
  96.4008808  66.6956282  18.3214188  95.1435184  67.5041103  18.0839932
  84.8364353  74.1095972  22.8495121  84.4006634  73.3142090  23.1555939
  84.2725658  74.4371223  22.1487975  91.9184208  90.7556820  20.9819674
  91.6116524  90.7299328  20.0756240  91.2231159  91.2104416  21.4573383
 107.8325462  78.4349012  55.2485323 107.2620773  78.0140877  55.8917475
 108.5016918  77.7781200  55.0558758  74.2987585  82.4034500  32.5368094
  73.3698988  82.5428581  32.3523664  74.3981886  81.4517117  32.5597215
  89.9846935  77.8121424  41.2052298  90.4607773  76.9918585  41.0759544
  89.3651962  77.6211023  41.9094706  97.9278278  67.9461765  14.5108378
  98.2026863  67.5459003  15.3357399  98.7004185  67.8905487  13.9484894
 104.2330647  42.2175550  31.0331321 104.3199062  42.4758005  30.1155257
 105.0662327  41.7956781  31.2430930  62.5082684  98.0408764  24.7197700
  63.0671263  97.8650856  23.9627981  61.6363716  98.1742477  24.3479586
  92.2803783  64.9835730  21.9312453  92.9681683  65.3365183  22.4957037
  91.9545937  64.2163229  22.4018002  50.6138229  71.5446949  41.7648602
  51.2334204  70.8302116  41.9126368  49.8106718  71.2591505  42.2003365
  86.1810589 103.5658932  12.2028792  85.8228779 104.2758369  11.6700459
  87.1153545 103.5582447  11.9948983  73.7486315  47.7635241   1.9292285
  72.9211950  47.5932407   1.4791338  73.5343313  47.6924801   2.8594226
  76.3162327  70.7382727  36.4724469  76.7081833  71.6062927  36.5681219
  76.4495945  70.5154800  35.5511379 104.1596413  47.8342104  68.7865496
 104.4155884  46.9118738  68.7902737 104.9710560  48.3071947  68.6018372
 102.8767204  98.2402325  33.9928842 103.4553432  97.8844547  34.6673107
 102.6353550  97.4824238  33.4602594  98.9790058  87.4351311  31.5405488
  98.3915138  86.7829609  31.9223380  98.3982754  88.0380917  31.0764098
  80.2250290  86.6558075  13.5986805  80.4914188  86.9552708  12.7294350
  81.0241032  86.7029285  14.1235495 102.9932308 104.2691708  28.5677075
 102.7156830 104.1767788  29.4791150 103.3865643 103.4240437  28.3502674
  76.8036795  52.8654814  35.4898000  76.1523771  52.1735573  35.3745794
  76.7565250  53.0863094  36.4199853  99.2325306  95.2655029  26.2428832
  98.8364124  95.4013157  27.1036243  98.5283756  94.8947334  25.7109714
  93.1241131  90.7232761  30.4078221  92.5028229  91.1976624  29.8553896
  92.5958824  90.3961086  31.1359501  82.5850201  99.5490932   6.7774236
  82.7327919 100.3364849   6.2535751  83.4458542  99.1344643   6.8346751
  72.1285820  65.1169300  41.9920921  72.7781487  65.7474852  41.6811275
  71.8306923  65.4730225  42.8291607  47.0579892  11.5522231  87.1808322
  46.8556577  10.7007827  87.5685765  46.7042142  12.1885480  87.8022541
 109.7080803  51.5676022  60.8271885 108.7868214  51.5685558  61.0870218
 110.1892853  51.6478109  61.6507387 109.1226101  65.8122206   5.7717049
 108.7780571  64.9525070   6.0133868 108.5536957  66.4343452   6.2250561
 115.7106113  43.4175348  10.5341983 115.5781937  44.3636608  10.5937874
 116.6465282  43.3171606  10.3603637  -0.1153427  46.4006472  35.1091909
  -0.3093486  47.3236179  34.9457383   0.7945580  46.3961315  35.4063392
 108.5001373  57.7001238  46.3158941 109.1148853  56.9666386  46.2978029
 107.6841736  57.3207617  46.6422558  43.7655128   4.4403971  46.4231443
  44.1800369   3.6633147  46.0482693  44.1092265   4.4884337  47.3152161
 109.6794415  58.6401510  30.3898811 109.3750477  57.8605604  29.9253225
 110.6147766  58.6869717  30.1919460  94.0583229  73.0205584  35.5686951
  93.7979794  73.8944340  35.2774978  93.2318592  72.5690794  35.7400298
   6.1739313  98.8344432  91.5590085   7.0402586  99.2406798  91.5849115
   6.2391627  98.1750298  90.8682458  89.5847702  82.0403385  29.5761776
  88.6541176  82.1146965  29.7873354  90.0343513  82.3062992  30.3782797
 109.5172882  87.2324657  33.0216408 109.6917725  88.1588268  32.8553843
 108.9894772  87.2277069  33.8201523   2.4194760  78.9672136   8.5656482
   1.5297264  79.2028761   8.3028877   2.9002327  79.7948265   8.5525054
  40.7002319   1.1225070  34.0153241  40.2207053   0.9572257  33.2035518
  40.3656543   0.4681624  34.6286130  84.5998764  88.5593987  27.7627707
  84.8355961  87.6375580  27.6584816  85.2872944  88.9205551  28.3224654
  78.2698965  99.9507713  33.1194425  78.7844801  99.5110226  33.7962341
  78.7056541 100.7942581  32.9974389  60.9082299   3.3671416  92.4845998
  60.6668168   4.0778245  91.8905635  60.5348950   3.6227836  93.3281018
 102.1739674  43.5608196  32.4737310 102.8512764  43.0571032  32.0223403
 101.6883564  43.9927483  31.7709851  59.2064714  66.5367508  28.9869404
  58.2835913  66.5678024  28.7348342  59.6292114  67.1898079  28.4292316
 107.2347069  50.0674152  13.8685787 107.9668140  49.5268726  13.5718060
 107.5450325  50.4652596  14.6819949  12.6510662  60.4139757   9.2038101
  11.7208237  60.6285143   9.2734855  12.6876301  59.4650030   9.3235987
  83.5772723  11.5850771  13.5204506  82.9063863  11.3820876  14.1723216
  83.5028523  10.8833922  12.8736627  81.9586563  66.3852739  28.0327606
  82.6808548  66.5550709  28.6375976  81.2877178  65.9669638  28.5722780
   5.2731556  98.9857578  24.6963167   5.3458065  99.8231411  24.2383385
   6.1540741  98.6134911  24.6559930 105.8090687  97.9805851  40.1092482
 105.5132580  98.1953716  39.2246008 105.8660984  98.8259602  40.5545807
  59.7112417  86.1886215  35.1392221  59.8133373  86.3815594  34.2072439
  58.8859510  86.6085148  35.3817391  90.1614380  54.1319895  34.9989319
  89.6053505  53.9363766  34.2447901  90.9907055  53.6951065  34.8047709
 103.3592319  97.4553108  16.4534926 103.1291676  97.8655243  15.6198132
 103.1128216  98.1020546  17.1147287   1.4549584  81.3323402  35.5800128
   0.5471367  81.4694214  35.3092766   1.4155335  80.5902100  36.1832666
  12.7351517  80.0862598   1.7377962  13.0694908  79.2805910   1.3436478
  12.1871609  79.7882318   2.4638210  83.2123756  61.9981670  42.9692411
  83.9404964  61.6878748  43.5075665  82.8616619  61.2064171  42.5613594
  95.9952545  89.0381527  33.7473845  96.7621613  88.9726353  34.3164110
  95.7629776  88.1301308  33.5529923  73.0465317  62.6854563  37.2536063
  73.4049845  61.8149519  37.0804811  73.0093956  62.7436590  38.2083130
  99.5350266 102.6449871   8.9045441  99.7000599 103.3363724   8.2634687
  99.5229244 103.0980301   9.7476536  83.5886002  71.8355036  23.6868811
  83.3606720  71.8935633  22.7590299  82.8219032  71.4355516  24.0972877
  34.3412863 105.1094962  92.6000314  34.5250987 104.1895629  92.7902048
  34.8899107 105.3116608  91.8421574  44.0499002  14.0405311  87.2520532
  43.2785207  14.5463981  86.9964971  44.7463113  14.6918000  87.3362722
 101.7706966  58.4050035  36.7608595 101.5013218  57.4971628  36.6212273
 102.7249241  58.3646154  36.8244696  98.7618828  64.5609426  51.7404127
  98.9261341  65.1609945  51.0129547  98.4621334  65.1250935  52.4532366
   7.0657963  63.4380960  29.0719032   7.7364868  64.0619135  28.7939525
   6.2636608  63.7445450  28.6489463  99.1115475  39.6920967  25.4083467
  98.1742764  39.5961285  25.5772924  99.4187737  38.7996840  25.2488399
  90.4929256  61.3426876  24.2182827  90.8377838  61.2531471  25.1067019
  90.2209091  62.2584486  24.1581106  33.5808068  19.0363492  88.2944603
  32.9883987  18.2895698  88.2072427  34.3810826  18.6651220  88.6659189
  83.5628414  52.7983809  31.5884280  83.9170647  53.1416225  30.7680988
  84.2301083  53.0055141  32.2427058  88.4981918  81.7386818  40.1585340
  89.3810558  81.8523216  39.8065758  88.5574627  80.9555721  40.7057524
  23.0834943  44.3897332  83.8517733  23.6414414  44.9775209  83.3424230
  22.3148566  44.9173249  84.0687318  17.3026318  84.9680614  12.4217331
  17.8509564  84.1835213  12.4305260  17.5090737  85.3952503  11.5903962
  62.3892099  23.9330949  76.5643747  62.1785146  23.2153262  77.1615787
  63.3112413  23.7992372  76.3448878  53.8947964  92.6418877  26.9855571
  53.6535454  93.5551071  27.1407056  54.5015764  92.4306011  27.6950669
  55.6300020  67.3071909  35.5662584  55.3136969  67.1884441  36.4618492
  54.8372555  67.3036623  35.0298190  16.9946063  21.7318476  54.7384691
  17.0695270  21.1673583  53.9690781  16.7355216  21.1404456  55.4451180
  96.0396099  68.0352545   0.8205921  95.7946682  68.0002308   1.7452574
  95.2329350  67.8232956   0.3509324  76.6194153  99.5552158   2.8240636
  76.2946701 100.2910328   3.3430564  75.8289671  99.1213989   2.5027782
 113.2816219  77.5647783  53.1167793 113.6556244  76.7312717  53.4024811
 112.4660778  77.3233700  52.6776505 110.8932495  30.3418350  29.5407414
 111.3396072  29.5344400  29.2855763 110.8743000  30.3130007  30.4973197
  40.4195291  51.6297425  80.2166529  41.3118058  51.2849130  80.2508421
  40.2272492  51.8864717  81.1185117  73.8489199  28.2911253  27.0764136
  73.2518721  28.4542990  27.8065801  74.0602207  27.3599386  27.1433067
  96.0051537  41.4175653  38.9965057  95.8639526  40.5436516  38.6324000
  96.8855190  41.6579676  38.7077427 101.7864895 102.7229118  30.9428120
 101.9856071 102.0811081  30.2611399 102.0405579 102.2921085  31.7589545
  31.1811620  25.6984414  78.8662882  30.4271298  26.1323537  78.4670468
  31.2562829  26.0979737  79.7328682  78.7605095  51.8750858  41.8082094
  78.1898785  51.8947697  42.5764704  79.3482828  52.6211309  41.9272470
 110.2608395  52.1528244  63.4121132 111.1225986  51.8266010  63.6713028
 109.7049809  51.9932461  64.1748619 106.3435268  90.1119423  24.5804787
 105.8505630  90.1397038  23.7604523 105.8717155  90.7063675  25.1638150
 102.4053097  66.5120459  51.8708086 102.2684765  65.5656433  51.8280935
 101.5472794  66.8872881  51.6728258  84.0060902  47.6693439  27.6574612
  84.5934868  47.0325661  27.2503757  83.5767078  48.1042480  26.9207692
  33.0658460  43.1785154   9.0591705  32.9919434  42.2401237   8.8854247
  33.4099889  43.2306290   9.9508440  98.4181499  91.5338802  25.0726128
  97.9969692  90.9477997  24.4438386  98.3460903  92.4021435  24.6761918
  92.8217888  75.0656986  18.0179596  92.0412827  74.8597813  18.5323811
  93.0230904  75.9744120  18.2414651  34.0462554  17.8761710  28.5565090
  33.4366096  17.9014243  29.2940235  33.4926189  17.7092684  27.7937150
  71.5508747  94.2384815  41.6263294  70.8708477  93.9269924  42.2236347
  71.0965300  94.8449039  41.0414743 108.7818909  73.7402058  17.9456770
 109.3414211  73.6979151  17.1701944 107.8987789  73.8629961  17.5974357
  10.5960620   4.4822920   2.0210363  11.3801158   4.4878233   2.5700885
  10.8296645   3.9293231   1.2754604 106.8207932  63.5526705  83.9120102
 106.5822411  64.1476679  83.2011604 107.3965836  64.0704441  84.4746876
  70.4347897  42.9648399  34.6422911  71.2110758  43.0230999  35.1992655
  70.3325891  43.8453341  34.2810178  77.7379608 102.8245354   0.4950818
  78.6661339 103.0550194   0.4550953  77.3051023 103.6246681   0.7928500
 112.0378780  78.4420729  18.6784899 112.2321415  79.3110561  18.3272672
 112.5180912  77.8408003  18.1091928  36.2905961  34.9822129  92.6556941
  36.4830428  34.8882474  93.5886289  35.3690177  35.2391900  92.6259382
  93.0851078  82.4439812  77.3162746  92.7526188  82.4922276  76.4199734
  93.3593941  83.3384800  77.5184584  73.7735891  66.8350410  40.6326628
  73.1995201  66.6127110  39.8996902  73.7939930  67.7920008  40.6391907
  74.2419815  90.9912395  30.2103066  75.0946093  90.5938911  30.3874588
  74.1529036  91.6736794  30.8755660  66.2334538  63.2673264  11.0430825
  66.5019035  64.1202068  11.3847923  66.3391256  62.6689386  11.7826712
   9.3039859  11.0992468  43.3464193   9.5010341  11.5120924  42.5056076
   8.3541358  10.9810961  43.3384705  42.7934408  61.1896133  54.2737103
  42.0585394  61.7366219  53.9963388  43.5335684  61.5004921  53.7523651
  64.7472525  70.5138397  24.7703958  64.9900007  70.4106140  25.6905341
  65.5672741  70.7369661  24.3299341 101.0787964 100.6733227  21.5854716
 100.4119015 100.1218987  21.1763191 101.7987728 100.6862545  20.9548378
 105.0339699 102.1506596  12.9726660 105.0243378 102.9990578  12.5295377
 104.1113567 101.9560146  13.1374168  56.5777826  81.5401363   9.1936350
  55.6601143  81.7744732   9.3321878  56.6146421  80.6004906   9.3723422
  10.9519923   4.6259058  30.4309082  10.4613651   4.1429938  29.7658491
  10.9696162   5.5269564  30.1083565  91.1773872  61.9409895  28.6479354
  91.2814713  62.7450132  28.1390691  90.3639603  61.5552855  28.3226633
  90.8639336  77.6463366   7.3664761  90.7962227  78.5925102   7.4945587
  90.6872749  77.5175428   6.4345765 111.8743992  75.2698278  14.7689581
 112.7245998  75.5949545  15.0650883 111.2690639  75.9911442  14.9407434
 100.6740570  48.9689207  39.5333648 100.3524303  48.6499786  40.3766108
 101.4713287  48.4636116  39.3744469 100.9430313  55.5535316  36.6520834
 100.8370209  55.5106354  37.6024270 101.4000130  54.7436285  36.4252663
  94.6241474  26.2923574  29.0074229  93.8183594  26.7001724  29.3246245
  94.9460506  25.7860994  29.7532845  84.4132710  79.8811483  15.4059577
  85.0528049  79.8357677  14.6952045  83.8157368  79.1526127  15.2373743
 113.9115238  52.7552605  30.6076431 113.8001919  52.0898533  29.9286199
 114.6238518  53.3082199  30.2866197  84.8275185  61.2581348  74.4153166
  84.3663120  60.8914948  73.6609316  85.6933784  61.4879847  74.0781450
  80.8652115  50.1611233  44.3297768  80.1285172  49.6110058  44.0635300
  81.6084290  49.5597649  44.3769217  54.8303509  69.7020721  27.7411342
  54.4728231  69.4776964  26.8820286  54.2582655  70.3981543  28.0642748
  77.4506903  51.7978239  58.7140942  78.3070755  51.4306974  58.9333105
  76.9714069  51.7990351  59.5426559  88.4181976  70.1729345  40.5759907
  87.7483463  70.7831430  40.2674770  89.1541195  70.7315636  40.8261585
 102.7920723 109.6499252  25.0526667 102.6586246 108.7762451  25.4202390
 102.1191406 109.7307491  24.3767500  48.5310936  53.9769173   1.3176942
  49.0084124  54.4055223   0.6072753  49.1720247  53.8996649   2.0244278
  79.2139864  78.8847637  12.8648388  79.9474812  79.4572830  13.0894291
  79.3511009  78.6706638  11.9420218  93.7088203  75.4736853  34.1595411
  93.4368420  76.3914347  34.1604280  94.6254253  75.4952478  34.4344807
  90.8412743  39.3446302  48.6811304  90.0552368  39.5361447  49.1927052
  90.5969334  39.5532346  47.7794600  82.2619247  64.8712540  43.5302687
  82.8515911  64.1254330  43.6410666  82.7880859  65.6314707  43.7781668
  85.1086807  69.5371389  27.9649186  85.1647568  70.0003576  28.8006902
  84.5971394  70.1187849  27.4025607  92.4639702  55.1918888  14.5385778
  92.3961544  55.4323387  15.4625988  93.0652332  55.8371878  14.1666746
  90.5233192  50.1884604  22.0323610  89.8817253  50.1002932  22.7372169
  90.5206013  49.3355179  21.5979505  64.2451906  79.8748493  40.6756735
  64.3513870  79.0740395  40.1622057  64.2412567  80.5774307  40.0256014
  74.6562481  32.2964168  26.8812943  75.1413822  33.0943918  26.6712546
  73.9156151  32.5978732  27.4074292   8.8387055  58.5483837   5.0268787
   8.9077324  58.4500456   4.0772489   9.6952004  58.2787848   5.3584766
  84.5029831  86.4580727  34.4865870  84.7502708  87.2803116  34.9096870
  84.3758106  86.6907692  33.5668516 102.0488453  64.6498585   3.9436361
 101.4598942  64.8180580   4.6792108 101.5714645  64.0307856   3.3912927
 109.9200821  43.2191849  34.1439509 110.0622559  43.4297705  35.0668120
 109.6205616  44.0405560  33.7542415  84.6954632  75.1216125   1.9143616
  84.0242004  74.5192862   2.2350338  85.4243374  75.0153971   2.5256693
  98.8768387 101.4527512  30.1291084  99.2730522 102.2911072  30.3666353
  99.2023277 101.2755108  29.2465687  21.3867820  11.0439623  55.1816130
  20.6734431  11.6447009  54.9660063  21.4336646  10.4493273  54.4329882
   6.4833493  94.1237831  29.1812587   6.4659352  94.5040417  30.0595117
   7.3722691  93.7817860  29.0859222   0.5622638   6.0682429  31.8096972
  -0.3712308   6.1769999  31.9913411   0.7717479   5.1968420  32.1458650
  84.9275303  77.2296238  19.1145134  84.7067165  76.3993359  19.5365167
  84.0843868  77.6634121  18.9835262  26.0536033   9.1642369  74.0140553
  26.2306338   8.5925140  73.2670422  25.3029519   8.7619294  74.4509740
  95.1860332  51.9050217  38.0458879  95.4303932  51.8672562  37.1211743
  94.3848515  52.4285889  38.0607176  65.2777243  94.5934296  26.4179921
  65.8227682  94.8480034  25.6734490  64.4069242  94.4611835  26.0432243
  91.9088650  99.3944740   7.3761535  91.7701817  99.8817635   6.5640271
  92.7474308  98.9507580   7.2490144  26.8046517 100.0022507  21.2876272
  26.6052193 100.2479649  20.3842545  27.4856610 100.6179237  21.5585351
 103.9280605  85.0192833  16.5707958 103.1578159  84.5296001  16.2824035
 103.7506104  85.9220695  16.3067651 104.1501808  92.2253609  45.5333662
 103.8919544  92.0688343  46.4416885 104.8531055  92.8723907  45.5922937
 110.7349300  55.8114481  46.5314627 111.2858105  56.5545940  46.2854910
 110.8777714  55.7084799  47.4723244 101.0067558  74.4287634  58.0903006
 100.7761478  74.9054575  58.8876772 101.6414452  74.9931908  57.6489115
 106.8517399  59.7790718  11.0710013 106.1369896  60.2771997  10.6744730
 107.6437283  60.2524853  10.8163059 105.1613712  87.2763634  35.1115561
 104.8668766  86.7382908  35.8463931 104.6002007  87.0133400  34.3820763
  40.9288848  14.8847617  58.1224060  40.9492267  15.0011099  57.1725178
  40.0344432  14.5999468  58.3097219 104.5508450   5.3271998  55.5764389
 103.8747949   5.5544604  56.2148333 104.4238061   4.3921984  55.4156303
  44.5536006   4.4300974  24.3174911  44.4671119   5.2364958  24.8258805
  45.4050315   4.5084036  23.8871813  84.3011856 101.4287376   9.8806161
  84.2295742 102.1904850  10.4558003  84.8608875 101.7229843   9.1620183
  80.2836800  97.7135944  59.7040653  80.0124073  98.0220604  58.8394928
  79.6115017  97.0795822  59.9539423  80.1516533  95.7239532  29.0514207
  80.7545376  96.1534023  28.4445119  79.5391273  96.4131641  29.3083906
  77.8433990  43.6259460   9.6375948  78.7809229  43.4358454   9.6714962
  77.7948999  44.5472813   9.3825942  13.8714546  35.8208895  71.8986368
  14.2667622  35.9483099  71.0362434  14.3171353  35.0524998  72.2552490
  83.3052731 106.6929436  42.6594734  83.5858345 105.9118938  42.1825361
  82.5762367 107.0389557  42.1446705  10.0638718  97.7571201  32.7006030
  10.3555435  98.0588245  33.5609150  10.8734555  97.6018620  32.2140884
  29.0337051   6.5136755  34.2307138  28.8694442   7.4276579  33.9985681
  28.7529624   6.0171450  33.4620333 113.3612156  94.7854805  39.1325665
 114.2121220  94.5464993  38.7650347 113.0627060  93.9937305  39.5800614
  97.7480888  81.3350773  29.4715858  97.8529072  80.4821396  29.8931718
  97.2335148  81.8484592  30.0943923  61.3185483  38.1946267  85.3358992
  60.5340558  37.8152932  84.9397941  61.7192536  37.4695672  85.8154382
 105.7321262  93.5465431  12.7538800 105.8650589  93.1797218  11.8798101
 105.5244827  94.4678497  12.5979435 100.3015518  66.1355782  21.2230039
 100.9301090  65.4615211  20.9645486 100.2555847  66.7222881  20.4680920
  80.9883308  97.0405102  10.3764665  81.5238380  96.5473270   9.7549886
  81.2046337  96.6648197  11.2298751  81.2678909  96.6755295  35.6175041
  82.0390987  96.1300373  35.4628849  80.5262566  96.1021519  35.4239750
  97.8283024 101.1450195  20.5079818  97.8243637 101.8853760  21.1146879
  96.9833755 100.7171440  20.6467462  90.7219028  69.3868637  20.6539845
  91.5920925  68.9892054  20.6832623  90.8674049  70.3000116  20.9014153
  19.1052193  94.1723633  39.3300319  19.3240017  95.0970745  39.2147875
  18.3135552  94.1787910  39.8680377  98.1061935  80.6730175  50.6603479
  97.8613186  80.5798435  49.7396994  97.3294830  80.3924751  51.1443472
   2.6427883  80.0100136   2.3557986   3.5391278  80.3448868   2.3814654
   2.0961041  80.7748604   2.5357500  88.4150124  64.1378689  19.3712723
  88.3759880  64.1154671  20.3274131  87.5367451  63.8818169  19.0896523
  85.6600285 100.5967712  48.6411095  86.5095615 100.7467747  49.0558767
  85.7365894  99.7284794  48.2455826 100.6686372   1.4471758  51.0515165
  99.9213189   1.7299307  51.5785837 101.2365884   0.9863795  51.6690302
  91.3805866  45.1690769  21.3163614  90.9872913  45.9874678  21.6193247
  91.0242558  44.5009422  21.9019032  16.1876453  18.3579482   4.3469808
  15.5186618  19.0423048   4.3285197  15.7269157  17.5651396   4.0723538
   0.2610535 101.8676949  37.1817303   0.4019303 102.4506283  36.4356947
  -0.5166584 102.2181225  37.6160002   7.4457974  91.3562298  44.8875809
   6.5285343  91.2733650  45.1483440   7.6442284  90.5314064  44.4442749
  18.5559333   1.8074454  61.4482069  18.3937801   0.9313525  61.0983562
  19.2164481   1.6753043  62.1282721  91.6083813  98.9469147  27.8980803
  91.5424347  98.4577084  28.7181759  90.7047844  99.0238571  27.5917697
  81.0644913  68.3518457  26.2253952  80.5768299  68.3111668  27.0480514
  81.7319298  67.6707983  26.3086820 109.8357391  64.0278816  12.3947060
 108.9467907  64.2545938  12.6678276 109.7268295  63.6303186  11.5308106
 105.3095627  70.6903744  29.7383714 104.7935486  70.4624653  28.9650583
 105.9588146  69.9904633  29.8078799  98.4744072  91.6350746  42.5893164
  98.4722137  92.0279789  41.7164707  97.7549648  92.0681572  43.0487299
  22.4201340  97.9394913  55.7117224  22.0938153  97.1657467  55.2523041
  21.6350598  98.4514236  55.9061909 103.0720425  72.4735022   1.0096993
 102.2533798  71.9775724   1.0009107 102.8530025  73.2893944   1.4597835
 115.8723927  56.2806749  23.9775848 115.1912022  56.5325499  24.6010995
 115.6226635  55.4018354  23.6920834  89.9111938  70.8741999  23.2523251
  89.1429520  70.3145170  23.3654332  90.6457520  70.2634192  23.1923413
   7.4280304  50.9062433  54.5072079   6.6870732  50.6105995  53.9782333
   8.1240410  51.0740614  53.8718891  72.9323244  68.2575274  31.7707610
  72.1541643  67.7109337  31.6615224  72.8047848  68.6897659  32.6152325
   5.7106346  57.0742226  34.7784257   5.1345391  56.3236284  34.9231839
   6.5283627  56.8363190  35.2154040  16.5900386   6.8529738  18.0394280
  17.2679485   6.3805140  18.5225987  16.8503059   7.7722014  18.0986309
  48.0457080   5.7805575  44.8610973  47.5965083   5.2840746  44.1770220
  47.8371299   6.6949118  44.6695805  53.1624490  48.3058347  84.6621330
  53.0042249  48.8607492  85.4258509  52.3008996  47.9528417  84.4399460
 112.5983238  55.2969837  43.9187479 112.0132256  55.5595636  43.2081461
 112.1474743  54.5667982  44.3427753 112.3538685  70.5228996  32.2609854
 112.6558590  71.4091778  32.4598265 111.9389248  70.5983925  31.4017081
 109.5051861  90.9570503  17.7360392 109.3108082  91.7726707  18.1977975
 110.4223347  90.7774162  17.9429066 102.9250050  47.5346851  10.1104128
 102.4932766  46.7122507  10.3415942 102.5553226  47.7681589   9.2589140
 103.0438137  57.9523754  40.0832033 102.3781967  57.5286531  39.5413041
 103.4757996  58.5697699  39.4929099  12.8594155 104.2360401  13.6054683
  13.3871502 104.9678421  13.2858014  12.8230709 104.3630791  14.5535040
 104.4218540  96.8567657  35.8253098 104.8977852  97.4265766  36.4294934
 104.6444035  95.9695339  36.1073041  57.6305199  76.5994835  17.4029481
  57.7934456  76.4129829  16.4783382  58.4880781  76.5133858  17.8193796
  87.4425697  99.0220165  21.7827654  87.4669456  99.4556332  20.9297609
  86.6045284  98.5596275  21.7925382  63.6291009  41.3839521  80.2301283
  64.0279752  42.0786275  80.7541163  63.2688409  40.7747163  80.8745380
   2.7492756  85.3569031  31.5074086   2.7806992  85.1683521  32.4453282
   1.8663353  85.6962299  31.3607693  43.7665523  14.7477091  46.9066477
  44.1482700  15.6126631  46.7570400  43.2231487  14.8574294  47.6869678
 107.5331402  44.5724869  16.8126118 107.3960876  43.9202023  16.1256123
 106.9963360  44.2666960  17.5437534  88.3857536  91.3498116  16.3072944
  88.0166054  92.1604538  16.6577482  89.1938019  91.6227913  15.8728158
  98.2813835  85.0364876  24.2859292  98.8167953  84.7391510  25.0215626
  97.4498367  84.5746040  24.3928051 114.4573593 102.6600552  21.1982894
 113.9594936 103.0537033  21.9148135 113.9088535 102.7916145  20.4249382
  86.3135147  80.9723854  22.8126121  86.5032673  80.2327156  23.3897805
  85.9540749  80.5722713  22.0208144  72.5644636 101.9149303   9.2693239
  71.8473768 102.0359325   9.8917204  72.3638535 102.5170708   8.5527879
  95.8588791 107.5273800  45.4679680  95.0074863 107.2464943  45.8033085
  95.6763554 107.8381824  44.5812178  22.5474877  91.9843769  30.4258060
  22.7107472  91.0446835  30.5067277  22.9548115  92.3660851  31.2033796
  97.5931549  73.9969015  40.6808472  97.8805923  74.9022245  40.7991648
  98.3280563  73.4694386  40.9938049   0.6517929  72.9764080  25.5314803
   0.7160706  72.3815393  26.2786269   0.2589077  73.7715483  25.8915162
  80.1329899  67.2271156  30.3866911  79.5060873  67.4882174  31.0612655
  80.8623505  67.8386879  30.4879308   5.6180615 102.6848602  56.7116833
   5.5921120 103.6083508  56.4612055   4.7899956 102.5372696  57.1685743
 105.0644016  92.8286266  59.4201040 105.2658749  93.7580299  59.3111944
 104.2701149  92.6935768  58.9032936  53.7213326  85.8931637  38.6889791
  53.9913940  86.7787552  38.9319515  53.2478952  86.0048389  37.8645921
  98.6345387  96.6192818  30.7373261  97.8045845  97.0543194  30.5419922
  98.3808041  95.7916641  31.1458683   4.9467320  60.0353336  64.3612051
   5.1182598  59.1402769  64.0684938   4.6708245  60.4974604  63.5696602
  89.4253159  77.2687197  46.0294580  89.2012024  76.5289831  46.5940809
  89.5049381  76.8872070  45.1551914  92.5691986  77.2441149  75.6682014
  92.9766178  77.0565510  76.5138102  92.5979233  76.4106512  75.1983690
  70.4034662  84.4851589  31.4012218  70.0628233  85.1920319  30.8530283
  70.1077557  84.7036934  32.2849798  88.3774471  89.4150257  37.9704976
  88.7941837  88.5763073  37.7727151  88.7082291  89.6481705  38.8379407
  94.1231823 108.5503960  36.7416191  94.4119167 107.7820110  37.2340131
  93.2933044 108.2835484  36.3462305   9.8279900  72.9981089  60.0508976
   9.6655983  73.3546400  59.1775465   9.2598194  72.2297049  60.1053667
   1.7646945   0.9319056  25.9414434   1.4501012   0.4088629  25.2040863
   1.1621440   1.6745127  25.9826756   7.7066750  69.8160934  14.5329773
   7.1189637  70.1723719  13.8667214   8.5848374  70.0216103  14.2123377
  98.9798355  65.3266954  57.8075600  98.9991474  65.3436708  58.7644148
  98.7194538  66.2132072  57.5574923   6.5549416  87.8914928  68.5835838
   5.9499783  88.5843468  68.8485384   6.1239952  87.4682808  67.8410244
 108.3594704  98.9822292  42.1876621 109.2822933  99.1143227  42.4048376
 107.9718971  98.6340332  42.9906416  95.2574444 110.3411961  10.1992249
  95.2486801 109.4230747  10.4697812  94.5014858 110.4269409   9.6183592
  37.2100192  53.4575547  89.2720004  36.8141442  53.5320749  90.1403107
  38.1207448  53.7227239  89.4004239  85.9979439  60.8700800  10.9477544
  85.3114700  60.2282000  10.7661569  85.7223415  61.6556501  10.4753649
  14.6530003  81.8339252   0.4334730  15.4365677  81.3115597   0.6048790
  13.9250893  81.2560844   0.6625804  92.6442051  85.1405525  46.9986153
  92.5737476  85.0020123  47.9431105  91.7528343  85.0191879  46.6715813
 101.4023972 103.9162159  37.8225803 101.0611629 104.7037506  37.3988175
 101.1597919 104.0153599  38.7432027 105.7817650  86.9560623  20.7996202
 105.7799530  86.2144566  20.1944327 105.9136105  86.5614128  21.6616559
  85.7063484  56.7260218  30.1947522  85.6562901  57.0581341  31.0910916
  85.4349613  57.4648666  29.6500611  44.4676000   4.6027650  91.2889691
  43.8387185   5.3146114  91.4073374  44.7354203   4.3695010  92.1778406
  88.4437561  99.5761299  42.6263905  88.3063889  98.7014198  42.9900312
  87.5615406  99.9302006  42.5143433  97.2679901  83.3608437  18.3239019
  97.6614571  83.3266544  19.1958249  96.3418770  83.1690407  18.4713626
  75.0748682  95.5456829  22.8145266  75.5926323  94.7545910  22.9639125
  75.6861687  96.2652779  22.9718041  17.9089302  63.1615257  31.2433004
  17.4335236  63.6555481  31.9112539  18.3191723  62.4424982  31.7238569
  93.0740452  73.5859919  24.8722887  93.8744545  73.3984375  25.3625894
  92.7961063  74.4460344  25.1874256   2.0470566  63.4702206  40.8443117
   1.7014546  64.2019796  41.3555050   1.3426155  62.8221560  40.8472729
  67.8069305 104.4117260  11.2753260  68.4531736 104.4750786  11.9785953
  68.1822920 104.9228954  10.5583608 115.3786945  83.0510044  58.0032921
 114.8060703  82.6444817  58.6537266 115.1381302  83.9773655  58.0180073
  65.1991653  97.5997448  19.9049687  64.7300434  97.3357773  19.1134679
  66.0008097  97.0767879  19.8938942  66.1614656  91.2992477  29.0565300
  66.6222906  91.2136173  29.8911166  65.5278349  92.0014381  29.2037439
  48.7832719  63.1396856  83.2366093  48.7964707  62.3258580  83.7403293
  47.8705007  63.4261979  83.2682927  93.9923477 106.6888809  32.5588393
  94.1782856 105.9168434  32.0243931  94.8539352 107.0052814  32.8304839
 115.5342120  10.6964243  27.4891639 115.4592437  10.4829253  28.4192324
 116.4439887  10.4953516  27.2698426  83.1196880  65.0922155  16.3642085
  83.2926083  64.1834927  16.1181343  83.4972858  65.1793480  17.2394574
  77.5687313  96.8896866  24.0815353  77.1984911  97.4087238  23.3675647
  78.1605721  97.4913597  24.5331335  95.2711868  82.2950649  47.0980072
  94.3827820  82.3107910  46.7420292  95.3664398  81.4163685  47.4655056
 111.7042446 100.4415131  58.6039877 111.0753441  99.9560547  58.0700922
 111.1931896 100.7554150  59.3499851  78.7479115 101.7258739  10.0500929
  79.5608425 102.1316433  10.3512931  79.0322971 101.0369873   9.4494331
  26.7904914  10.0722826  66.4031792  27.0491470  10.0241602  67.3235083
  25.8604491  10.2973689  66.4272308  95.5716515  75.6213188  43.5975170
  95.9550667  76.4606905  43.3431959  96.2139511  75.2352142  44.1930056
  82.6835823  99.9123096  25.2195334  83.6355400  99.8708248  25.1284790
  82.3748779  99.0662479  24.8953295  92.8807259 101.2778854  27.1584153
  92.5004482 100.3999233  27.1300173  92.5160122 101.6713428  27.9511380
  63.9032060  45.5856408  87.9236384  63.3775598  44.8291864  88.1838204
  64.0328008  46.0775556  88.7344803  95.9721470 100.5859375  27.0536566
  95.1202965 100.9105587  26.7617559  96.3962841 101.3477802  27.4485564
  82.8373623  97.0628071  24.3374062  82.1698380  96.6941738  23.7588310
  83.5657692  96.4437962  24.2876649  15.6381459  75.1167202  34.3985081
  15.6143898  75.8235979  33.7535310  16.4441628  75.2694845  34.8916960
  81.5835190  87.6338387  48.5225677  81.3265705  88.5411549  48.6868429
  81.9451141  87.6440144  47.6363564 106.0154057  67.9400873  61.7544556
 105.2188778  67.5065756  61.4481258 106.7207146  67.5221491  61.2603855
  71.8445253 106.9322586  46.0380077  71.4764738 107.4588108  45.3284168
  71.4819574 106.0572243  45.8998442  72.9803991  79.3227625  30.1265264
  72.5491714  79.0062284  30.9203005  72.5311232  80.1424789  29.9205041
  21.2279094  14.3958987  56.4331341  21.0563338  14.7044695  55.5434275
  22.0698226  13.9446105  56.3719463  73.7806511 101.4738941  28.0666089
  73.9917707 101.1643410  28.9474249  73.7669182 100.6807709  27.5308800
 102.9193783  59.9281263  33.3690023 103.4660721  59.1466713  33.4507656
 102.0327377  59.5885086  33.2475281 102.5243759  77.0380735  39.1982388
 102.1060181  76.2322617  38.8951278 102.6461506  77.5581455  38.4039307
  72.5522947 108.4314537  48.1548262  72.1423864 109.2050076  47.7677584
  72.2520161 107.7035999  47.6104975  95.0608158  96.5729237  28.8502026
  94.7928238  97.2818279  29.4349027  95.3684616  95.8819580  29.4368458
  92.8097248  69.6694613  32.2655296  92.3945522  69.4655132  31.4275122
  93.3149433  70.4644585  32.0953298   0.6288857 104.8170567  45.6991959
   0.4340119 105.6993580  46.0151196   1.5847439 104.7811127  45.6635094
  95.1336861  68.9738417  42.5620079  95.4332924  69.2788219  41.7055845
  95.9312725  68.9157629  43.0880404  22.3941273 102.0215607  20.3298306
  21.5452523 102.0082092  20.7719469  22.1801323 101.9637394  19.3986511
 103.4152985  92.1360779  21.8629813 104.1143131  91.5595055  22.1714878
 103.7434864  92.4890900  21.0359907  93.4908295  91.9782352  17.2354877
  93.3663559  92.6956463  17.8568232  94.0084171  91.3322163  17.7161086
  21.1143459   8.3809985   9.6581930  20.8536971   9.2740763   9.8833954
  20.3255714   7.8579749   9.8013884  15.2038062  27.6193465  26.0405302
  15.4032863  27.3474921  26.9363737  14.6851600  26.8993414  25.6816030
  67.9777336  63.6402130  14.4019461  68.5496950  64.2481709  14.8704302
  68.0378389  63.9122438  13.4861839  94.3638897  79.8522329  30.0532103
  94.1502666  79.6690369  29.1383100  95.3154564  79.7597599  30.1001358
 115.7204789  13.1722868  28.9831495 115.3469008  12.4543036  28.4721017
 115.1099223  13.2914580  29.7106457  69.5185262  18.1236352  85.7714619
  69.0487271  17.7550830  86.5195884  69.2844850  19.0517797  85.7752885
  23.9957679  10.6617964  35.8511519  24.2063583   9.7282446  35.8705020
  23.8977779  10.9043540  36.7719102  18.2050938  78.3864641  62.1391106
  18.5694260  77.8481770  62.8417778  18.0225224  79.2297649  62.5535250
  90.9496403  71.5788364  41.2821341  91.3102818  70.9154367  41.8704033
  91.6318798  71.7117214  40.6240129 107.4677181  94.5138168  20.6836486
 106.5604115  94.7029591  20.9229302 107.6837158  93.7196064  21.1723304
   9.7818131  84.4106102   9.6934241   9.7223229  84.3635178   8.7392360
   9.8780388  83.5001087   9.9726313 107.8826809  84.6338844  20.5986762
 107.7447224  84.7371292  19.6571147 108.7812138  84.3129539  20.6753206
  75.7538795 107.1790504  23.8677406  75.7540417 107.3219109  24.8142195
  76.0323524 108.0173016  23.4989405 101.6815567  70.0626516  45.8335018
 101.4982224  70.4028463  46.7092228 101.5820980  70.8200216  45.2566719
  62.1170282  54.4635582   9.0441060  61.6617107  54.8488951   8.2954836
  62.1917915  53.5343981   8.8266134  59.2927629   7.9380073  88.3324029
  59.3719274   8.8536777  88.0649932  58.7501317   7.9646911  89.1204830
  38.5538006  86.3039017  27.1529651  37.6283073  86.4843750  26.9882679
  38.6182737  85.3490257  27.1363807 115.4633808  78.5047293  51.9837332
 115.0724316  78.1271315  51.1958218 115.0258732  78.0556345  52.7070141
  63.0494833  93.4891987  25.3906870  62.5361156  93.2806969  26.1712074
  63.3666182  92.6415157  25.0791025  91.2651443  81.7065907  39.2318201
  91.8550777  82.4228191  38.9968085  91.7303276  80.9147739  38.9618993
  54.3125677  60.0978422  53.5885859  54.9482203  60.2225065  54.2933130
  54.7775888  60.3666162  52.7962828  91.8762016  73.9913368  32.2332501
  92.1723557  74.8589945  32.5083756  91.8296242  74.0456772  31.2787318
   6.4747775  25.0533427  27.7753496   6.6926540  24.7316493  26.9005537
   7.1886600  25.6519354  27.9951000  89.5160961  78.4471369  23.5550618
  90.0157547  78.8176775  24.2825699  89.7538757  78.9873314  22.8014827
 100.1355553  81.7246628  10.8423662  99.5462418  82.3966122  10.4996753
  99.6432400  81.3143063  11.5533328 111.9092464 104.6376896  33.0897880
 111.2489223 105.2939701  33.3122540 112.7120876 105.1414680  32.9560542
  87.0137024  92.3100376  12.2145689  87.5217724  92.6084709  12.9689133
  86.5300941  93.0853844  11.9296241  59.2399597  78.7197208  45.7973146
  58.3117485  78.9448643  45.8602953  59.2893410  77.8170204  46.1118269
  94.4222373  34.7080267  39.9945784  95.2228421  34.9080504  39.5095420
  94.3346661  35.4277647  40.6195068  85.2516937  79.6106577  20.6788611
  85.4301167  78.7157869  20.3897142  84.4037819  79.8237181  20.2891326
  75.5181599  45.7949018  23.5041237  76.0182810  45.8939028  24.3142509
  76.0630894  45.2327538  22.9534221 115.6995392  52.5830221  19.8662817
 116.6125107  52.6658821  20.1416731 115.2913666  52.0488548  20.5476713
 102.0689201  97.9494572  20.4880285 102.3521709  97.0633507  20.2625918
 101.1258221  97.9483700  20.3243303  88.7890625  94.2649078  11.0836935
  88.9080620  94.3896103  12.0252454  87.9594517  94.7001648  10.8874071
   6.1949486  46.1540318  38.0109811   5.8909935  46.9856501  38.3746505
   5.6316132  45.4950285  38.4167004  48.6458283  34.8428144  86.5290947
  49.3221456  34.3249883  86.9657596  47.9249936  34.2281999  86.3916739
  88.8279247  89.8771572  24.4100857  88.4689045  89.2374039  23.7952280
  89.2435360  90.5364132  23.8543200  82.6984787  92.7206802  16.1965406
  83.3649921  92.9690075  15.5559778  82.6907825  91.7637444  16.1754704
  85.8863258  81.4465141  27.2468281  86.0907936  80.5119991  27.2135401
  86.3997936  81.8295288  26.5355754 101.4165878  92.4242496  67.3406982
 100.8356190  92.8872681  66.7371178 100.8260345  91.9366550  67.9149246
  19.2442650  86.4885902  43.8313103  18.8247818  86.4740467  44.6915722
  19.8948902  85.7875919  43.8702154  89.6979600  42.4796190  87.9428227
  90.1772958  42.5735654  87.1196313  88.9501172  43.0703344  87.8532882
 113.5819530  94.0286541  61.6747856 113.9088917  94.4927311  62.4454832
 114.0373039  94.4368172  60.9383774 104.3470097  72.0933819  32.0929122
 104.2819500  71.5752792  32.8951406 104.9173069  71.5792656  31.5213513
  18.8404811  10.2348460  16.4415717  18.2192386  10.2467383  17.1696806
  18.9153827   9.3101824  16.2057149 100.0103569  78.4039927  17.6397109
 100.4239750  79.2582321  17.7639103 100.3984261  77.8493214  18.3164513
  99.5320797  52.7367258  15.9906125  99.2348766  52.0226622  16.5545368
  98.7863827  52.9158020  15.4178131 106.9666976  18.4442843  36.2202191
 106.5570420  18.5546721  37.0782566 106.2492818  18.1792963  35.6446052
  72.6209909  53.0775537  91.2161924  73.3315259  52.4395074  91.1508136
  72.9437715  53.8447561  90.7434930  38.7802852   4.0060938  56.9131517
  37.9536880   4.4506396  57.1011496  38.6481822   3.1117381  57.2276449
  10.9666771  72.5363970  29.2409873  11.2714714  71.6301394  29.2860007
  10.5577702  72.6090145  28.3785725  70.2369499  71.5005636  34.9570251
  69.4151783  71.8160391  34.5809913  69.9986362  71.1972952  35.8330798
  47.2446537  61.0834932  13.7989366  46.6552925  61.7953300  14.0482807
  47.7690506  60.9209347  14.5830405  25.3275424  35.9851159  92.3970924
  25.4744273  35.3719987  93.1173310  25.7475120  35.5728521  91.6421814
  39.8182166   3.2012404  21.0532403  39.3636001   3.5594500  20.2908516
  40.3205741   2.4633540  20.7076955  78.3400965  97.0418453   9.8257059
  79.2414665  97.0399952  10.1478374  77.9530096  97.8324413  10.2016735
 111.8865299  64.1889000  24.0777183 111.8042564  64.9727058  24.6209526
 112.7747440  63.8737202  24.2449760  79.7654629  90.9373283   0.7524441
  79.1043091  91.4119434   0.2486141  80.2521706  91.6209888   1.2128253
  32.8529800   2.8756369  50.0040627  33.6886180   3.0373991  49.5661402
  32.6970924   1.9388617  49.8840904   7.9185242  95.0446606  56.3529396
   8.1593174  95.8620548  56.7889643   7.3492092  95.3160000  55.6328773
 102.9082489  86.8075657  22.6627874 103.1793213  87.6934910  22.9033804
 103.1538677  86.2692928  23.4152269  89.2367744  77.7977467  14.7685027
  89.6502972  77.9084206  13.9123631  88.7489128  78.6097956  14.9056184
  96.2297344  71.5872002  36.0869336  96.0065365  71.2193966  36.9419980
  95.4965115  72.1652603  35.8760691  45.9255470  12.6295031  59.8175287
  46.2779201  13.3897341  59.3548012  45.0486148  12.5120677  59.4522572
   9.9088520  86.4253807  45.2084637  10.2942128  87.0738888  44.6192503
   9.1127438  86.8432617  45.5368137   2.5371403 100.6481361  31.4973831
   1.6714997 100.6725407  31.0895824   3.1303925 100.4072380  30.7858634
  75.9596443  87.1251678  11.9887972  76.3189411  87.7781010  11.3881135
  76.5278149  86.3623905  11.8811846  35.0023425   5.9813536  66.8905973
  35.1279510   5.3392733  67.5893068  34.0522826   6.0492648  66.7956781
  23.8176293  91.3537025  65.0712204  23.5870880  90.7715893  64.3471861
  24.3093247  90.7992554  65.6770706  11.8278069 103.7312222  16.9764936
  12.3410458 103.0468559  16.5470099  11.7292351 103.4262657  17.8784442
  90.2472305  75.5756950  36.2172222  91.0368443  75.1983738  36.6049838
  90.5621243  76.0541105  35.4502821  78.4238911  62.1365595  35.9571362
  77.6763439  61.9692326  36.5310717  79.1893673  61.9432402  36.4983487
 113.0704784  96.2895966  41.1733770 113.1489754  95.7489491  40.3873968
 112.8148460  95.6756687  41.8618345  17.5280136  98.4382057  28.5224867
  16.9193024  98.5266399  29.2558908  17.7645153  97.5106907  28.5180354
 101.0636044 110.3780556  33.0287242 101.2400436 109.5634747  32.5580192
 101.7662907 110.4376984  33.6759520  11.3362736 107.1184826  75.8762550
  11.9257683 106.7622280  75.2115583  10.6980557 107.6312637  75.3803158
  15.8280147   9.0776289  46.7526484  15.1553024   8.9551104  47.4224901
  16.1124290   8.1902731  46.5337133  97.1133614  85.9178352   8.2698768
  97.6953793  85.1678562   8.3924538  97.4763966  86.5979767   8.8371921
  88.9556676  19.3976535  93.7726592  89.3028337  19.2942037  92.8866561
  88.0224973  19.2017450  93.6886417 112.3404980 102.9261112  43.8654804
 113.0366802 103.1544590  43.2495070 112.7120972 102.2217751  44.3965578
  65.2871018  12.2465076  93.2840778  66.0858613  11.7240180  93.3563267
  65.2171784  12.6949348  94.1268440 100.0287533 100.5608559  24.2129159
 100.5985737 100.4434681  23.4528112  99.6752834  99.6879864  24.3843555
  79.1706133 100.3474998  23.5824609  79.7450399  99.9582863  22.9230928
  79.6070051 101.1629963  23.8289523  18.2260383   2.0418776  21.4253759
  17.8346313   2.4531115  22.1960378  18.9566100   2.6150454  21.1930799
 105.6020451  94.1009617   0.5150486 105.1388073  94.7042847   1.0961144
 105.2418900  94.2808247  -0.3533803   3.8825936  80.9026623  50.1186419
   4.2089695  80.3222942  50.8063078   4.5102257  80.8025742  49.4028950
  15.0656474  36.8929327  30.1185346  15.1740325  35.9773959  30.3759885
  14.8860706  37.3527087  30.9386492  75.7447398   5.3140391  64.4578695
  75.8022273   4.9815787  65.3536320  76.5874541   5.7420672  64.3067122
 110.1174450 109.0607071   4.2098305 110.1995087 108.2048798   3.7890479
 110.1145744 108.8673878   5.1473016  30.2381653 102.7757931  23.2809711
  30.4386944 103.7083244  23.2008862  30.9900421 102.4081516  23.7454462
  75.8115578 107.0512867  49.0400267  75.7213783 106.1807156  48.6524487
  76.1878204 107.5866699  48.3414459  77.6650906  66.0053682   9.4427884
  77.1664715  65.3476191   8.9580417  77.1876860  66.8223333   9.2982680
 104.5041752  93.3920574  19.5537090 104.8735237  92.7622795  18.9346850
 104.5884323  94.2379665  19.1137362  38.0336631  18.5147513  48.1647158
  37.3242534  18.3992327  47.5325537  37.5896514  18.6248911  49.0055180
  17.5486893 101.2639046  54.3006706  17.3731274 101.4645290  55.2199984
  17.5057835 100.3089333  54.2514992 110.3021049  99.8089790  28.8345432
 110.2698421  99.4243813  29.7104883 111.2345695  99.8392391  28.6204505
  29.4834674  11.5124835  48.1098795  29.0828098  11.6385115  47.2497559
  30.3641856  11.8763484  48.0194807  44.8964179  13.6357821  17.5393927
  44.0098251  13.7375773  17.1932173  44.9549449  12.7111281  17.7798498
  52.3125315 104.8138332  35.1812887  52.8735971 104.7899151  35.9564424
  52.9221010 104.8816967  34.4464064  99.6023750  72.2855568  41.8396807
  99.2780113  71.8838930  42.6457071  99.7225666  71.5511608  41.2376404
  99.1966629  94.3887997  74.6072292  99.2567825  95.0676727  75.2793503
  98.2846546  94.4181347  74.3180799 105.9803867  99.6499634  17.1695495
 105.0309944  99.7573853  17.2273886 106.1798668  99.7781086  16.2421787
 107.0327759 100.7586575  58.5298395 106.7931461  99.9080563  58.1620264
 106.5071201 100.8318138  59.3264389   4.7170109  90.9988403  13.1536210
   5.5836052  91.3247108  13.3966517   4.1710896  91.1757469  13.9197159
  85.9006370   0.8681143  66.6757679  85.9203590   1.0258521  67.6196766
  85.4951347   0.0057734  66.5854645  80.5012989 104.1557980  23.1163001
  81.2129021 104.6346664  22.6913929  80.6974983 103.2345104  22.9461217
 109.2909241 102.0101547  49.1443253 109.3643093 102.6233292  48.4129810
 109.3906784 101.1465454  48.7437439 114.5399952  99.5386696  39.6400237
 114.9377632 100.1769161  40.2321815 114.3665218  98.7758350  40.1915932
   3.2067073   6.3812769  12.6730192   2.6079524   6.4303912  11.9278288
   4.0634216   6.2118472  12.2811425  29.3199504  21.6467513  73.7038422
  29.6352161  21.3725890  72.8426409  28.4809936  21.1973513  73.8059950
 102.6682758  81.4116764  11.7663157 103.1167603  82.2256660  11.5371668
 101.7928791  81.5066719  11.3909435  75.2098799  95.8448982  35.5066371
  75.0266981  96.0948563  34.6009898  75.1604891  96.6658497  35.9963536
 108.0052567  97.0507717  70.1002502 108.8452530  97.5036335  70.0256968
 107.8618813  96.9656467  71.0428143 113.3266449 109.0709400  50.4683685
 112.4726582 108.7183952  50.2180624 113.9004612 108.3056545  50.5044651
 104.4850445  82.6993370  23.1260562 103.6941338  83.2127666  23.2906151
 104.7159386  82.3346519  23.9804125  44.3019450   7.5804270  43.1208086
  44.0573085   8.4956683  42.9840231  43.9393676   7.3613013  43.9791536
   5.4695744  85.7127666  52.8251410   5.5784363  84.8460770  53.2165861
   5.3506131  86.2996387  53.5719109 113.3670998  73.8284349  49.0322638
 113.0058384  74.2727423  48.2652473 114.1868401  73.4436131  48.7221527
  42.7551616  26.3743723  80.0031281  42.2924770  26.4281977  80.8393478
  43.6799491  26.3203753  80.2441216  42.0437760  87.3086739  42.7995014
  41.8094677  87.1425533  41.8864107  42.7913040  87.9045200  42.7503538
  19.3910736  91.7446136  11.2939715  20.1674122  91.7240620  11.8535388
  18.8167805  92.3908806  11.7047632  96.1249733 100.8148384  39.2954087
  96.3489914 101.5456486  39.8715639  96.6989803 100.9230137  38.5370922
  16.1000008  92.4496269  39.4713688  15.4165024  91.8121529  39.6779871
  16.4163346  92.7466297  40.3245735  53.3409274  10.4949797  51.8460560
  53.3893741   9.5953883  52.1695137  53.6570323  10.4425372  50.9440804
  51.8494189  14.2533339  41.3586712  51.7749465  15.1900805  41.1764956
  52.6820911  13.9976061  40.9618235  32.9555763   6.7622984  31.9260502
  32.5126041   6.4958991  32.7316809  32.8348506   6.0226859  31.3305330
  90.7204628  99.7820759  40.5666113  90.6905079  98.8618279  40.3049374
  89.9886608  99.8818970  41.1754847  23.3889908  63.6800671  13.5470057
  23.4022278  64.4678545  14.0905595  23.9240212  63.9052057  12.7858961
  83.1361008  80.3410721  34.4681740  83.1300926  80.5086517  33.5257745
  83.8848495  80.8396626  34.7953296  24.0102447   2.0132578  52.5252390
  23.3963073   1.5711821  53.1116533  24.4827808   2.6247824  53.0900192
  35.6915516  89.6149540   7.0086926  35.9260220  89.5580673   6.0823989
  35.0487084  88.9173222   7.1363157  11.2658829  77.3986816  45.4493618
  10.9871525  78.3106184  45.3662395  12.1770806  77.4520636  45.7376289
  20.1273293 101.1931419  74.6191978  19.7063870 100.5845547  75.2263641
  21.0573143 100.9709263  74.6636152  22.0980686 100.4315948   6.7185098
  22.8943390  99.9030781   6.6650325  21.7279190 100.3969669   5.8364522
 103.7894058  95.7642555  42.8738403 103.7943172  95.2740860  42.0516825
 104.5638275  96.3245583  42.8232574 112.1624184  82.1047401  40.2372503
 111.8472862  83.0022907  40.1308298 112.4775791  81.8569088  39.3680620
   2.4412484  83.5415173  12.9926670   1.8412346  82.9120541  12.5926733
   3.1100315  83.6926746  12.3247445  11.7714847   9.7345389  22.5946689
  11.8738616  10.6397856  22.3009181  12.5850070   9.3040122  22.3318934
 109.8629761  86.6176033  26.9394088 109.3283081  87.1575546  26.3573313
 109.2281914  86.1427593  27.4758744  15.3825993  74.1898966  16.0894191
  16.3373608  74.1738319  16.1558235  15.1987404  73.8753366  15.2042758
  32.3931468  19.7867430  18.0910516  31.5770019  20.2771605  18.1891692
  32.2385181  18.9677561  18.5617721 104.7691917  75.5143118  46.8606138
 105.3289604  74.7832823  47.1223021 105.0623226  75.7359934  45.9767771
   3.5650963  87.4949741  44.8577452   3.2142014  87.9250622  45.6375694
   3.9267487  86.6699696  45.1814938 112.3507118  93.3835220  18.4793782
 111.8754387  92.9405975  19.1823518 111.7840862  94.1136265  18.2301736
  11.5886826  69.6259737  59.9990559  11.6548104  70.0335169  59.1354799
  11.5851826  70.3616333  60.6114435  88.9482784  67.0515490  20.4309821
  89.4646263  67.8118420  20.6985092  89.5790100  66.4719725  20.0037789
  97.7597332 100.0252628  57.3092794  96.8731403 100.2162075  57.0031214
  97.7090073  99.1312218  57.6474237 101.7690866  33.4134794  79.4628211
 101.3801496  33.3988333  78.5883232 102.6857012  33.1768084  79.3212791
  92.6669901   5.9599877  68.6894770  92.4235266   5.8667899  69.6104951
  93.6143415   6.0960818  68.7047501  48.8806677   2.7291346  49.3143845
  49.0154314   3.5978392  49.6930981  49.4956303   2.1652861  49.7835588
 108.7105357  99.9556409  12.8051770 108.6609566  99.7590934  11.8696856
 108.5234033  99.1213297  13.2354534  47.7847272  93.9060616  38.0663443
  47.6846868  93.0830430  37.5879478  46.9512921  94.3594896  37.9398084
  59.5768976  14.0188050  45.4182100  59.8206663  14.0956402  44.4957638
  60.4108953  14.0276909  45.8878851  20.0556970  34.3300629  14.9708307
  19.9887729  33.4870195  14.5224679  20.9753633  34.5785761  14.8776150
  65.4198360   6.2137741   4.7898328  66.1917925   6.2459993   5.3548735
  64.6794558   6.2962621   5.3908908   0.1049715 104.8744034  26.7261839
  -0.5112189 105.3179224  27.3091364   0.9077340 105.3921281  26.7875481
  33.4887439 106.8361633  41.2266636  34.3142110 106.7116280  40.7583380
  33.2933932 107.7675970  41.1241865  74.2252945 106.4377054  32.7503467
  75.1156487 106.2064170  33.0149341  74.3276288 107.2434341  32.2438288
  21.0057288 105.4863288   8.9068782  20.1642686 105.8550542   8.6381525
  20.8243829 104.5580839   9.0542066  59.6595001  20.5113220   1.3459642
  60.0096512  21.1711073   1.9445533  59.7755337  19.6818471   1.8093649
  19.0337831  96.1718070  31.8803430  18.2039577  96.1878311  31.4035201
  18.9983684  95.3659665  32.3957062  98.6923313   1.8198766  34.8915029
  99.2516518   2.4374148  34.4202924  98.8434601   0.9803635  34.4572091
  55.7343102   6.3380468  13.0620325  56.6022682   6.4752460  13.4415805
  55.1929760   6.0540164  13.7985921  20.4661494  93.6845051  44.8124313
  21.2228662  93.1025373  44.7422791  20.5730992  94.1152762  45.6605053
  79.3670893  22.9455972  62.2363997  79.7994471  22.0931768  62.2881413
  78.4388685  22.7516675  62.3669100  41.7023897  10.3889763  34.5168376
  41.8413877   9.5001769  34.8438668  41.1168051  10.2796614  33.7675905
  48.9765215  14.1192186  33.0750275  49.0967369  14.9596155  33.5171962
  48.0274630  14.0251243  32.9934001  66.0181904  30.5544162  29.9369097
  65.0982285  30.5262876  30.1997876  66.2224627  31.4878058  29.8795366
  67.7777767  13.3932471  11.0505927  68.6525249  13.0338001  10.9027946
  67.3797703  13.4202480  10.1804817  63.5574579   8.4253132  31.4361405
  63.1126738   8.1071210  30.6505489  64.0056658   7.6553231  31.7860818
  38.1651831  21.9132638  35.5906105  38.5738802  21.3463473  34.9365425
  38.3680964  21.4972782  36.4284730  77.7767467  11.0801959  43.9875507
  78.5059023  10.4915369  43.7925005  78.1428146  11.9582462  43.8814640
  96.9308918  61.7064459  78.4175427  96.3438433  61.1822761  77.8727026
  97.7887600  61.2959690  78.3089025 100.5212610  56.2450670  91.2445556
 101.0796993  56.4920802  91.9816865 101.0915869  56.3127042  90.4787998
  36.7551309 108.7753955  56.6577673  36.8977243 108.7322183  55.7122326
  36.9510919 109.6835123  56.8883181 116.3208138 106.3428684   9.4136471
 115.4062926 106.1665442   9.6345311 116.4645135 107.2471835   9.6925664
  16.7251140  94.0642499  22.0441914  16.5641147  93.9330577  21.1097932
  17.2808438  93.3271336  22.2972894 109.0319359 105.9104540  41.2186527
 109.0507757 105.2794709  41.9381952 108.1140315 106.1744761  41.1555958
  52.8175354  34.6953917  34.9636221  52.3357677  35.4855204  34.7190261
  53.0703068  34.3009591  34.1288996   1.4578849  58.8281261  37.2618604
   2.0540505  58.1862127  36.8761611   1.9661027  59.2359935  37.9629970
 112.2988927 108.2211349  46.6942835 113.0938517 108.3754157  46.1839199
 111.7155563 108.9404429  46.4523172 113.0794161  34.3306328  88.6434610
 112.4396484  34.7164703  88.0450781 112.5832861  33.6759973  89.1349264
  23.5515094   5.7226658  26.4748907  23.8323951   6.4887547  25.9744477
  23.2640719   6.0781538  27.3158646  81.0838223  19.1556501  24.4847226
  80.9940434  19.3132234  23.5448599  81.9139767  18.6869562  24.5707703
  29.7211719   0.4670743  21.7948580  29.9476433   1.3350223  22.1289396
  30.5614614   0.0753016  21.5568233  28.5397625   1.8842250  25.3371024
  28.2860708   0.9819586  25.5314946  28.1736350   2.0542718  24.4691920
  77.7306271  15.9098828  64.6905231  78.4869194  15.5013835  64.2693520
  76.9741201  15.4677355  64.3052530  24.8104554  93.7076222  38.2192016
  24.3136626  94.0378343  37.4706078  25.0990563  92.8357731  37.9493499
 111.7067992  96.4475214  28.8178253 111.5184581  96.0983526  27.9467106
 111.9736540  97.3531734  28.6602974  41.8356210  96.7108940  43.3952188
  42.1038800  97.4435293  42.8406811  41.3393766  96.1375259  42.8110743
 105.3544437  83.4455048  41.8281651 104.5843684  83.4389006  41.2596798
 105.2923857  82.6296960  42.3249912  13.4662849  95.1120435  18.2538009
  13.8378841  95.2378236  19.1269112  13.4396344  94.1620766  18.1394160
  99.4583403 108.8895028  35.4598570  99.6615898 109.1965001  34.5762992
  98.5468780 108.6015070  35.4095984  71.1341190   7.9037976  15.8396065
  72.0023584   8.1615984  16.1493301  70.6154919   7.8023255  16.6377056
  61.7257166   0.3912244  16.7449307  61.6074657   0.1137415  15.8364975
  62.4618149  -0.1324322  17.0614362  96.6501724 105.7952773  16.9589806
  96.7724740 104.9978285  17.4741018  95.8299040 106.1667108  17.2836804
  52.3880625   2.4281175   5.6031096  52.9289818   2.8130034   6.2926763
  53.0148458   2.0125878   5.0109011  77.9517221   6.9772029  20.7145786
  77.0772743   7.0297778  21.1003375  78.5419846   6.9206387  21.4659929
  16.8566018  98.8125454  39.2452383  17.6549131  98.3452558  39.4913483
  16.2528020  98.6537742  39.9708056  55.3722525  17.3478377  42.6435328
  55.2375460  16.4820445  42.2581911  55.9303427  17.8056049  42.0148706
   0.8215290 109.1747860   4.5627537   1.5504485 109.7548079   4.7829470
   0.8794409 108.4642521   5.2015179  71.1400795  23.0466318  12.0694935
  71.1133099  23.4064436  11.1828983  70.2294397  22.8272057  12.2665238
  85.9322946  72.7168406  76.7762204  86.0133570  73.6311329  77.0477529
  86.8010538  72.4869478  76.4466210  19.9275666 107.9086300  16.7734873
  19.5059615 107.1256801  16.4192688  20.4824620 107.5821789  17.4818325
  28.1557590 109.5130902  15.0853312  27.2912150 109.9210391  15.1339889
  28.1896669 108.9323009  15.8454406  86.7315865  21.6912794   2.5430927
  87.3750973  22.3636770   2.7667147  86.2172318  21.5768147   3.3421972
  57.1667462 105.3868436  39.0262151  56.8012601 106.0702093  38.4643793
  57.4214440 105.8457156  39.8267126  79.4479561  17.1000385  11.2535107
  78.5015631  16.9780540  11.3289607  79.5464611  17.8625250  10.6832981
  30.6244784  94.0202176  23.1270146  31.5413362  94.2197525  23.3161974
  30.1623612  94.8430990  23.2868576   6.2176758   6.7433584  33.5368276
   5.4124868   7.2427773  33.4008741   6.5543425   7.0557201  34.3766594
 104.6836870  61.7664958  81.6621895 104.5259111  61.2703431  82.4654146
 104.0169590  62.4532599  81.6700132  39.8495990 100.5965780  15.7726538
  39.4760543  99.7466206  15.5396974  40.2554446 100.4535996  16.6276872
  12.6409942  90.2916311  17.3875666  12.1574193  91.0533594  17.0679438
  12.3954326  89.5844614  16.7910397  69.4693089  13.3915043  46.6497660
  69.3928576  14.2358375  47.0941639  68.6359787  13.2861018  46.1907673
  91.9580078  14.6100259  53.1852961  91.5658474  14.7393644  52.3217487
  91.2596035  14.2175460  53.7091541  61.3325405  25.2006888  32.3367405
  61.2299967  24.9201345  33.2461405  60.5062389  24.9606419  31.9174099
  35.9605437  84.5137655  23.7801313  36.7185479  84.0076982  23.4876299
  35.2064639  84.0406095  23.4283924  96.0662191  92.1410633  78.5395594
  95.6565636  92.9847098  78.7310656  95.6286352  91.5237570  79.1258045
  21.1751443 104.4751011  51.5784597  20.8560163 103.6341613  51.9058847
  21.5486985 104.2720549  50.7208681  94.3367260  48.3460022  84.2237277
  93.4107941  48.5493273  84.3561979  94.5087927  48.5938645  83.3153291
  84.9307363  36.1826349  84.5721479  84.3067043  35.6247831  85.0364979
  85.6338995  35.5885697  84.3097027  44.7264957  13.7409925  39.6810246
  43.7821341  13.7123275  39.5274401  45.0402498  12.8797364  39.4052911
  68.1040192  35.5752635  59.8199844  68.5989571  34.8227811  59.4958878
  68.1983232  35.5321217  60.7715511  73.2340384   8.6692131  59.0613604
  73.0910254   8.1894815  59.8772240  74.1501904   8.9434862  59.1022253
   8.9843827  89.6580612  32.5967193   9.2362529  89.1756498  33.3841681
   8.7726956  88.9783441  31.9568729  67.6112843  21.8896961  10.1376534
  68.0990791  21.9669056  10.9576094  66.9689369  21.2000799  10.3051233
   8.0825753  23.6248350  20.6814504   8.7813038  23.7920403  20.0489521
   7.2766823  23.6780095  20.1676965  36.9746142  99.7546374  36.1110282
  36.1468535  99.9825417  35.6878233  37.3431665 100.5947142  36.3842845
  41.5945196  15.6173015   6.4194679  41.2458372  16.1161721   7.1582377
  42.3456860  16.1285400   6.1184472  67.1112728   8.9974642  61.1933327
  66.6859627   8.6535829  60.4077816  67.9602718   8.5561192  61.2187243
  35.6678462  14.4461930  17.3019683  36.0169172  15.1895273  16.8102026
  34.8815441  14.1886258  16.8206978   2.6175481 104.6135288  40.7255936
   3.0933219 103.8112103  40.5107498   2.2953540 104.4699400  41.6154242
  56.3131618  34.6956658  56.8830109  55.7804012  35.4274797  57.1942091
  55.9757948  34.5093727  56.0068226  50.8013296   4.3032348  43.4634113
  50.1992369   3.9076379  44.0936661  51.3397455   3.5738748  43.1562042
  30.4404861 102.8070324  39.7221684  30.9763986 103.2484596  39.0632534
  30.0817185 102.0448219  39.2676854  84.2552853  10.3085256  45.4885149
  85.0931072  10.3862798  45.9448433  84.4226933   9.6805620  44.7857523
  26.5711909 101.1928504  28.0036926  25.6554347 101.2331157  27.7280116
  26.5949756 100.4906320  28.6537337  42.1800214  60.0500070  39.7629213
  42.4864656  60.9565650  39.7411180  42.5313455  59.6980249  40.5807877
  77.4235868  19.7975719  28.9794421  77.2734880  20.1145864  29.8700619
  77.1467447  20.5214715  28.4176970  12.3442250  99.1802441  21.9335103
  12.3406106  98.3987271  21.3808346  11.4683610  99.5518481  21.8285871
  20.5541068  72.4261867  53.5331249  20.6990701  73.1079613  52.8770733
  21.2967330  71.8313753  53.4285402  53.5107660  33.4659076  25.2279353
  54.2547131  34.0028262  25.5008674  53.6190844  33.3698010  24.2817521
  11.7088914  13.7902141  24.3463802  12.0125127  13.5788560  23.4635592
  10.8883023  13.3063185  24.4397044  65.4422903  60.3854656   2.7665624
  64.9154234  59.6313286   3.0309802  64.9789667  61.1403847   3.1294116
  81.1850357  39.0218496   3.1224430  81.6691685  38.2005548   3.0368367
  80.2812672  38.7905931   2.9080749  26.2532216 101.6594904  38.7435341
  26.9210702 102.3450308  38.7593269  25.7475406 101.8359702  37.9502034
  25.0810510 106.9748973  46.0086060  25.2020532 107.9190328  45.9076214
  25.5961400 106.7488944  46.7830992  69.9828332  72.1267164  93.8961561
  70.4657739  71.5723968  93.2831876  69.4261639  72.6710523  93.3393356
   6.7111647  51.9207693  92.4061503   6.2292444  51.3101736  91.8483420
   7.4976790  52.1341599  91.9040527  26.8060160  42.1512222   8.0733979
  26.0531187  41.6578817   8.3989662  27.5141144  41.9358635   8.6803985
  41.7988499  21.3522435  87.8429134  42.5262722  21.7345191  87.3520436
  41.2814151  20.8902074  87.1833547  88.3774090  13.3057928  36.2131691
  88.8534737  12.6452267  36.7164111  87.9059792  13.8152456  36.8722868
  10.9129846   4.3148959   6.5725756  10.4430676   4.8145032   7.2402596
  10.4270184   3.4932595   6.5019888  82.5788784   0.9187648  31.7412353
  83.3705425   0.5972807  31.3097715  82.6312542   1.8710011  31.6591692
  32.9629642  93.6050962   0.9145148  32.4543077  92.8050565   0.7824808
  32.4605971  94.2851268   0.4657227  87.7632141  12.8349197  28.2745624
  87.3388100  13.6763597  28.1069422  87.2731113  12.2090447  27.7413511
  12.6621991  94.8457467  39.1481471  12.4729234  94.8252331  40.0862217
  11.9116622  94.4114243  38.7428188  70.2742004   0.4292454  37.4150276
  70.2998590  -0.4570084  37.7757597  69.9009514   0.9627196  38.1166863
  15.6371319  15.1589382   5.1597589  15.0878716  15.7337880   4.6267563
  16.3793862  14.9451625   4.5944351  35.3950906  11.2450492  70.6189775
  35.7588506  10.3935170  70.3764820  34.5048189  11.2340605  70.2675152
  72.7045441  37.3664308  20.7274103  73.2258654  37.4989462  21.5191793
  72.7857065  36.4310813  20.5409622  55.6228352  27.3227692  49.9072266
  56.1806870  26.5539074  50.0250673  54.7317696  26.9916224  50.0193501
  72.1749592  23.7059188  51.1857986  73.1291533  23.7384009  51.1173391
  71.9984245  23.8054037  52.1213007  95.9814644  18.4128833  29.9111366
  95.3485203  18.9428973  29.4266772  96.1985874  17.6954627  29.3158221
  44.9849176  47.5334883  18.8477540  44.6814108  48.1011820  18.1393456
  45.9220886  47.4270821  18.6845922   3.5870993  72.3152412  89.1108592
   3.0481970  72.4394739  89.8921324   3.6319601  73.1834448  88.7103076
  45.5469876  95.7876657  46.0195684  46.3940412  96.0427832  45.6539774
  44.9881822  96.5532886  45.8862066  62.7600002  16.9774425  11.5885425
  63.4592485  16.3252378  11.6322827  62.3704100  16.9699025  12.4628377
  93.2501578  91.1459934  25.0405121  93.4844374  90.5112504  25.7175994
  93.0160617  90.6114291  24.2817807  80.4385107  59.5405037  86.2593301
  80.4541080  59.8929871  87.1491303  80.6549328  60.2878810  85.7018174
  43.4669286  94.8345171  31.2847972  43.3865052  95.4297530  30.5395055
  42.6143437  94.8764359  31.7178869  82.0772093  66.5737320  85.4392906
  82.8958576  66.3547373  84.9942191  81.8051737  67.4029339  85.0460287
  75.2540398  53.9521217  42.6488543  75.8522606  54.5609617  42.2156382
  74.4866657  54.4824266  42.8636837  79.8179596  57.6316223  79.7738059
  79.7060316  57.5495524  78.8267215  78.9449995  57.8500230  80.1001151
  89.5413876  44.6647692  36.5254045  89.5621681  44.6022415  35.5704761
  90.2908039  44.1449070  36.8158364  95.1718824  88.4528375  70.0069471
  95.0292890  87.6395107  70.4910918  95.6677740  88.1868506  69.2326231
  48.2992411  47.4572945  25.3665304  47.4609232  47.4105358  24.9068904
  48.4077263  48.3856440  25.5730128  72.5812333  96.4646722  93.6467605
  72.7784126  97.3219252  93.2693121  73.2643073  96.3292838  94.3035037
  67.9029989  26.9506359  54.6190310  68.5058355  26.2550116  54.8815680
  68.2514954  27.7391863  55.0349283  16.8522101 106.8251513  39.8685050
  17.6064664 106.7327951  39.2864442  16.0932094 106.7028823  39.2982411
  74.0765381  10.9372449  18.6347258  74.5489645  10.2018726  19.0249443
  74.6588707  11.6872525  18.7555909  29.6989107  14.6434391  45.8655834
  30.0802469  15.1526356  46.5807962  30.2816558  14.8003650  45.1226044
  58.2029390  29.0567613  25.2462363  58.5586739  28.2022142  25.4900289
  58.6439180  29.6748924  25.8290601  25.0501084  22.7882266  17.4635160
  24.7316718  22.3899627  16.6534448  26.0014009  22.8131843  17.3603070
  62.6142597  17.1316469  38.6280084  62.7422285  16.4330113  39.2696977
  61.8105316  17.5696981  38.9079428  68.7640858  58.7197924  10.4746938
  68.7804890  59.1275263  11.3405550  67.9012060  58.9389420  10.1230633
  68.8827038  33.4898233  52.1906328  68.7182426  34.3248463  52.6287174
  69.1269159  32.8924751  52.8975725  69.3676043  39.7037363   9.1348016
  69.4395256  40.5088758   8.6221564  68.7162447  39.9049854   9.8067099
  99.6158218  47.4173594  21.6818976  98.8419628  46.9663286  22.0194697
  99.3234539  48.3167791  21.5342426  55.1477986   2.9023589  92.0876797
  54.7224313   3.4056844  92.7819134  56.0804158   3.0908241  92.1922381
  56.7430978  99.3143130  85.8534576  57.0346730  98.4026099  85.8572914
  56.1211603  99.3638182  85.1275273  81.6205215  34.7017455   4.4697931
  82.1335793  33.9628911   4.1425389  80.8544636  34.7338891   3.8967705
  27.7957564  91.7188846  22.1888566  28.5592347  92.1018993  21.7568421
  27.6027566  92.3182224  22.9098105  35.9173799  41.4718342   2.3578151
  34.9828744  41.2855005   2.4484400  36.2907910  41.2434864   3.2090813
  67.9797745   2.6750743  44.3709469  67.4191761   2.2435234  45.0157118
  68.7294817   2.9883865  44.8769188 107.3208492 104.8289538  77.6676662
 107.5342529 105.2681876  78.4909292 106.7829817 104.0810586  77.9276367
  74.7465134  45.3404999  30.5307508  75.5277586  45.2690554  31.0791945
  74.6042824  46.2825203  30.4380488 117.0084589  61.6905565  88.1456639
 116.5095156  60.8860762  88.2874443 116.4461677  62.3848242  88.4892543
  11.2669510  44.0392351  18.0782580  10.5523247  44.6160746  17.8084481
  12.0030922  44.2934656  17.5217557  70.1153755  31.5391231  23.4469986
  70.3036451  30.6333566  23.2012939  70.4352570  32.0587778  22.7095246
 114.8777390  13.9382076  16.1414540 115.6201172  13.8620234  16.7408693
 114.8176003  13.0788183  15.7242417  51.1168480  29.9942136   7.6748335
  51.4836550  30.3142071   6.8506449  51.2108183  29.0429163   7.6254779
   0.8600646  35.1811876  90.6438409  -0.0760979  35.0254430  90.5190499
   1.1719590  34.4052686  91.1095791  49.2052937  19.3112445   9.3933558
  48.5012054  19.2907059  10.0414848  50.0004005  19.4504666   9.9077988
  33.4316903  96.7517232  29.0097594  33.8897258  95.9118425  28.9775586
  33.9229423  97.2681009  29.6487117  56.4855385  40.3372812   3.5533786
  55.9619045  39.8138976   4.1600966  56.6909981  39.7379804   2.8358459
  66.1334658  17.2940910  40.7754230  66.4742374  16.6153419  41.3580084
  65.8719397  16.8220079  39.9848700  11.9644576 108.4807186  10.3668177
  11.7299348 109.2698858   9.8785090  11.6004306 108.6227151  11.2406337
 113.1804102  54.5586239  88.8736148 112.7160948  55.2366155  88.3827295
 113.0514305  54.7968505  89.7916801  13.8559085 106.3144513  39.1402745
  13.4437257 107.1773024  39.0975237  13.1679183 105.7364448  39.4701409
  72.0553558  73.5744358  80.8143516  73.0077021  73.5668171  80.9103139
  71.8828028  72.9729987  80.0899692 100.6288450  90.7678772  75.9385200
 101.2637155  90.0708628  76.1038788  99.7835987  90.3811217  76.1670132
 112.2005718  52.9466905  79.0407880 112.9775541  53.1307108  78.5128983
 112.4004906  53.3196778  79.8993595  86.0581017   7.7552718  19.6021914
  85.2462769   7.2662866  19.4678009  86.0528660   8.4216559  18.9150691
   7.1317607 107.4319183   0.6063805   6.8584424 108.2313119   1.0563783
   6.6300899 106.7352735   1.0297532  53.2239342   7.5738400  33.5041833
  53.1610727   8.5245717  33.4125876  53.0104589   7.4070323  34.4222426
  96.9457722  29.1248512  16.4589608  97.4892998  29.8629308  16.7347085
  97.3224831  28.8489890  15.6233680  87.3153019  12.9612577  17.2597933
  86.8084335  12.9471993  18.0716527  86.6559792  12.9710448  16.5659380
  63.2806969  25.9107614  16.8577111  63.1379461  24.9663401  16.7950869
  62.5042963  26.2977004  16.4531028  61.4563036   9.3400413   0.5314154
  61.5777159   8.4118760   0.7314181  62.2819328   9.6081281   0.1280602
  63.6320734  11.1927330  45.0752401  64.4796133  11.0283136  45.4886055
  63.4091854  10.3654015  44.6485376  65.6621712  90.4395414  93.8443555
  65.0539582  89.7032548  93.7796140  65.9126370  90.6236220  92.9390307
  48.3966064  17.1431267  23.8131809  47.9877996  16.4210677  23.3359599
  47.7304649  17.8304124  23.8243365   9.4128382  81.0281325  89.2537309
   8.6482870  80.6404973  88.8277985  10.0386488  80.3073240  89.3246474
  55.1805210  22.1555996   8.0667645  54.5318985  22.8590488   8.0927402
  54.9534416  21.5929699   8.8071114   4.8180544  37.9855705  83.1228872
   4.1753351  37.5889171  83.7109442   5.5739653  37.3997987  83.1640919
  16.1062747 104.0032654  51.2261915  16.7902499 103.8145714  51.8686867
  15.3555947 103.4850620  51.5163183  53.1460953   5.9754401   3.0388725
  52.6341915   6.0967898   3.8385364  53.9275265   5.5019963   3.3242545
  39.6897340  29.5712662  14.7253120  39.7002578  30.5283260  14.7378910
  38.9541769  29.3473005  14.1551995  33.1765967  81.6547762  44.3912792
  33.7155372  82.3634016  44.0396786  33.6730748  81.3253604  45.1404285
  64.5806742  17.7684009  25.8250213  64.7060204  17.4929130  26.7331100
  65.4677963  17.8947771  25.4884458  63.8648110  97.3686635  22.5031114
  64.6839219  97.8569900  22.4205160  63.9172631  96.6963052  21.8238378
  59.7905629  92.0072127  93.0494087  58.9907949  92.2214366  92.5690861
  59.5719998  91.2125588  93.5362226  77.2151661  12.6888263   6.0219926
  78.0912542  12.9838336   5.7736510  76.9361925  12.1297300   5.2968591
  41.7544252 105.2150731  51.1633015  42.6302415 105.1187425  51.5373278
  41.9045335 105.5897858  50.2953768  54.5393658  11.8256485  28.5436034
  55.1617861  12.5266087  28.3500004  54.6558380  11.1981308  27.8302407
  43.7418365  47.5899935  27.4047995  43.4158993  48.3525372  27.8828382
  43.4442520  47.7260637  26.5052652  75.4312038  22.7623343  13.2868278
  75.4292011  21.8276501  13.4932101  76.1166573  23.1294107  13.8450766
  81.5537739  23.5209012   5.8921951  80.8178711  22.9105568   5.9386140
  82.0389557  23.2522035   5.1120430  50.7537699  32.3274469  30.7506633
  50.0001383  31.8711948  30.3763628  51.1978245  31.6636109  31.2782717
  92.2654074  50.2885223  92.5921552  91.3192528  50.3215776  92.4509974
  92.6421182  50.4203311  91.7221283  42.0503044  18.7382889  33.2179761
  41.4949036  18.0350637  32.8814745  41.6996622  18.9244580  34.0889668
  64.6144772  19.0307796  45.5219746  64.3249607  18.4234023  44.8411655
  65.0116014  19.7573066  45.0416803   3.4773120  35.5980635  27.6693177
   4.2043352  35.8449244  28.2409191   3.8878635  35.1049876  26.9589972
  52.3553276  50.8303690  25.1491618  52.9070234  50.3800917  24.5095444
  52.7377987  50.6039238  25.9969068  52.2865963   3.9267763  22.6788378
  52.5350142   4.8244119  22.4579978  52.6430368   3.7886271  23.5563898
  62.0895958  15.7035494   4.4727853  61.4334583  15.0403488   4.2585886
  62.9238701  15.3026021   4.2289409  59.1829205  23.4738851  19.2019522
  58.8733101  23.5757732  18.3019555  60.0684166  23.1216502  19.1121912
  73.3476400  45.7210779  58.9393044  73.9022923  46.1921167  59.5611620
  73.6821079  44.8242998  58.9515924  75.2924967  12.5718772  26.1457849
  74.4339275  12.5769234  25.7226300  75.5204964  13.4971380  26.2360072
 100.5097485  18.0817640  39.2519426 100.3120422  18.9416790  38.8808727
 100.5065918  17.4898338  38.4997177  71.0484886  33.3927965  28.2216144
  71.4944839  33.8285828  27.4953842  70.1593018  33.2421708  27.9008460
  34.9161511 108.0886446  14.8330569  34.9621326 107.9094358  15.7722068
  34.4410354 107.3413782  14.4696105  12.2380697 102.2931958  83.1670697
  11.2827933 102.2326422  83.1690200  12.4929678 102.0870734  84.0663894
  76.7366028  14.0768802  32.2037220  77.0296097  14.9818420  32.0968437
  75.9193325  14.1464329  32.6971436  80.3566551  43.4524441  28.0140233
  80.3053284  44.4063330  27.9532981  81.2798023  43.2731342  28.1925464
  33.9747315 109.5321978  38.1891036  34.7094947 110.0623233  37.8803635
  33.6838657 109.9690698  38.9895868  34.2577362   4.7397462   5.5448854
  34.3173623   4.9937427   4.6239281  34.6035171   3.8475418   5.5701429
  50.6557846   4.3137273  20.6592202  50.5860186   5.1865184  21.0460019
  51.2954569   3.8592532  21.2074041  24.6162188  83.6503006  84.8175498
  24.8017943  84.5891309  84.8372980  24.4566786  83.4570695  83.8937314
  41.9961262   2.1479629  28.5432816  42.5454903   2.7484250  29.0471435
  42.4540138   2.0475268  27.7087259  26.9026643  85.7203685  21.6974807
  27.0786124  86.6118156  21.9984770  26.5174800  85.2828561  22.4567223
  92.4403954  39.9917841  32.7916741  92.2654724  40.3669691  31.9286156
  91.5731716  39.8456812  33.1695700  88.0690353  86.7416836  82.2563036
  87.8694599  87.5662280  82.6996191  89.0253275  86.7090440  82.2303768
  92.2951698  18.8585997  20.6362486  92.4033546  18.5549557  21.5375423
  92.5105858  19.7906351  20.6700253  61.0851192  11.4053011   2.3842394
  61.1038399  10.5576801   1.9399193  61.6770887  11.9569194   1.8728495
  77.0166159  22.7121329  10.3599262  76.5041113  23.4772801  10.6209326
  76.5164852  21.9652629  10.6889939  68.9892244  34.5664430  39.0423346
  68.3374310  35.0420237  39.5573378  69.4034386  33.9733243  39.6691251
  46.2277204 108.3385256   4.8365706  46.4012509 107.8896836   5.6640124
  46.8653089 107.9693251   4.2255110   6.6655314  58.3858339  92.9589273
   7.1192515  57.6675434  92.5179906   5.7458746  58.2710228  92.7195741
  38.9919066  35.2873898  25.8285737  38.9301872  35.8660936  26.5885234
  38.4750652  34.5188046  26.0701990  85.1839989  87.2543145  91.0982500
  85.3720491  86.8365837  91.9387077  85.9289949  87.0227051  90.5436607
  66.4229202  27.1442890  52.3625755  66.9458199  27.0662165  53.1605196
  66.9614267  27.6734233  51.7741394  14.0109426 109.0551219  15.9771752
  14.6963531 109.2838907  15.3493965  13.6252433 109.8947318  16.2272239
  47.6383734  37.1729136  43.2379007  48.5335350  37.3366809  42.9410791
  47.3747301  37.9880118  43.6649084  63.3171129  58.3913136  24.2045808
  63.5540485  59.1156292  23.6253905  64.1411066  57.9297829  24.3603206
  78.5139990  29.3872833  32.1483922  79.1183472  29.3162990  32.8872824
  77.8321218  29.9858546  32.4533343 101.9821548  35.1046872  18.5551178
 101.0423279  35.0457358  18.7268472 102.3610783  34.3734002  19.0428317
  64.4555187   2.6871255  38.6221337  65.1352501   2.6120263  37.9523897
  64.0371370   3.5297006  38.4453440  57.0947218   2.7045086  35.9280038
  57.6994324   3.3970001  35.6615162  56.2271547   3.0503753  35.7184076
  67.6264048  50.2780008  19.9493515  67.8078556  49.4241953  20.3422022
  68.4315634  50.7784700  20.0815845  79.6549749  19.5255983  56.0374737
  80.0856113  20.2869511  56.4262247  79.0732622  19.8932338  55.3721285
  55.1881123   5.3302312  15.7619238  55.7514477   4.7196263  16.2373698
  54.6813822   5.7698476  16.4447081  84.2223835  13.8706195  23.1472278
  83.7363148  14.6734464  22.9589605  84.6193409  13.6291385  22.3103642
  38.0082488  19.3476963  20.5749345  37.7625084  20.1291394  20.0797653
  37.5709319  18.6282396  20.1195574  77.9728222  49.0708590  51.5154409
  78.2721663  49.4930220  52.3206711  77.8885508  48.1459141  51.7469835
  64.1241503  47.4451733   7.0865577  64.4305277  46.5522671   6.9281864
  64.7135496  47.9956198   6.5709519 110.1683109  83.9248992  87.1475931
 109.9213236  84.4228984  86.3683470 109.4677084  83.2811666  87.2524668
  87.9951286  13.8802683  33.5507107  87.2953033  13.3360243  33.1897640
  88.0619049  13.6085510  34.4661045  82.0587349  22.8833151  23.4444237
  82.7451515  23.5491109  23.4866643  82.2223759  22.3221827  24.2024374
  79.2845774  24.4875693  25.4821467  79.3615246  24.5151997  24.5284438
  78.8506985  25.3094292  25.7113409  46.0117245  24.7964001  18.9619064
  45.5234623  23.9732933  18.9438665  46.9220972  24.5380592  18.8179839
  30.3996491  33.6196733  30.8565402  31.3298774  33.4963870  30.6675768
  30.1737022  34.4416618  30.4212046  40.9347993 104.8944937  55.5273867
  40.8993226 104.5467888  56.4184952  40.4129296 104.2811387  55.0100040
   8.6974966  71.7319191  94.7060327   8.1004393  71.1351753  94.2547518
   9.4569933  71.7942501  94.1268006  48.9877987  37.7464294  16.6283321
  49.0200043  37.1764207  15.8600318  48.6219168  37.1953845  17.3202217
  77.4270582  60.4596138   8.3917779  76.6101170  59.9717236   8.2878327
  77.6500940  60.7448387   7.5056994  26.2105542 108.6172189  30.2675414
  25.4881221 109.1872790  30.5308914  26.0318452 108.4125816  29.3497086
  59.6869659  31.8243408  37.7993536  59.1679907  31.7605233  38.6011171
  59.0646791  31.6395497  37.0958996  91.2049103  11.3487267  61.0099554
  91.7193604  10.9582675  61.7164326  90.3157234  11.0249174  61.1539698
  73.0712080  20.0014734  26.7527866  73.9994097  19.7713292  26.7114305
  72.9354620  20.5843902  26.0057831  72.0388120  62.6785756  82.5515886
  71.8021481  61.9723368  83.1527944  71.5717500  62.4708027  81.7423220
 102.5260513  84.3085838  79.3631549 102.6804464  83.6971236  78.6430784
 103.2020634  84.9780489  79.2580040  98.3570862  36.7842889   4.9911043
  98.2910538  37.6439238   5.4069144  97.6595592  36.2684011   5.3955132
  80.6095409  19.1375780  33.5547614  80.0118828  18.3967626  33.6559224
  80.6371784  19.5430875  34.4213796  72.1445924  18.4868278  63.1041880
  72.2950631  18.7945260  63.9980097  71.9917565  19.2851152  62.5986119
 114.1880500  98.2353961  13.0196393 113.4764087  97.6416134  12.7804303
 114.1042053  98.9679038  12.4092019  62.2192669  13.3197260  46.1506319
  62.9078722  13.9667213  45.9974909  62.5848341  12.4984682  45.8218050
  67.6110697  31.6148663   3.8563976  68.4205580  32.0978165   3.6898923
  67.7581120  31.1839843   4.6983898  98.4157562  54.5607185  43.8116360
  98.9364147  55.1843309  43.3054161  98.9844131  53.7968445  43.9083815
  31.4204288  48.9815378  34.6733975  31.5869856  48.1187963  35.0530934
  32.0554662  49.0563869  33.9611101  70.9938574  29.6702147  18.6698818
  70.7006979  28.8394523  19.0442085  70.3680420  29.8510003  17.9685247
  78.7826918  90.4558467   5.1167226  79.2208178  90.4090201   5.9664786
  77.9005709  90.7676326   5.3189212  63.7491941   5.2963877  47.5319767
  64.3126774   5.5339450  48.2683754  64.2711401   4.6779510  47.0207644
  93.4007072  42.1390629  39.0699840  94.3269253  41.9979763  38.8739061
  93.2980156  43.0907393  39.0693569  46.9342613  39.5832753  12.6040733
  46.2491083  39.9597836  12.0517695  47.7515459  39.9108458  12.2286069
  12.7455902  33.7617278  12.8214967  13.4846306  34.3699408  12.8101707
  12.7617669  33.3814859  13.6997819  29.7383672  99.6778738  45.2276945
  29.4615966  99.7588753  46.1404228  29.6710521 100.5660783  44.8772764
  43.8567239 109.0316161  27.4255228  42.9314118 109.2695647  27.3671961
  44.3116551 109.7173988  26.9366741  66.2280798   2.3900574  36.3261199
  65.8928347   2.9284027  35.6091619  67.0741796   2.0718578  36.0113263
  99.7545528  45.4515123   4.8468566 100.3000450  45.9494066   4.2379436
  99.1481495  46.0977840   5.2085662  60.2020550  34.0677738  24.2869997
  61.0258293  34.3974566  24.6460843  60.4075766  33.1808829  23.9913344
  41.3659763  42.3445606  24.3115020  40.9817886  43.2169628  24.3983483
  40.6161070  41.7498779  24.3282080  86.3824480  37.4834014  93.4917505
  87.0022648  38.1171561  93.8528815  86.7488354  36.6304136  93.7249944
  74.4187062  54.7421067  87.0810606  74.6192592  55.3584664  86.3767095
  75.2745407  54.4468857  87.3918994  50.3074312   8.9253730  45.0102091
  49.5686340   8.6421961  45.5489302  51.0606050   8.8920110  45.5999947
  87.3811643  70.3263224  90.3024806  86.4433544  70.1717210  90.4158135
  87.5047558  71.2422121  90.5516850  60.1581430   7.1446276  51.7506218
  59.7230625   7.0478058  50.9035349  61.0918951   7.1560544  51.5403700
  78.5613537  44.4337511  35.4697609  78.4319925  43.5134506  35.2405357
  78.6424017  44.8812628  34.6275020  71.6849709  10.4051769  13.4286261
  72.4964333   9.9494851  13.2047808  71.8146563  10.6957626  14.3313849
  76.7206526  27.1774268  31.6371965  76.2529039  27.3032880  32.4627852
  77.3228025  27.9198384  31.5874791  11.6209948  60.6096900  91.4077799
  11.2108862  61.0356779  92.1604918  11.0852110  59.8320661  91.2513663
  47.3564321   5.8267917  79.1356190  47.0054990   5.5264653  78.2972403
  46.5831643   5.9716930  79.6808525  52.8402758  11.2575829  16.8120229
  52.5103283  10.9849012  17.6681828  53.7038469  10.8498132  16.7471766
  17.3340493 105.0546162  18.2208550  17.0952064 105.5403601  19.0103102
  16.5376884 104.5807414  17.9810894  74.1619444   4.7150630  21.8087530
  74.0477705   4.6432450  22.7564025  73.8756943   5.6042200  21.5997243
  94.3347454  16.5675116  11.9113743  94.8720169  16.8429005  11.1685896
  93.9297009  15.7493365  11.6237032  85.3670692  25.0160742  34.9089956
  85.8905411  24.4900060  35.5135322  85.9224701  25.1160693  34.1358495
  41.2166452   3.5190487  39.7567892  41.2287092   2.8685096  39.0547323
  40.8840704   4.3143424  39.3406963  64.8402596  34.3128228  41.6255713
  64.4825172  35.1994896  41.5799713  64.3591213  33.8257337  40.9566307
  64.0338564  25.8249354  27.2407389  63.1965494  25.8159256  27.7044988
  64.4271278  24.9752903  27.4399209  26.1181193 109.7567665  25.3827381
  26.2481719 110.3035602  24.6079254  26.2665731 110.3479638  26.1207628
  28.0426055  92.3338400  18.2254148  27.2264701  92.8228735  18.1205010
  28.6582881  92.9704474  18.5885859  57.5830269  31.7322397  36.2072253
  57.5799847  31.3806438  35.3169417  57.6589870  32.6792502  36.0904837
  73.0953693   8.0808401  46.7798662  72.7999830   7.8534043  47.6614857
  72.4065876   7.7495915  46.2035942 105.9731691  98.6855460  86.5083762
 106.5503710  98.7009431  87.2718109 105.0916355  98.6216021  86.8758561
  65.8429813  45.4809380  31.2592101  65.6220102  46.3454390  31.6056848
  65.5793667  45.5168724  30.3397274  13.9261222  21.8657470   4.2526802
  14.6256661  22.2985673   3.7632567  13.1704521  22.4447751   4.1530791
  45.8686256  25.1058960  28.7895083  45.7730103  24.4533610  28.0957580
  45.9647512  25.9371924  28.3248186  70.9619981  96.8861448  20.4520154
  70.7708055  97.7884792  20.7078862  71.5887147  96.5790938  21.1071348
  26.7564326  90.8524786  25.0136232  26.8529254  91.7830800  24.8113799
  27.5177270  90.4387712  24.6068025 110.4267567  34.0133692  80.8146341
 111.1583727  34.5448590  80.5008026 110.8153122  33.4343482  81.4703711
  88.8238924  76.0332347  93.7217231  87.9537695  76.1957384  93.3574203
  89.0294044  75.1357842  93.4598535  51.1213970  17.5199580   7.5735223
  51.7365742  16.9876015   7.0691586  51.5767431  17.6969409   8.3966672
 112.5915115  78.2806683  81.7988081 112.7380245  77.3676277  82.0460327
 111.6928308  78.2984520  81.4697321   2.0862925  82.7629567  94.1309327
   1.4854061  83.4894205  93.9653571   1.5606844  82.1215988  94.6090840
  80.2253216  74.1603006  78.3283933  80.1079338  74.3757678  79.2536099
  79.4632023  73.6244429  78.1087001  21.2504351  51.1641738  73.5678192
  21.6231405  50.5764595  74.2250200  20.8056509  51.8416945  74.0770979
  71.4845371  32.6482010  58.4561825  70.9817982  32.6013184  59.2693758
  72.3827124  32.8193760  58.7394047  62.4812508  22.4412537   0.4988141
  62.2916126  22.4689603   1.4366323  61.9058847  23.1049371   0.1184017
  53.5493326  10.0552261   4.7681272  53.9116335  10.3259075   5.6117523
  52.6019669  10.0500548   4.9048817 113.3604872  94.4709348   9.6033508
 112.5523459  94.4938551  10.1158106 113.8383686  93.7144887   9.9434221
  61.7016649  29.5850921  24.9364281  62.2905874  30.3113031  25.1414227
  60.8882904  29.8001480  25.3929353  96.9689434  74.9452639  72.1791454
  96.6402691  75.6901932  72.6824232  96.6636818  74.1769171  72.6615258
  34.6157104 108.6678759  47.1716642  35.4698926 108.6241761  46.7419100
  33.9839774 108.6260768  46.4537525  99.4993817  76.9864737   5.2639151
  99.6003615  77.5249135   6.0488474 100.2162802  76.3541423   5.3133690
  19.7401172 108.0301667  32.0588136  19.5609838 108.1563643  31.1270308
  20.1544219 107.1687078  32.1085382  76.6157198  21.1813474  31.1935902
  76.4509964  20.6186152  31.9501805  75.9350395  21.8526125  31.2416434
  30.9280849  14.0302837  22.8430414  31.1170888  13.9328051  23.7763190
  30.3508210  13.2949293  22.6374865  52.6879740  56.1215162  10.4833031
  52.0346403  56.5338898   9.9182039  53.5158110  56.5297461  10.2298117
 106.3778305   9.4625962  26.6258812 106.8829632   9.3676901  25.8183742
 105.7096958   8.7792581  26.5721607 101.7300797  73.7661219  33.3919263
 101.0141850  73.2311583  33.0490756 102.5241566  73.3026123  33.1257653
  23.5417533  38.1192303   7.5164115  22.9253435  37.6982522   8.1156158
  23.2900667  39.0427208   7.5236976  44.7450924  15.6959009  13.6548519
  45.3820944  16.3548279  13.9310408  45.2715492  14.9204040  13.4607303
  68.6128712  32.4528122  35.4944682  68.3151960  33.3598328  35.4242301
  68.7209511  32.1653175  34.5878839  56.6825438  43.1128502  14.3894148
  56.0002041  42.8909588  13.7558496  56.3431311  42.7978325  15.2271461
  46.3475990  24.6179700  12.8354800  46.2876511  25.4259086  12.3257029
  46.2943125  24.9053645  13.7469614  65.6563187   7.9422212  26.1631370
  66.5585184   8.1490982  25.9192848  65.1260185   8.3190417  25.4609823
  85.2066612  26.1838722  30.1612449  85.1720905  26.9390583  29.5741081
  84.2895794  25.9854770  30.3505445  27.3313123  97.7059840  22.7718449
  26.8257886  97.8571760  23.5704803  27.3042756  98.5434698  22.3091173
  27.5604784  56.8893344  85.6000497  27.0013678  57.6548786  85.7326015
  28.2870924  57.0148543  86.2103923  22.2020113  77.6200319  85.9214159
  23.0513537  77.3788310  86.2911232  22.3049032  78.5357500  85.6623621
  32.4078733  23.1035032  81.0093256  32.7021819  24.0119590  81.0750599
  32.4901849  22.7600993  81.8990047  34.4835448  46.2840796   6.4779216
  34.9471283  46.4698696   7.2945023  33.6902237  46.8175030   6.5261775
 113.3008289  18.2352591  20.7164431 113.6765099  18.0988741  19.8466790
 113.9797211  18.7065446  21.1993742  58.1685734  73.7586308  13.4952235
  57.9133320  73.0049324  14.0272212  59.0812111  73.5889244  13.2617188
 108.0653398 109.2734719  86.1383595 108.9413565 108.9510775  85.9264870
 108.1644504 109.6918774  86.9935484  86.4172745  29.9179006  45.9661579
  86.7228127  30.0060534  46.8689919  86.9712543  29.2330122  45.5916214
  44.0298128  12.8023255  36.6579390  43.5742569  12.3483825  37.3669100
  43.8515091  12.2726369  35.8808470  55.5375385  44.0959406  30.1656055
  54.9073744  44.7424459  29.8475552  55.3344822  43.3009195  29.6727133
  60.9110117  14.0366542  16.3553691  61.4355659  13.9655817  17.1528792
  60.7957315  13.1324708  16.0631442  69.6472120  24.9176073  32.9082513
  68.9509153  24.8453784  33.5610819  70.2324152  25.5906916  33.2557082
  68.0431890  41.3159657  48.1807280  68.3926964  42.1899176  48.0067062
  67.0965290  41.4442015  48.2409143  70.7035685  18.4028959  27.2791982
  70.1747799  18.2840645  26.4902163  71.3985443  19.0050125  27.0133066
  55.7700348  35.2977681  22.8154445  55.5966854  36.2035489  23.0718422
  54.9413919  34.9900317  22.4481821  68.9773798  36.3798451   1.7098567
  69.0245962  35.4238319   1.7163861  68.6394167  36.5970278   0.8410390
 111.0013103  21.4047837  28.2275033 110.1403999  21.8213320  28.1879663
 111.1864948  21.3259554  29.1633034  84.1441250  38.0665827  17.6994979
  84.0294361  38.9901280  17.9234195  83.8297844  37.9978824  16.7979991
  75.9816074  36.1097574  35.1374078  76.0119390  37.0584226  35.2612805
  75.0538540  35.8875394  35.2156210  62.8050375  45.5294800   2.6416200
  63.1086636  46.2354994   3.2122153  63.5576391  45.3315449   2.0842622
  84.9112034  42.4079037  16.5283716  84.9127674  42.2507906  15.5841565
  85.7663059  42.7989721  16.7075229 101.6464996  36.8889856  46.6941547
 102.0982170  37.2496486  47.4571133 100.9223747  36.3823771  47.0618725
  38.7550235  57.1168137   3.1765142  38.2056117  57.5309372   3.8420057
  39.3499160  56.5547419   3.6729109  13.3483469  69.0515543  62.8184362
  13.5298597  69.3788696  61.9374438  12.5185167  69.4627131  63.0604525
  60.6656122  15.5666637   9.5648688  61.5340996  15.2726245   9.8396510
  60.7662153  15.7756495   8.6361951  75.7099247  41.8958712  24.9540091
  75.7419872  40.9946156  24.6331644  76.4474964  41.9605207  25.5606747
  82.4369526  37.6477647  41.9710541  82.6409626  37.2403669  41.1292458
  81.5151024  37.4383807  42.1213150  64.0490866  40.3382635   4.9460840
  63.3376694  39.9241590   5.4345846  63.6415863  40.6298923   4.1305310
 102.9863739  35.1045752  15.9878993 103.9208412  35.2590013  16.1262941
 102.6313782  34.9793983  16.8679810  56.7445946   7.2666234  42.7269459
  56.0538149   6.6547620  42.9812670  57.2664738   6.7852712  42.0849371
   0.6029379  85.3658891  64.7621246   0.0320875  85.9920550  64.3168374
   0.7864535  85.7701183  65.6101509  82.8969479  46.9748354  52.6699448
  83.3244133  47.8218985  52.5434828  82.2662354  47.1275139  53.3735943
  78.1439400  59.8978043  26.6987419  77.2089052  60.0035572  26.8741345
  78.5759258  60.3795242  27.4041247  62.4646616  31.9173408  37.4825239
  61.5273952  32.1112967  37.4703717  62.6810074  31.7236423  36.5704346
  79.1226006  44.6975946  19.0701890  79.6039152  45.4726696  18.7806630
  79.6230555  44.3702173  19.8175859 104.2998314  25.5026579  37.2859359
 103.6977482  24.8666549  36.8996382 105.1474380  25.0579286  37.2905421
  47.6788187  41.9404411  10.9858060  47.5941086  42.7956867  11.4072478
  46.9173288  41.8812561  10.4088652  67.8431361  98.4726573  78.4904166
  67.7266662  99.0448380  77.7319487  68.7681740  98.5634185  78.7191053
 113.5524618 105.8242594  55.0640440 112.7318131 105.9577604  54.5897579
 114.0890157 105.2983060  54.4709873  76.1312103  60.7434702  24.5346546
  77.0419025  60.5260229  24.3356848  75.9066629  61.4310360  23.9077067
  95.4228371  98.5160638  94.5714102  94.7618454  98.7536002  95.2217145
  95.4447477  99.2599440  93.9694180  78.2272482  33.5050893  12.1597457
  79.0707922  33.8517308  12.4504471  77.5957775  34.1861343  12.3913789
  58.2449436  24.8101640  21.3402200  58.5338354  24.3267107  20.5662394
  59.0313530  25.2602053  21.6488504  82.9195690  43.9367294  12.8514755
  83.2256699  44.0625668  13.7496424  81.9714355  44.0578651  12.9023743
  65.7180309  43.7029457   4.9683532  65.4683590  44.1629505   5.7697833
  66.1322308  44.3741894   4.4260424  48.8351327 105.7991694  32.3848319
  47.9403573 105.4833688  32.2588801  49.2896348 105.5594700  31.5772367
  84.7360325  20.6140375  30.5688763  84.7848225  21.4271450  31.0715795
  83.8245964  20.3342414  30.6538534  75.9040022  54.4671249  30.3696966
  75.2047014  55.1195097  30.3296351  75.6178379  53.8503361  31.0434294
  42.4742490   3.8708915  94.1826874  41.7652684   4.1070308  94.7808600
  42.8341371   3.0615176  94.5454953  93.7708664  73.3720160   5.9174711
  93.7513065  74.3290138   5.9159863  94.2178726  73.1428528   6.7322707
 104.2415684  47.8295977  93.7182497 104.6146458  48.4155787  93.0597136
 104.9646156  47.2514827  93.9615934 112.6961994  67.2083902  12.8634143
 113.0799580  66.9211912  12.0348704 111.7570019  67.0569515  12.7576077
  18.2720119 108.2248180  11.0405362  18.3518630 109.1728274  11.1460531
  17.4103194 108.0154510  11.4009380  82.1911716  58.6720324   5.8321732
  82.7329254  57.9481316   5.5180144  81.7043972  58.3043289   6.5697873
  44.7932416  76.4542305  51.4305305  44.8422032  76.4674984  52.3863840
  45.6009656  76.8801080  51.1433935  91.6194885  57.9012275  87.4162187
  91.2438410  57.3284950  88.0848725  91.3313740  58.7797654  87.6639958
 100.2743912  21.3282609   0.6976567 100.6807518  22.0384741   1.1943474
  99.4953156  21.7242718   0.3072213   6.9934904  86.6586543  80.4431911
   6.8989145  87.5780726  80.6921025   7.9212343  86.5630437  80.2277990
  78.4265375  55.3915453  34.5354605  78.2670879  55.4215813  33.5921121
  77.8421354  54.7042656  34.8553872 105.0773542  75.8322716  91.5630417
 105.4542892  76.6640378  91.8499489 104.1667431  76.0411549  91.3547488
  93.9122963  23.3248281  12.0821857  94.4567394  22.6183224  12.4295545
  93.0153656  23.0554819  12.2801697  90.7055664   1.7361547  15.0355840
  90.9192371   1.3132003  15.8672607  89.7572803   1.6357328  14.9524856
 115.2227974  71.7795706  35.1031137 114.7807503  72.4534035  35.6196141
 116.1503315  71.8859386  35.3142953   6.5187037  74.9703956  86.6726680
   7.3875963  75.0236834  87.0706721   6.4675963  74.0790404  86.3275506
  68.9838648   7.7792877  14.1569722  68.5667467   8.6053282  14.4017160
  69.7794390   7.7460903  14.6881902  48.3913469  41.3669300  17.3489177
  48.1695366  42.2504473  17.0549250  48.5443306  40.8769989  16.5409613
  81.6159630  34.0255260  31.6327477  81.8695068  33.7927747  30.7395649
  80.9539127  33.3764291  31.8706417  57.1637917  19.8719025   0.5622560
  58.0644321  20.0430727   0.8375288  57.0269775  18.9441276   0.7539551
  77.6232195  66.8543243  43.0531120  77.4972391  67.2507000  42.1909952
  78.5169125  67.0937300  43.2985210 112.6000977  62.7240372  36.2773156
 111.7401123  62.5062847  36.6368103 113.1947231  62.0898581  36.6779089
  97.8703659  66.5058244  88.5372259  97.8764837  66.3759304  89.4855519
  98.0471628  65.6374634  88.1753917  64.6465921  45.3814983  13.2273734
  65.4939556  45.1999474  12.8208661  64.6397877  46.3303423  13.3533955
  92.0936871  11.3668311  31.6156602  91.3637257  11.9668114  31.7686677
  92.5874615  11.7678678  30.9004045  86.5687561  39.4573808  45.9581137
  86.3994312  40.1219940  45.2903986  85.8279514  38.8550758  45.8898258
  89.0643883  44.8660707   8.3966166  88.6042309  45.5570745   7.9201740
  88.6849880  44.0525198   8.0643225 106.7437523  86.2490106  83.6042758
 106.1041468  86.1886192  82.8947063 107.5907629  86.1329962  83.1737538
  81.8324184  26.6946959  47.7747536  81.8591213  26.0722709  47.0480442
  81.9119835  27.5528121  47.3581791  73.8949633  15.3162408  15.0789058
  73.2058430  15.9783840  15.0249767  73.5116720  14.5381236  14.6741176
 107.8096867  69.1120052  29.9856687 107.6124954  68.3140755  30.4762363
 108.2113075  68.8012266  29.1742826  70.3340149  21.6871405  32.7435017
  70.9377909  22.4072814  32.5616002  70.8890581  20.9074593  32.7594471
  88.2151508  52.6225805  10.5485833  88.7018394  53.3315849  10.9689248
  88.5156918  51.8296623  10.9926438  19.5321047  72.1451677  79.4819553
  19.9275744  72.4479855  80.2993508  19.8463404  71.2465192  79.3823643
  32.5301480   6.6954869  26.8865418  31.7126799   6.3878757  27.2781444
  33.2116675   6.1824471  27.3207664  69.2347145  15.8918047   1.6658521
  69.6025229  16.1703968   0.8272007  68.5156822  15.3059316   1.4292535
  67.0579386  60.1793814  24.1366839  67.2780848  59.8277187  24.9992967
  67.3123503  61.1010504  24.1817188  17.8616678 106.1672736  92.2336497
  18.6004221 106.2044907  92.8411745  18.2645857 106.0476924  91.3736554
   4.4041502 107.0911170  94.8574280   4.5935118 106.2480069  94.4456687
   4.4161379 106.9070149  95.7966805  82.7195740  53.7490273  13.6275876
  82.0102024  53.3938789  14.1632140  83.2297707  54.2876673  14.2324018
  99.6192551  28.0980897  43.4869862  99.6539879  28.0627251  42.5310707
 100.2506638  28.7771130  43.7246418  38.3754015  10.2100873  39.0951061
  38.4263253  10.1048326  38.1450748  39.2542076  10.4886377  39.3526721
  72.2254705  65.0767326  20.8732247  71.7694473  64.5865297  20.1891375
  72.7823305  64.4272614  21.3025475 104.8688572 100.7922793  60.4774232
 104.6829241 100.8423377  61.4150568 104.0352886 101.0023452  60.0563999
  80.2500248  52.4434090  51.6843843  80.8004475  51.7909479  52.1174526
  80.3060341  52.2246408  50.7542038  28.0105114  22.3793674  14.9579144
  27.1370459  22.1271515  14.6584535  27.8500462  22.9978681  15.6706119
 100.1363373  31.6912818  30.0939560 100.0043106  32.0788431  30.9591699
  99.2618561  31.4158702  29.8189044  42.2678328  40.9470749   8.3204496
  41.9685078  41.4819670   7.5852466  42.8164911  40.2733850   7.9187655
 105.5386448  11.4098728  13.3618641 105.9708786  10.6472564  12.9773772
 106.2394619  12.0526659  13.4710085  13.0849230  42.3041177  92.9580401
  13.8839972  42.6718438  92.5805707  12.3886931  42.5831593  92.3633690
  93.4228533  58.3226822  74.8356910  93.5969608  59.1965676  75.1853223
  92.5980156  58.4154058  74.3589564  60.2503490  23.1615448  52.9442453
  59.9079609  23.5288501  53.7591600  61.1885691  23.3490849  52.9725790
  38.3436739  87.6564718  93.2031021  38.5840952  87.9824639  94.0703724
  38.8240015  88.2178975  92.5945677  92.4889183  53.9652443   4.2795467
  93.2230663  54.4090986   3.8549766  92.0648193  53.4758949   3.5746285
  71.1470127  47.8364325  16.3021004  70.7785130  47.6844692  15.4318428
  72.0667887  48.0457354  16.1395276  80.4953098  51.8533325  24.5716071
  80.0171947  52.2966671  23.8708258  80.3956223  52.4281883  25.3304434
 106.6309643  47.6034307  18.5279012 106.9994545  48.4536505  18.2879674
 105.8307552  47.8161287  19.0081739  74.3230200  39.2518115  18.9491487
  75.1265860  39.1813469  19.4644630  73.7774849  38.5275769  19.2559171
  85.3144741  32.5336528  33.1320047  84.9082088  31.8857288  32.5563550
  85.4185677  32.0793939  33.9680934  74.5079184  36.5401816  10.2344596
  74.3816423  37.0015264   9.4053370  74.1273212  35.6743407  10.0871599
  36.1127543  53.4622002   1.0789707  36.8526196  53.5740328   0.4820417
  35.8104324  52.5678825   0.9207750  67.7331972  12.3599398  29.8610282
  67.8402805  11.5008426  30.2693367  67.3814297  12.9140866  30.5577445
  36.2325692  37.8758216   4.4197023  36.4066243  37.9527259   3.4816071
  36.3990617  38.7521863   4.7668269  70.4636383  64.0425730  11.4980781
  70.8397579  63.1631184  11.5344739  70.9395170  64.4774961  10.7905388
   7.8172838  74.3589271  95.1253272   8.1488669  73.4612144  95.1053325
   7.0256292  74.3338776  94.5878457  84.7609711  48.9161491  14.2041850
  85.2072048  49.7554302  14.0914237  83.8409710  49.1489410  14.3292630
  65.5290842  25.0236917  31.0404730  65.7338810  25.8590341  30.6203628
  66.3612556  24.5508289  31.0516214 109.3552208   6.7691004  58.7216759
 108.4764767   6.4108342  58.8469028 109.8318863   6.0787553  58.2607603
  78.6143732  29.5073462  40.4599571  77.8593683  28.9524484  40.6556225
  78.8457727  29.2874575  39.5575523  66.5515947  25.3338337  15.2062702
  66.8506098  26.1908603  14.9024153  66.3463306  25.4660845  16.1318016
  88.3756733  74.6701527  25.9839439  88.5142612  75.4152393  26.5686369
  88.4520817  75.0388336  25.1039052  50.5848503  58.7249899  18.2245076
  50.5162621  58.8481283  17.2777414  49.6908951  58.8408041  18.5464835
  75.4503202  30.7528901   9.4303018  75.1302624  30.5609560   8.5488498
  75.7631254  31.6561437   9.3801355 101.3286591  16.1509824  37.4582911
 101.7838097  15.4672563  36.9667745 101.6298676  16.9698274  37.0646000
  84.7445202   2.0326172   0.3011288  85.1453400   1.6729054  -0.4901873
  83.8798809   1.6236849   0.3387817  54.2280483  13.5512662  40.2706861
  54.6872902  14.0487301  39.5940328  54.4996262  12.6446688  40.1273060
 103.7726848  58.3092604  74.9119349 103.1204145  57.6455063  74.6878667
 104.1725700  58.5443423  74.0746422  95.9031868  29.8539352  67.8993273
  95.4885960  30.2846289  68.6468887  96.0281849  28.9485145  68.1836128
  42.0955181  44.5351648  21.3463593  42.0934439  44.8533583  22.2491217
  41.1836672  44.6082449  21.0645509  24.6645474   7.1557319  49.8027945
  24.6520710   8.0463779  50.1532602  23.8078904   7.0490354  49.3892860
  76.7077589   1.5657741  24.2336440  77.0077944   1.3678028  23.3465028
  76.5203333   0.7101326  24.6196222  68.5618877  46.8753004  18.1445539
  68.3116817  47.6286173  17.6096344  69.3603849  46.5442371  17.7334142
  58.2348299  39.3487811  12.8996587  58.5031271  38.4302068  12.8780568
  58.9831066  39.8253775  12.5402641  67.7333164  23.7637973   8.2498777
  67.7891302  23.0839586   8.9213955  66.8052197  23.7956071   8.0178171
  89.4322872  21.7541337   7.0987868  90.2950573  21.3404202   7.0724428
  88.8345242  21.0463643   7.3395729  80.2302742  40.6566095  24.9688077
  80.1925755  41.6019630  24.8234940  79.7512245  40.2814150  24.2299104
  89.7678375  45.0767756  52.3156786  90.5331135  44.6124935  51.9765234
  89.7652340  45.9101915  51.8448830  39.1787654  95.0882374  30.6884861
  39.0528804  94.1407823  30.6364012  39.8547679  95.2036869  31.3562608
  63.2477570   7.8031105  58.1259155  63.0695486   7.7466059  57.1871519
  64.0042925   7.2324300  58.2608652  70.1792145  15.0461006   8.6727911
  70.1475811  15.6131983   7.9023159  70.0192213  15.6349158   9.4103074
  77.3664379  23.1195784  47.9484606  77.5528908  23.1037760  48.8871956
  76.8869209  22.3072743  47.7858019  47.7503204  36.6307974  28.1240916
  47.4359560  36.2056661  27.3261762  47.1214008  37.3343706  28.2843304
  97.0590115  40.4542494   1.4470853  97.5503254  40.1308203   2.2022225
  96.6107845  39.6811914   1.1040077  83.9875793  56.6271496  26.9799280
  83.8161182  55.6865692  26.9336557  83.9366341  56.9248629  26.0716319
  46.4649010  42.0199871  19.3070507  46.8257809  42.8053617  19.7183657
  47.2043848  41.6342688  18.8373542  92.9589939   9.9528140  59.6340370
  93.7923622  10.4234838  59.6199751  92.3317337  10.5867314  59.9817801
  79.3735838  22.5130558  41.3768911  78.5749245  23.0024457  41.1797380
  79.1981840  22.0987082  42.2217464  63.3377123  46.9495249  20.7343912
  63.3654356  46.8016148  19.7890961  63.0455732  47.8563929  20.8264542
  91.8502045  16.3310349  55.4503059  90.9060192  16.3218808  55.2932978
  92.2143936  15.7867968  54.7521591  10.7901615  29.6507311  43.5414934
  10.6072659  28.8261437  43.0911207  11.6018624  29.9658704  43.1439161
  77.9548216  32.6788926  31.2193727  77.0725012  32.3260140  31.1044049
  77.8976536  33.2135081  32.0112991  69.4773865  55.0133038  38.9806747
  70.3400517  54.9155903  38.5775781  68.9757156  55.5303907  38.3504534
  91.5869331  18.1361508  23.3065462  92.5275803  18.1954491  23.4735942
  91.2021255  17.9571211  24.1645098  94.1460037   9.7478646  32.8888702
  94.8185444   9.7286344  32.2080302  93.4844875  10.3538239  32.5550342
  99.2025375  21.2726903  21.4758372  99.8443985  20.5739737  21.3491845
  98.5032177  20.8656979  21.9872522  60.6763506  38.8179445  20.8056045
  59.9652672  38.6454678  21.4227295  61.2645912  39.4079995  21.2768197
 116.4623070   6.0817909  35.5288672 117.2236633   5.5337089  35.3386784
 115.7404709   5.4616421  35.6317782  27.2616887  45.3720045   4.9567035
  28.1124210  45.7611799   5.1592577  27.3816299  44.4363022   5.1188964
  55.4465342  22.4498963  29.7728372  54.6686506  22.4881864  29.2163634
  56.1667013  22.2776794  29.1662645   5.3951037  91.5418483  83.0766483
   5.7511866  92.3904825  82.8134771   5.0321924  91.1740900  82.2708698
  94.4318121  55.5037600  94.8614430  95.1453035  54.8750025  94.9702117
  94.6748274  56.0100536  94.0863019  85.2380865  98.1330252  81.7438658
  85.5518072  97.3401929  81.3088580  85.8941954  98.7973881  81.5332170
  77.4470520  68.6790562  84.3169117  76.5329742  68.4251070  84.4442177
  77.9110336  68.2809734  85.0534439  52.7111149  63.5269547  23.8871622
  53.1679916  62.8662205  23.3666611  51.7832518  63.3193254  23.7767434
 109.0827625  96.2698889  75.0309582 109.1849392  95.3630591  75.3198381
 108.3933657  96.2338019  74.3678923  91.2458038  25.8931708   3.2452026
  90.8188248  25.6480289   4.0660709  91.2535191  26.8502808   3.2557493
  77.8198004  19.0172517  21.6215110  78.7070084  18.7036383  21.4461851
  77.9336500  19.9374259  21.8593097 100.8139818  70.2344907  80.8827324
 100.8991545  71.1411012  80.5877169 100.2986734  70.2918506  81.6873451
  54.9932957   6.3361299   7.4600142  55.8955431   6.4777827   7.7465636
  54.8129559   5.4220808   7.6796138  14.0246546  99.0878058  77.6381047
  14.4421732  99.8692656  77.2758348  13.5491812  99.4045068  78.4061237
  95.0512791  43.8314772  27.3777270  95.3876591  43.0870771  27.8766751
  94.5586395  44.3456078  28.0174208  43.0498695  54.1164207  21.4357710
  42.2046566  54.5656919  21.4372015  42.8404760  53.2114601  21.6669250
  34.6320945  11.3504590  88.6272218  34.9501544  12.0612134  89.1839059
  34.8862248  11.6082181  87.7410998  90.5018616  20.3191376  13.3734179
  90.0038242  19.9445724  14.0999830  91.0807800  19.6115291  13.0899084
  25.4714233 107.9265260  27.3459125  25.6471091 108.5826508  26.6714740
  26.2693387 107.3989170  27.3804069  77.2740364  33.7217283  42.8827190
  76.6231060  33.5523582  43.5637760  77.8279161  32.9410577  42.8813314
  95.3394811  49.3219227  82.0071002  95.1454084  50.2493254  81.8711169
  96.2784164  49.2982674  82.1916874  63.4145117  27.7305341  44.4023037
  63.9470291  28.0013824  43.6544418  64.0513611  27.4894905  45.0750256
  67.1542215  46.0963726  34.4807005  66.7378569  46.8213987  34.9467587
  67.1108198  45.3617620  35.0928211  62.8161430  38.3071303  25.4756045
  63.1677008  39.1823196  25.3122473  63.0588150  38.1168365  26.3817668
  78.8021374  15.1535237   8.9424205  77.9782486  15.1201546   9.4285542
  79.4147778  15.5841136   9.5386589  82.7769756  41.4523458   5.4738355
  82.3060417  41.9854927   6.1143172  82.9321766  40.6209469   5.9220690
  91.1730480  13.8483977  13.8760543  90.6580162  14.6547890  13.9027512
  91.2887096  13.6075401  14.7952056  74.5944452  33.9279747  40.7829857
  74.8005295  34.4681668  40.0201225  75.4477358  33.6917925  41.1467791
  81.8940449  25.9384799  15.6152439  81.7126083  25.5267549  14.7703815
  82.5434875  26.6134834  15.4181802  60.7767582  14.5553076  30.1378036
  61.5192509  14.4213176  30.7268548  61.0802412  15.2173519  29.5166540
  50.5749893  18.5000730  35.1596212  51.1133337  18.9456463  35.8137441
  50.2872324  17.6966858  35.5932069 113.4004181  93.4405161  91.6400065
 113.3199995  94.0771175  90.9297224 113.2217806  93.9439941  92.4342539
   3.1141037  22.8206873  30.1079035   2.8760952  23.3287477  29.3323684
   2.5462288  23.1596875  30.7998800  84.9726009  38.0305076   1.6310883
  84.1039848  37.7213502   1.3738698  85.4298210  37.2426987   1.9252607
  52.8494453  54.2183590  12.4629200  52.6648140  54.9362278  11.8572712
  52.1722364  53.5679388  12.2769690 101.6473579  64.2828608  11.2416804
 100.9058666  63.7956285  11.6008854 102.4181271  63.8571978  11.6171193
  98.2532787  43.1823254   4.2247564  97.3767471  43.5340595   4.3803543
  98.8371372  43.9306355   4.3487740  89.0204716   5.6482071  39.0629077
  88.4356117   4.9682117  38.7285733  88.4659863   6.4247006  39.1393065
 100.4087162  80.2537632  37.0355010 100.7963085  80.3571892  36.1664152
 100.3225327  79.3071413  37.1482110  89.5281315  50.6522036  35.8832669
  88.6648464  50.3255939  35.6296849  90.0101948  49.8705053  36.1530542
  18.6263334  85.4248620  87.1998157  18.8611471  85.7525111  86.3316335
  18.7270415  86.1819220  87.7768357   3.6677801  94.0973187  90.4848407
   4.3944704  94.2032290  89.8708905   4.0242254  93.5519267  91.1860730
  29.7185063  27.0004416  32.3130918  29.4350433  27.3486471  31.4677334
  28.9120364  26.9230890  32.8228521  74.4051027  39.7230077  45.9906912
  74.9420738  39.4022918  46.7152786  74.5732689  40.6650114  45.9666109
  84.2110252  29.5403528  44.6146917  84.0842915  30.3594494  44.1358948
  85.0032711  29.6853995  45.1319456  62.2140408  38.0965924   1.5534747
  61.9245100  37.4585962   0.9012758  61.7190456  37.8744411   2.3420542
  77.9631233  82.5426388  29.1576147  78.4341717  83.3465195  29.3769526
  77.0503902  82.7332401  29.3740010  71.8539286   0.5172901  29.3910146
  71.3464689   0.1373589  30.1082087  72.5156498  -0.1442227  29.1891265
  88.5255718  23.9664388  27.6001310  87.8201675  23.8668442  26.9608235
  89.2333317  24.3874478  27.1122193 114.0096283  91.5364075  36.5324998
 113.5343552  90.9924698  35.9044194 113.8811970  91.0985184  37.3739243
  55.6217480  57.2949123  35.3021693  55.1802921  56.8647432  34.5698476
  56.0359240  56.5800095  35.7854962  81.7882156  60.2059317  16.9973242
  81.9991493  59.2838478  17.1439445  81.4938450  60.5229950  17.8511667
 116.0530376  60.3113794  26.7860126 116.3408279  61.1533594  27.1388197
 115.2711296  60.0937223  27.2934437  77.2649479  56.2423468  20.4607058
  77.7752495  56.9557285  20.0774193  76.8835115  55.7896757  19.7084904
  79.3430090  81.0894299   0.8110230  79.3189716  81.8903255   1.3346893
  78.4231138  80.8869743   0.6406278  62.7358800  27.2229852  78.8417740
  63.2966977  27.8886022  79.2401023  62.5936967  27.5334634  77.9475613
  70.3416300  65.2241564  25.1477599  70.8909988  65.8202362  24.6387291
  69.7287893  64.8592281  24.5094109  56.4509851   0.9759320  70.2201887
  57.0567876   1.2401761  70.9125801  56.5694505   1.6332711  69.5345517
   7.0140230 109.5228196  82.0901402   7.6939833 108.8568593  81.9882555
   7.4550116 110.2501727  82.5291331 106.7042255  52.5531864  12.2952938
 106.7812443  51.6229534  12.5073528 106.5606499  52.5720596  11.3491094
  30.8433592 106.6131306  87.6488026  30.4163134 107.4505521  87.8293355
  30.1685679 105.9573746  87.8244670  97.8957844  60.1162004  19.5637155
  98.7771988  60.4894781  19.5656252  97.6725197  60.0244856  20.4899812
 111.0561149 101.1544038  92.5589405 110.6666820 100.4907323  93.1282498
 110.8505123 100.8594990  91.6718151  62.7906495  27.2758092  71.6630884
  62.4362451  27.7060975  72.4412103  63.2638055  26.5166654  72.0037599
  43.8058519  58.4769869  41.6275454  43.7429333  57.7091074  41.0595369
  43.4374571  58.1881380  42.4624586  80.8109474  44.5763922  40.5070162
  80.2770710  43.9455271  40.9899330  80.7298470  44.3078756  39.5918345
  64.1153336  41.9893551  31.2301469  63.2954788  42.4806643  31.1784101
  64.7571611  42.6267242  31.5432763 106.7602730  86.2257862  26.5404463
 106.7157745  85.3662014  26.1216807 107.2497654  86.7683506  25.9221888
 103.5943430  86.7893506  95.2318699 104.3922298  86.7658830  95.7601255
 103.7000721  86.0725809  94.6063341  63.5196543  53.7607193  19.2840993
  63.1416750  54.3562651  19.9311602  63.1225967  52.9118681  19.4791210
  94.3887806  54.6644115  25.0008988  94.7999287  54.9872065  25.8027673
  93.4555912  54.6234322  25.2099681  85.9054947  38.2578945  14.6015406
  86.0240269  39.1610026  14.8957801  85.0037193  38.0443168  14.8411775
   0.4055828  71.7268133  21.1104107   1.1329979  72.1193027  20.6276512
  -0.0566726  71.1987591  20.4594779 103.6011887  44.5582962  21.6472363
 102.9198647  44.0702152  21.1848450 104.4052219  44.3606949  21.1669016
  78.6059046  35.7287621  16.8131661  78.8371992  34.8066235  16.9244897
  79.3542814  36.1096239  16.3537014 105.1034737  72.4466944  20.5873203
 104.2850590  71.9564247  20.6651878 105.4568481  72.4656820  21.4767027
  85.2222919  60.2664614  38.8145232  85.4695320  60.0907421  39.7223949
  85.3063488  61.2155390  38.7228036  77.2922516  29.1816735  22.4679446
  76.3924837  29.2455554  22.7882123  77.2451735  28.5566449  21.7445111
  75.5114126  83.7735844   0.4992108  74.7025919  83.5204506   0.0542752
  75.2817535  84.5691776   0.9793320  11.3455928   0.3072108  43.2437325
  11.3557113   1.0275973  43.8739586  11.5034831   0.7266749  42.3979521
  96.8767183  81.0413480  70.7951184  96.7051475  80.1350928  71.0510440
  96.4212053  81.1446095  69.9596067  78.0853796  32.1887732  71.0360622
  78.9986420  31.9150090  70.9509897  77.6009274  31.3722563  71.1578655
  58.3045846   0.1958312  92.1576496  58.5976201  -0.6903516  92.3698919
  58.7523156   0.7547082  92.7928044  67.9726362  19.7469079  41.8595886
  68.3113050  19.0449691  41.3038731  67.9804993  20.5219650  41.2979364
  67.6118040  61.1652851  34.2952108  67.6478672  61.9985056  33.8254452
  66.6797066  60.9503937  34.3305230  65.4677582  38.7545943  22.2945571
  64.7105789  38.4782410  21.7782760  65.3232241  39.6877861  22.4510694
  84.8965073  31.1631846  30.2736449  84.9489880  30.8658981  29.3652964
  84.1841507  31.8025494  30.2756238 101.3818169  57.5158596  12.3964036
 102.3353386  57.5393772  12.4768662 101.1998844  57.9661274  11.5715468
   0.9560246  72.4608946  33.6072254   1.6398281  72.4616814  34.2770386
   0.7136673  73.3819246  33.5112929 108.7162590  31.9772077  75.2069616
 109.1734886  32.8111267  75.3153849 107.8600597  32.1192408  75.6106806
  70.5423880   4.5309776  38.7277007  69.6247530   4.3306229  38.5432148
  70.5372477   5.4488724  38.9991307  70.2844095  38.7582994  34.5763683
  69.6604538  39.1860914  33.9899349  69.8824024  37.9135251  34.7787952
  82.7890491  63.1367254  21.7577171  82.4934196  64.0413809  21.6555834
  83.3419132  63.1521702  22.5389504   9.7806305  60.7826853   6.5308475
   9.6114964  60.0615597   5.9245431   9.3864292  60.4994345   7.3558354
  94.7136688  50.8685827  12.2714043  95.0624466  50.8703232  13.1627965
  94.4208908  51.7683983  12.1270120  76.2758046  40.9080304  56.6592284
  76.3947755  41.8529309  56.5630646  77.1119290  40.5952825  57.0046611
  26.0788041   8.1773509  93.0961013  25.9609729   7.8644122  92.1992077
  26.2637025   9.1117372  93.0014073 104.4051456  59.6074343  48.8851309
 105.2397919  59.2471218  49.1847563 104.0151310  59.9927521  49.6697664
  69.2925167  34.6986198  22.4758863  69.8921728  34.0642309  22.0832157
  69.4726896  35.5168438  22.0129848  74.2851925  15.2390587  32.9851675
  73.8076258  15.1961541  33.8136125  74.7554445  16.0719383  33.0226469
  63.1392622  34.8280573  13.2782745  63.0274343  35.3175664  14.0932012
  63.8299179  35.2970481  12.8100085  49.2942667  26.2631059  38.4682727
  50.1072598  26.6006184  38.0922937  48.6567450  26.3273215  37.7571630
  93.3598614  61.3537598  13.4087789  93.5903072  62.2824717  13.3837712
  93.7573147  61.0300446  14.2171526 106.2298489  37.1173358  57.1813774
 106.8286037  36.5770984  56.6657543 106.7650318  37.4449587  57.9042053
 116.0484331  97.7994681  93.7642345 116.1316269  97.2429467  94.5385679
 116.7885511  98.4036399  93.8228648  34.4571077 105.4174948  79.8092146
  33.7210905 105.4052544  80.4210670  35.0539648 106.0754729  80.1656588
  15.3752005 104.4454051  87.9508729  15.1027929 104.3271876  88.8608433
  14.5728838 104.6920491  87.4907859 111.2544727  21.9463730  31.3297129
 110.9714985  22.3178983  32.1652508 110.4766083  21.5055609  30.9878898
  72.5039101  47.2094774  36.8982482  72.4172974  48.0340099  36.4198375
  71.6629839  46.7699480  36.7721939  82.1593666  44.6425104  17.5115299
  81.4430904  45.1083612  17.0800519  82.9017735  45.2445459  17.4604249
  51.0869837  76.8124390  32.1604347  50.3124046  76.9561481  32.7041364
  51.8102980  77.1715975  32.6742935  81.4759827  88.5450935  20.9691668
  81.5802097  89.4550991  20.6911922  81.0646152  88.1118298  20.2213097
 106.7665577  63.2508945  17.4565864 107.2046947  63.1459141  18.3011246
 105.8599949  62.9928732  17.6233613  73.6164331  63.8478422  51.5241337
  73.6076403  64.7294235  51.1513424  72.7009678  63.6697865  51.7396450
  77.8087902  74.4184685  29.6266913  77.4344158  74.7672272  28.8177133
  77.7306175  75.1358747  30.2555394  88.5324574  36.1133337   3.5499787
  88.9243317  36.1246109   4.4232151  89.1884232  35.6868291   2.9985785
   1.0330689 102.4279023  93.4001295   0.9023487 101.4799643  93.3765580
   1.5768778 102.6137973  92.6346578  75.5323678  -0.1248847  83.4288486
  75.9500485   0.6540002  83.0612667  75.3359777   0.1136436  84.3348093
 103.4809017  36.9172645  19.7268546 103.0517292  37.3819804  20.4452419
 102.8039169  36.3370490  19.3786132  26.8517381  35.0275792  86.8729969
  27.3631602  34.6665944  87.5971319  26.1976176  35.5840291  87.2957595
  89.9441528  52.7629375  37.5593734  89.7179890  52.0586967  36.9518161
  89.9631214  53.5509253  37.0162773  99.0656662  60.3668118  13.8700056
  98.3637047  61.0162258  13.9117336  98.6127472  59.5236015  13.8794887
  17.0612681  85.6387521  94.8225135  17.4113142  84.8345257  95.2058102
  16.5298044  86.0244251  95.5189607  68.5344934  57.7279758   1.7144202
  67.7236366  57.3625040   1.3606134  69.0349007  56.9649935   2.0036995
  86.1565304  48.6430168  38.6361289  86.0961723  49.2503643  39.3735003
  85.8669949  49.1542292  37.8804421  45.0708008  37.6851797  27.8178096
  44.2353916  37.7253437  28.2833266  44.8303843  37.5011182  26.9097590
  99.0618515  40.9768105   5.7517064  99.8337841  41.1817551   6.2792856
  98.8570881  41.7949247   5.2989465  56.8614817  67.8379011  21.4264584
  56.0570669  68.2967949  21.1844707  57.4024487  67.8705263  20.6374550
  54.3021566   2.3031558  81.1245676  53.9398938   1.5711345  81.6237028
  55.0536614   2.5959481  81.6400846   7.0855755  54.3552971   2.1321018
   7.4101109  53.4659386   1.9908519   7.7196163  54.7492886   2.7312613
 112.5588512  38.9455342  38.8327861 113.0698681  38.8739562  38.0265760
 112.6819038  39.8519731  39.1146755 100.7016087  49.5720673  14.2427778
 100.6591415  49.8201370  13.3192575 100.9859753  50.3681517  14.6917915
  77.7100801  88.1224442  20.9625125  77.8175735  89.0672398  21.0722208
  78.5036039  87.8424931  20.5062461  83.0686188  30.0135279  25.3443909
  83.5754490  29.9185133  24.5379639  83.0059624  30.9593034  25.4778695
   4.8002875  85.3309012  88.8700004   3.9014780  85.1398898  89.1381331
   5.0370085  84.6056867  88.2918479  72.0737791  53.4921217  17.8312433
  71.2553883  53.9635992  17.6757598  71.9825506  52.6820564  17.3295462
  87.3576641  42.7537441   7.8959602  86.9995499  41.9856596   8.3409625
  86.9846725  42.7158785   7.0152378  76.0269213  57.1437931  39.6632171
  76.4964437  57.1977329  38.8308287  75.2051735  56.7033005  39.4465780
 109.8909950  54.4064617  23.4397626 109.4322300  54.1303301  22.6463437
 110.3387356  55.2143621  23.1886530  87.3172665  44.5362091  31.9838500
  87.7803707  43.9886808  31.3498330  87.1590233  43.9574623  32.7296662
  67.7003717  62.0332193  16.5974200  67.3388529  61.1900377  16.3243246
  67.7759981  62.5354719  15.7860911  85.7407665  34.4455004  13.7313008
  86.0653687  33.5883880  13.4552240  86.0804081  35.0532126  13.0743682
  81.4446735  50.4390335  34.3825650  80.7290268  51.0657883  34.4887400
  81.0168076  49.6342278  34.0902328   8.0096859  14.5270085  16.7362881
   8.1854100  13.9313519  16.0079014   7.3211521  14.0928721  17.2399557
  98.8374710  64.3656731  19.0036488  98.4990883  63.5206890  19.2998445
  99.5028973  64.1423798  18.3528256   7.5365507 106.9449712  89.0277054
   6.6594088 106.6144324  88.8337936   7.3944151 107.8465558  89.3160983
  43.7329149  69.4546604  58.8518429  43.6275816  69.8983002  58.0102253
  43.8842964  70.1623440  59.4783401  53.5877943  39.6044946  39.9076319
  54.0778399  39.0706348  40.5329943  54.1693115  39.6817160  39.1512561
  87.6588058  25.6885552   9.8556304  87.1830463  25.4815435   9.0512502
  88.3259201  25.0053215   9.9219066  52.0442563  11.4069976  92.2244699
  52.8906327  11.1019267  92.5513028  51.4578515  10.6600036  92.3443167
  11.8700087  89.3116785  92.0694514  12.7013933  89.7659231  91.9327219
  11.4363634  89.3439627  91.2167214  44.0008974  55.8472633  28.2989764
  44.8768806  55.7744169  28.6778903  43.8460064  54.9965525  27.8884506
  65.4681855  82.9990472  85.5320837  65.6210977  83.4574784  84.7058328
  65.7271653  83.6274137  86.2061198  86.8295193  45.1380348  15.6466019
  86.9321632  45.9270573  16.1787093  87.1050549  44.4239712  16.2214291
   5.0989020  92.2823168  95.2502302   4.5822584  93.0243302  94.9360156
   5.7834685  92.1706534  94.5905870  88.9690590  69.5131636  30.3765082
  88.6537266  69.6754694  29.4874334  88.3943748  68.8254261  30.7126474
  61.7841291  26.8304133  54.2714167  62.3609686  26.6859031  53.5213470
  62.1859598  27.5581789  54.7458887  77.6001120  49.3278170  35.7708788
  76.8987799  48.9892244  36.3274050  77.8752041  50.1385975  36.1988807
  98.6203003  41.6574383  38.4266114  99.2352009  41.3422489  39.0890169
  99.1766071  42.0037317  37.7288747  93.1317139  47.7036238  24.6972132
  93.7140179  47.3473883  25.3682184  93.1524563  48.6498976  24.8399258
 109.6261311  47.0586777   9.8787081 109.0795708  47.6343155  10.4136336
 110.3232193  46.7733812  10.4693866  67.0658875  50.4267359   9.2615026
  67.2876596  49.5362759   8.9892346  66.1110020  50.4260445   9.3280029
 105.9848802  95.8443309  83.2160266 106.1842459  96.3484908  82.4271603
 106.5223902  96.2455607  83.8989110  91.1728668  17.3221374  30.5686331
  91.0517788  18.1813598  30.9727430  90.8566856  16.7018199  31.2254977
  86.5727329  43.1388044  34.1967535  86.3065147  42.3249865  34.6246147
  85.9072018  43.7753868  34.4576406  72.4058485  54.9537897  33.1642032
  71.7747021  55.5620146  33.5488415  72.1810722  54.9318409  32.2340298
  53.4138089  22.9959382  86.7091896  53.0111676  22.2737350  87.1914114
  53.7577897  23.5754766  87.3889263 110.5819607  26.4405346  41.0143614
 109.9505329  26.8995452  41.5682888 110.8231449  27.0807528  40.3448963
 108.0896854  22.8966999  42.0150900 108.9525795  23.2803941  42.1713591
 108.2748318  22.0215058  41.6745234  57.3092651  42.8473043  24.0765166
  57.2987747  43.4612226  23.3421969  57.2629929  41.9833326  23.6670732
  76.7535400  39.6206331  16.1040115  75.8272362  39.8335123  15.9905636
  76.9719028  39.9570298  16.9731402  94.2550564  30.6678104  27.6184726
  94.7050285  30.6767750  28.4632635  93.3812237  30.3307843  27.8161097
   2.1313519  72.6951551  18.2080197   2.1312088  73.2601118  17.4353254
   2.0453877  73.2986736  18.9459980  84.1267490  55.5403614  43.2244205
  83.8583088  54.6726799  42.9222584  83.9187145  56.1232376  42.4942064
  90.3422897  93.2279158  88.5780688  90.7223909  93.6796165  89.3315406
  89.9476402  93.9254666  88.0547072  74.5627213  65.9147930  31.0939074
  74.1244173  66.7421961  31.2927222  73.8594580  65.3358078  30.7999158
  61.3438368  75.5533314  15.4107714  61.7387390  75.2360344  14.5986092
  62.0766783  75.9180832  15.9068871  69.6520519  74.4492149  26.6831422
  69.0157747  74.9158144  26.1412334  69.5742702  73.5350084  26.4103794
  71.3153172  60.1277494  26.2075400  71.8024874  59.5908642  26.8325591
  70.7461023  60.6718397  26.7517757  12.5343382  94.4422723  90.4547180
  11.7471659  94.8381687  90.0807513  13.2052195  95.1201535  90.3732492
 110.4402542  84.5551109  24.2809653 109.5604897  84.8727608  24.4843125
 110.8807373  84.5100784  25.1295996  65.5115271  44.2089701  26.1499405
  66.2855768  44.7705841  26.1090469  65.6876945  43.6108303  26.8761826
  78.0019855  54.8652744  39.3162227  78.7866163  54.3823719  39.5758200
  77.7912426  55.4065943  40.0770092  83.8370800  74.4406796  20.1910162
  84.1388321  73.5739946  19.9189234  82.8847599  74.3579769  20.2408934
  62.5934982  67.3974705  26.2753868  63.1766415  67.5138474  25.5253005
  61.8539190  67.9780960  26.0961413 101.7316341  74.8350000  28.0411744
 101.9892311  74.1387367  28.6454034 100.7830906  74.7391319  27.9556656
  85.5395222  55.5815792   7.0596749  85.9722900  54.9744463   7.6599520
  84.8657990  56.0049772   7.5917089  61.4353991  45.0425768  20.9976816
  61.8904924  44.2136049  20.8495998  62.0903826  45.7132626  20.8042526
  30.1031935  86.5409589  94.9786427  30.0014269  85.6745458  94.5846862
  30.8517992  86.4496136  95.5681046  99.0249443  29.6798968  81.1546230
  99.7992611  30.0069666  80.6966972  98.2959652  29.8851728  80.5692387
  87.3144627  41.9173956  41.7106485  86.9492435  42.7960157  41.6063690
  87.6121140  41.6760826  40.8334923  70.4048252  46.7055321  11.2985098
  70.4385281  47.0284081  10.3980386  69.8077965  45.9581947  11.2627983
  70.9510136  30.3453112  25.7363963  70.5133200  30.7437611  24.9841380
  71.8217945  30.1149678  25.4124975  71.7695045  32.5357866  44.1581631
  71.3700199  33.3918858  44.3122292  71.5775728  32.0356703  44.9514341
  43.6053276  48.7194967  31.5701246  43.9426041  48.1580591  30.8720779
  44.0629911  48.4241438  32.3572350  94.6186447  61.8155098  16.4550841
  95.4641247  61.8314934  16.9035578  94.5516205  62.6752234  16.0395896
  47.5618935  71.7596149  25.1393700  47.8897285  70.8898449  25.3679538
  47.7462053  72.2954273  25.9108400  87.0005608  57.5574112  12.3374617
  87.6906395  58.1312752  12.6701891  86.3698483  58.1518888  11.9312286
  80.5845928  58.2754898  18.9535046  80.2615070  58.6418295  19.7766948
  79.7956467  57.9920816  18.4914768  66.4618015  56.3112783   0.7652874
  66.4762735  56.7578793  -0.0812178  65.8640480  55.5747032   0.6372951
  79.5623636  76.7361164  30.2208757  78.9641190  77.0302916  29.5340061
  79.0247583  76.7117739  31.0124683  71.8028688  62.3226881  33.9299798
  71.2212276  62.5152779  33.1945658  71.3430500  62.6671124  34.6955967
  78.1567383  47.6889706  21.3270712  78.0429792  47.7845621  20.3814745
  77.9605007  46.7682076  21.5000439  22.5764889  84.5822906   1.4750847
  22.3408932  84.4065380   0.5641325  22.8115506  85.5101013   1.4869541
  80.5261040  74.9670029  17.9523528  81.3105202  75.2764606  17.4994051
  80.0906944  74.3991947  17.3165441  89.8952389  57.7215672  26.4596677
  90.2643299  57.7845955  25.5787420  89.8435307  56.7812443  26.6309786
  58.3447409  77.8925419  30.6516385  58.9555836  77.4480200  30.0638461
  58.9053535  78.3692217  31.2637854  57.4573469  28.3008766   7.9693705
  56.6954708  28.5567331   7.4494541  57.0903444  27.8218818   8.7124085
  68.7851143  31.9855332  31.3727450  67.8646088  32.0932150  31.1333728
  69.2083168  31.6857600  30.5682158  80.8250237  45.0537682  30.9747887
  81.0092926  44.1744995  30.6443906  81.4016056  45.6257105  30.4681611
  81.2064457  61.4196253   2.0327209  81.4128876  60.7066250   2.6370773
  81.0444927  60.9846878   1.1955656  60.0301886  33.1199884  31.1453032
  60.2724695  33.9856505  31.4741778  60.5582809  32.5111580  31.6617131
  96.0766792  13.3509636  21.6960931  95.9707546  12.5630128  21.1630368
  96.3302135  14.0304530  21.0713959  60.9745646  15.7876301  24.3781066
  61.0839224  16.6645014  24.7460341  61.4299536  15.8223510  23.5368896
 102.4828911  47.3354721  56.2322569 101.7879295  47.9788399  56.3712931
 102.2695732  46.9303560  55.3916550 116.6640091  59.2060518  18.9673138
 115.8708763  59.3383074  18.4480000 116.4425945  58.4919977  19.5650899
   9.6666188  40.0670099  35.3529358   9.7258992  39.1414094  35.1163220
   9.7087998  40.0729513  36.3091874  93.4370487  79.2190123  73.8431354
  93.3117121  79.0209032  72.9150839  92.7987736  78.6664963  74.2943140
  77.2471619  55.0288773  17.5904822  76.6253519  54.8162460  16.8945146
  77.4704504  55.9473896  17.4397731 115.2659815 102.9472256  81.6091664
 115.1971691 102.0436860  81.9175692 114.4637506 103.0906869  81.1070939
 108.3824509  94.3340708  89.4239225 108.7330311  94.4019485  90.3120203
 108.3397453  93.3929420  89.2545624  61.3107472  12.2666539  84.7417207
  61.2558061  11.7016401  83.9710255  60.6881887  12.9722537  84.5662756
  99.6983433  39.9624491  40.7717943 100.4756451  40.4256487  40.4595661
  99.5240116  40.3409243  41.6335392  80.2013111  43.2038164  50.6467676
  80.6598568  43.2433748  51.4860535  80.4449749  44.0157413  50.2022076
  87.1809578  82.2594070  30.5461454  87.0852566  82.6808167  31.4002466
  86.2866306  82.0374203  30.2870464  23.2492298  67.5329351  20.6872106
  23.0093140  68.2732010  21.2445903  24.0216965  67.8338766  20.2087069
 111.0447025  85.4482841   0.8110094 111.8768024  85.6345367   1.2459330
 110.4453087  86.1157799   1.1447755  98.3191681  44.4425583  23.7834907
  97.8181934  43.9023447  23.1724095  97.9901218  45.3304529  23.6434984
  99.5520592  67.4020386  34.7118902  98.7195301  67.8231239  34.4978428
  99.4082928  66.4754868  34.5193720  38.8061172 107.6945820   5.5216634
  38.4252292 106.9660633   5.0313389  38.0580646 108.2459437   5.7511163
  92.6242828  25.5922031  36.3872647  93.4390068  25.8950400  36.7882013
  92.3124886  24.9008322  36.9712353  97.3897457  45.1886034  14.2120624
  97.4513435  44.8921633  13.3040082  98.2853317  45.4328299  14.4455516
  85.2453041  71.3538361  30.2286625  85.2967739  70.8682060  31.0519147
  84.3776035  71.7577314  30.2426767 111.0472107  37.1217299  43.1157923
 110.6402206  37.9869723  43.0717373 111.5035152  37.0288181  42.2794962
  57.9870587  20.5175199  84.8842998  57.0624906  20.2700223  84.8958679
  58.1704789  20.8005227  85.7801230  58.0365640  30.5488099  61.2838884
  57.3300725  30.8350171  61.8628402  58.8295823  30.6350602  61.8129631
 114.7173517  89.2632342  79.7962316 114.7991436  88.4367061  80.2720376
 114.0108078  89.1096116  79.1689940  50.0786209   3.6630118  16.2810671
  50.3077841   2.7808756  16.5735614  50.7995033   3.9194745  15.7059288
   7.5583500  80.8336639  62.2016525   6.6774124  81.0765743  62.4865818
   8.1411976  81.3109303  62.7921963  78.1791592  60.5928469  39.6437240
  78.3217859  59.8239422  39.0917492  77.4906540  61.0846233  39.1961193
  55.0858402  37.7869630  23.5083151  54.5189047  37.7513504  24.2787385
  54.5130157  38.0883694  22.8031468  36.1158639  21.5427484  73.5837718
  35.3581983  20.9620895  73.6545248  35.8262378  22.2444381  73.0006929
 105.4138851  55.1588011  72.2624350 105.9703636  55.9314537  72.3602676
 104.5218754  55.5058479  72.2519636  93.9745998  46.4507580   0.8640738
  94.8280430  46.8578148   0.7151474  94.1295815  45.5151415   0.7343309
  73.2095909  34.4751358  34.9078274  72.4986935  34.0782452  35.4111481
  72.9440832  35.3881025  34.7972393   7.5689375 105.8153201  93.9862348
   8.3816492 105.4730941  93.6139345   7.2333109 106.4140130  93.3190365
  78.9767504  57.9311419   4.4318327  79.6601534  58.5253477   4.1218153
  79.4541550  57.2129631   4.8472106  83.8865852  24.7677684  17.1806550
  83.1128693  25.1481438  16.7648387  83.8507748  23.8395715  16.9495714
  88.9561749  46.0577679  24.1855407  89.4546700  45.9317112  24.9929094
  88.2775688  46.6910315  24.4194460  91.3101482  59.3943882  34.4705725
  91.1048412  60.1230001  35.0564075  90.9640980  58.6223078  34.9182057
 111.0170841  51.9521332  35.6080651 110.4326630  52.1378756  36.3430357
 111.5043354  52.7657032  35.4779673  11.0005819  91.5653635  73.1979938
  11.4878428  92.1628571  72.6307054  11.4596998  90.7294632  73.1160636
  79.6762639  27.9442109  67.5553771  80.0441438  27.2064389  68.0417819
  80.1753694  27.9655160  66.7388745  97.5707340  48.9460802  47.9088497
  96.8859386  48.3537245  47.5983477  98.3835983  48.5709810  47.5700712
  88.4348488  84.4076443  10.1367211  87.9412937  83.7910271  10.6774747
  88.9480877  83.8532257   9.5489824  98.6612988  62.9852533  15.4516721
  98.0280972  62.5376034  14.8905241  98.3171368  63.8741064  15.5395222
  46.6135388   8.8800849  87.1411933  46.4727002   8.7782325  86.1999048
  46.9784528   8.0405750  87.4209984  88.1447601  21.6639638  33.7695765
  88.0729771  22.0443106  32.8941250  87.5072765  20.9499407  33.7735105
  76.1047983  24.6964931  20.7228756  76.6646767  25.4717660  20.7642913
  75.2187681  25.0335622  20.8554029 106.6292858  59.3701601  21.8758345
 105.9120178  58.7389231  21.8183327 106.2322807  60.1489305  22.2658873
  96.5275638 100.2620364  70.8247300  95.7438724  99.7287846  70.6916996
  96.6878383 100.6688452  69.9732299  80.4871655   6.3130325  34.4014430
  80.8254242   6.4843857  33.5225511  81.2650967   6.1164397  34.9233699
  75.1986885  57.5011492  48.5447168  75.8227158  58.2071590  48.7131453
  74.3857574  57.9502344  48.3129787  69.2263412  83.0038071  19.1885471
  68.4908581  82.3938465  19.2454946  68.9883375  83.7214565  19.7755432
  61.5297079  42.4676037  24.0856481  60.7917023  42.9316235  23.6903381
  62.2643709  43.0763435  24.0085959  98.6324215  70.7954645  34.7600436
  98.0203915  71.3842964  35.2015543  98.2019901  69.9408388  34.7838998
  60.1634008  20.0443496  64.1969581  59.9347001  19.4285955  63.5006948
  60.4031545  19.4888868  64.9387165 114.4030762  72.1959209  46.7148209
 114.1344070  72.9366684  46.1713696 113.5933495  71.8955517  47.1275711
  89.7998333  77.2994566   9.7780502  90.0044155  77.9304171  10.4681671
  90.4167271  77.5045204   9.0754747  97.2461128  59.0211248  49.5907784
  97.3379421  58.5117245  48.7855959  97.3758602  59.9288225  49.3160486
  55.1308137   5.9331931  62.8385659  54.6087724   5.8698119  63.6383672
  56.0380918   5.8919658  63.1408473  22.7461588 106.1374188  86.2508048
  23.4499132 106.7222071  85.9697910  22.8986418 106.0119439  87.1874131
  94.4302845  48.0124235  21.4499831  93.4988594  47.7922201  21.4361620
  94.4499016  48.9691448  21.4731789  87.6685524  51.1551332   7.8817976
  86.8673611  51.6519833   8.0474967  88.3748627  51.7442274   8.1469858
  99.0219975  50.2303553  17.0334661  98.4097958  49.9889946  17.7285779
  99.7306347  49.5909500  17.1057475  66.4919758  54.8959684  25.1005030
  66.3431454  53.9595175  24.9695611  67.2287846  54.9384546  25.7100463
 108.3275318  48.6457777  44.1232538 107.8575230  47.9023457  43.7455893
 109.1917992  48.6162186  43.7128878  82.4380207  35.0274897  34.2855000
  82.4320793  34.4748545  33.5039663  81.5470886  34.9649668  34.6298313
 110.6679058  75.9872293  22.4590468 111.3403416  75.4907894  22.9255366
 111.1018372  76.2857771  21.6597962  36.3392794 103.6996508  53.9004512
  35.5407774 103.5655547  53.3899160  36.3582956 102.9642869  54.5129104
  20.4986822 102.5436068  93.0457637  20.2582800 102.1418477  92.2108807
  21.3343584 102.1371794  93.2753118  72.7328587  54.7696829  47.3119879
  72.8686333  55.7171488  47.3223972  73.2878447  54.4404173  48.0189610
  22.7264923  74.1327429   3.8087580  22.8746552  73.2575750   4.1670322
  23.1047863  74.0990591   2.9301277 100.7614136  88.4298801  48.8131809
 100.3678131  87.5605297  48.7386417 101.3240623  88.5049343  48.0424500
  93.5764599  31.3983941   1.5513819  93.2441330  32.1341062   2.0656973
  93.1247139  30.6334996   1.9078833 114.5471668  39.3011236   6.2109315
 114.2181873  38.9806676   7.0507604 115.1753807  39.9844241   6.4447618
  83.5939980  56.2829208  40.8069563  84.1468811  56.9851875  40.4643583
  82.7551270  56.3992786  40.3608704  77.5632954  35.0245953   2.5760484
  78.4953976  34.8323369   2.6783094  77.2463179  35.1556182   3.4696868
 110.6686687  41.1458302  30.4078913 110.9520531  41.2904263  31.3106728
 111.3440418  40.5809212  30.0324154   6.7713780  57.3730707  21.6062021
   5.9877056  57.5486422  22.1270370   6.6151947  56.5104771  21.2217975
 108.6934757  83.5324955   9.1801906 108.7704754  82.8501892   8.5132933
 109.4690800  83.4190655   9.7295666  95.2442265  92.9473877  29.3134832
  96.0860348  92.6820374  28.9431119  94.7276020  93.2271957  28.5578084
  82.8963834  21.5427818  86.5997292  83.1842786  22.4484863  86.4855196
  83.1248551  21.1130895  85.7754727  97.7289486  20.5269146  34.1683054
  98.1179619  21.2013030  34.7251725  97.6178741  20.9528804  33.3183360
  24.7218382  80.9727956  94.3971503  23.9313566  80.4400731  94.4841706
  25.0986063  80.9877992  95.2769528  82.7437782  46.5514135  20.4998136
  82.1284771  46.8033552  19.8112249  82.3796940  46.9340563  21.2980986
 109.3556023  53.2309055  20.8807874 108.4774685  53.5301638  20.6450891
 109.3801022  52.3159742  20.6005454  94.6835804  74.1367102  56.3315916
  94.4932270  75.0619221  56.1767292  94.2939854  73.9518023  57.1861458
 102.3762894  50.8492613  26.2049127 103.1715202  50.4754353  26.5845084
 102.2684765  50.3883696  25.3729367  94.5067978  49.8790026  32.4648404
  95.3778648  49.5048237  32.5970173  94.0135956  49.6183205  33.2426739
 100.2591801  89.8184204  41.8670940  99.8222542  89.1404247  41.3516760
  99.5471096  90.2743626  42.3157549  51.1960983  84.5436382   5.8087867
  50.5614281  84.8548412   6.4542162  51.9918728  84.3800640   6.3149625
  98.4520340  83.4807873  44.1148186  99.0526867  84.0181065  44.6312761
  97.9027843  84.1132736  43.6516523   0.3655476  79.8542976  29.7898674
   1.1254925  79.3046904  29.9813223  -0.2729374  79.6236753  30.4646873
  91.7392731  54.3254995  25.5454826  91.5915012  53.4000206  25.7401037
  90.9123516  54.6259737  25.1684523  58.1394672  53.7970829   0.8143098
  58.1766701  54.6681356   1.2094175  57.6903296  53.9315987  -0.0202027
  97.1764088  64.9640894  16.4213002  96.4288139  64.4916296  16.7875242
  97.5706291  65.4077005  17.1723211  89.2088223  49.8801136  50.7276964
  88.8910389  49.2795658  51.4019299  90.1546860  49.7350979  50.7043028
  75.8448964  17.5485744  83.7818308  75.1193315  17.0626344  83.3898349
  75.4610425  18.3873834  84.0373393  67.5072670  75.2826023   9.0820205
  68.4179831  75.2511835   8.7890464  67.0178986  74.8358631   8.3912426
  69.8366308  65.4454184  37.8413010  70.1169205  64.7440481  38.4293032
  70.4162169  66.1782646  38.0492663  80.6848907  70.1603460  13.1929851
  80.1523876  69.3981314  12.9656065  81.5833759  69.8304319  13.2030165
  68.9901018  39.8853564   5.2156764  68.3616638  39.1831946   5.0475544
  69.7997713  39.4313049   5.4491377 107.3387337  77.1822977  22.8142905
 108.0283737  77.8458452  22.8322387 107.7796841  76.3716173  23.0684304
 101.7515772  79.2569972  89.5767953 102.0449036  78.3674718  89.3794806
 102.3982780  79.8218275  89.1537382 113.4108448  22.2101521  52.3761463
 113.7399292  21.5883851  51.7270422 112.4582767  22.1389246  52.3146248
 107.3130035 101.1113071   9.4313234 107.0661545 100.2339268   9.7237313
 106.4892483 101.5984917   9.4136965   1.2115521  81.7426777  10.0403833
   2.0047707  81.6407681   9.5144063   0.9947342  82.6722717   9.9691725
  90.8125478  22.1007718  72.8104516  90.1028997  21.4631547  72.7325221
  91.1695176  21.9559421  73.6867114 100.6929016  44.5103598  72.7588272
 100.8594894  45.1562262  72.0722866 101.5614986  44.1904020  73.0025291
  48.1549311  60.1553822  16.4699996  48.7466908  60.7693338  16.9048738
  48.7352085  59.5261049  16.0416031  24.2685646  23.8909435   9.1311699
  24.7836823  24.6966076   9.0888500  24.5737309  23.3721709   8.3868724
  74.9902964  83.5690975   6.4454597  74.8791170  82.8927231   7.1135843
  74.8385906  83.1145000   5.6168693  41.7318594 107.7035523  91.7885284
  42.0047056 108.5192395  91.3684784  41.8289148 107.8726149  92.7256675
  82.6606655  39.3603349  12.4896276  83.1551647  39.8758793  11.8525100
  81.7675018  39.6994543  12.4306524 108.9813614  73.5978985   9.4846201
 108.0354881  73.5298014   9.3545550 109.2444706  72.7292633   9.7887129
 104.2940998  69.7110367  27.4159932 104.3566895  68.8719273  27.8722978
 104.5717812  69.5180130  26.5205240 112.3439598  59.0842390  43.3092022
 112.5171089  58.6701202  44.1546345 112.2771072  60.0179482  43.5090733
  10.7498211  95.0331116  20.8891630  10.5562538  94.1830444  20.4940176
  11.3716549  94.8356438  21.5895629 116.0641670  79.3967581  25.0665045
 116.6236687  78.7115669  24.7008491 115.2228451  78.9650822  25.2150679
 107.8746223  65.1263714  15.5931723 107.6895332  64.9666786  14.6677148
 107.7882767  64.2672968  16.0064065  24.6092826  31.1897458  55.1397081
  25.5449611  31.0552015  55.2901502  24.4123822  30.6603231  54.3669315
  43.2198811  43.7209749  38.7624168  43.8420963  44.4336843  38.6170530
  42.3608732  44.1226435  38.6320496  89.5704347  24.4525756  81.2119229
  90.1609212  24.5589389  81.9577392  88.7338716  24.2004193  81.6028245
  98.7740612  38.9191794  36.6389227  99.6069813  38.5066843  36.8676496
  99.0218925  39.7080684  36.1567831 100.3346157  24.2149544  34.3048596
 100.1478481  23.4604287  34.8634696 101.1324310  23.9731002  33.8345051
  63.8184243  23.4018459  89.6865834  64.2094785  24.1445197  90.1467402
  63.8350087  22.6888503  90.3250118 105.9939575  70.0491762  19.2522895
 106.8554115  70.3300476  19.5608819 105.3778648  70.6251574  19.7049677
  79.9191999  29.0128279  23.7419391  80.5824471  29.4524002  23.2098579
  79.1043329  29.1295242  23.2534695 100.2205181  59.7146273  16.3454223
  99.6257114  59.0829611  16.7496848  99.7766018  59.9801445  15.5400240
  37.0718349  11.0680521  19.0684664  37.7550662  11.3342131  19.6837640
  36.4478839  11.7939127  19.0747094 115.9125233  62.1018982  35.9587836
 115.1840401  62.2812319  35.3643227 116.0499954  61.1570549  35.8909464
  75.1055050  73.4461546   5.2767473  75.3208828  72.5175142   5.3632092
  74.4074583  73.5906124   5.9155720  12.9627556  70.0583696   6.2929416
  13.5668511  69.3915987   6.6195977  12.1906514  69.5660830   6.0141176
 109.8452568  57.7893591   2.8984129 110.3969383  58.4758234   2.5233889
 110.3985596  57.3710823   3.5580561  33.9192134  29.7230806  77.6423736
  33.0699378  29.8600663  77.2226162  34.2824918  28.9543618  77.2026725
 114.0914631  60.6581640  20.0729656 115.0043678  60.5245590  20.3278947
 113.7558365  59.7760773  19.9132597   9.3929714  58.9822674  18.5900843
   9.6212334  59.0985966  19.5123613   8.4665818  59.2181396  18.5410321
  71.4077854 107.6535130   1.5419500  71.2957287 107.2306061   2.3933145
  70.5506468 107.5784111   1.1225389   1.4915890  60.4847097  60.6859970
   1.8359227  59.6150446  60.8893490   0.8483452  60.3318024  59.9938393
  68.5836029  77.2138262  24.7586346  69.5085049  77.1130228  24.5336270
  68.1433344  76.5090942  24.2835045  96.3468456  66.8888712  27.2741699
  95.8080673  66.6789246  26.5113664  95.7534027  66.7960072  28.0194426
  93.7583542  56.2580919  17.0401657  94.1408539  57.1312714  16.9536471
  94.3394852  55.8012199  17.6482677  59.3351269  86.7273712  32.2860646
  58.4846735  87.1629906  32.2295284  59.5162058  86.4385223  31.3916326
  84.9029064  16.8587077  50.8073902  85.3848076  17.1450365  51.5832901
  84.2823315  16.2088156  51.1371708 102.2739983  84.4929314  33.7734914
 101.6071129  84.5490265  33.0891275 103.0286503  84.9571133  33.4111619
 112.8218269  27.0310593  47.4187469 112.3541069  27.4888277  48.1172609
 112.6109600  27.5243974  46.6260386  28.4305824  12.2289122  22.0439768
  27.8149856  12.8888262  22.3630118  27.8749526  11.5271414  21.7048311
  94.1491604  45.6755972  29.8754859  94.8052120  46.0721540  30.4486966
  93.4090805  46.2820292  29.9030256 111.9235706  81.2210464   7.3312145
 112.4304962  81.3694000   8.1294942 112.0088577  82.0370770   6.8382078
  96.6642094  76.8372011  16.5777862  97.1683693  77.4249887  17.1404207
  96.6505623  77.2740269  15.7261813 116.8192482  78.4728670  17.4611771
 116.8432999  77.8233862  16.7584467 116.3641453  79.2230082  17.0785475
  96.0380363  70.7253981   3.4143594  95.2000523  71.0935783   3.1342626
  96.6952324  71.2552118   2.9631129 105.4233646  62.8186369  13.0920744
 105.6022835  61.9026756  13.3047664 104.5837307  63.0027199  13.5132146
  95.4119205  63.4956980   9.4739366  95.7785034  64.1349983   8.8630837
  94.5059776  63.3819818   9.1865712  15.2331507 109.0028239  87.0916535
  15.5493128 108.3094073  86.5124734  15.0023043 109.7206689  86.5020438
  84.6455765  51.8656158  50.1997709  84.7463989  51.0813618  49.6603203
  85.5419254  52.1459913  50.3846741  92.1159440  40.0145902  86.2233688
  92.3224240  39.3090619  85.6103178  91.6592008  39.5800199  86.9436248
  10.4592461  65.8918047  14.9058819  10.5116791  66.4602852  15.6742013
  11.2073654  65.3011465  14.9934614 104.7657776  47.4892807  33.8878012
 104.2555046  46.6832733  33.9665556 105.2956200  47.5161314  34.6845293
 110.7728100  83.8453102  20.3585601 111.4542007  83.3642673  19.8889518
 111.2318516  84.2578697  21.0902071  66.9094944  47.9757309  31.0624623
  67.4974918  48.4532166  30.4772305  67.4721003  47.3339367  31.4958358
  90.7607937  66.7383671  29.9163556  89.8463345  66.9162846  29.6964717
  91.2314224  67.5237560  29.6372366  87.0333958  81.3460350  19.1805029
  86.6243076  81.0971928  20.0093269  86.5662384  80.8347130  18.5197902
  41.7100030  10.2030648  90.4772087  42.5698739   9.8830594  90.2043392
  41.8188554  11.1513986  90.5482359 101.1962223  91.7167091  12.8728092
 102.0517445  91.8121910  13.2913673 100.6051636  91.4793491  13.5873318
  75.5132276   9.7508086  94.0087256  76.1718255  10.3607930  94.3409918
  74.6798688  10.2028026  94.1407862  88.7056446  53.9932919  55.3385687
  88.6752892  54.8725080  55.7157707  87.7877331  53.7313795  55.2673960
  85.8796120  97.2440624  13.9615059  85.0120831  97.1356964  13.5717833
  85.8298302  96.7709732  14.7921336  54.3192082  29.2000760  93.8446593
  54.9766427  29.8823632  93.7086292  54.6966821  28.6346807  94.5185044
  41.1541427  16.2653197  44.6655703  41.2424339  17.0816744  45.1575232
  41.3646091  16.5055026  43.7632132  83.6789799  43.9642763  26.9525051
  83.3655930  43.3913708  27.6523638  83.2773113  44.8127365  27.1396160
  82.9951382  53.4708643   9.3802571  83.8364029  53.8149261   9.6804595
  82.7505684  52.8245831  10.0426340 102.0827866  98.1648064   5.2211815
 101.4198112  98.8229275   5.4299319 102.5476265  98.0231285   6.0458547
   5.6248421  54.5208216  26.3688564   4.9417157  55.1864767  26.2883830
   6.2534851  54.7383404  25.6805825  83.1754303  68.7483740   4.0132323
  82.8211308  68.0322266   3.4861392  83.3804417  69.4345379   3.3781072
  99.7485924  87.0818043  13.2774019  99.6592045  87.7201939  12.5697994
  99.0459347  87.3021221  13.8889265  91.7705727  59.2384052  12.5392914
  92.4216270  59.9299097  12.6583791  91.8797493  58.6724663  13.3035076
  90.2119637  91.7604542  11.4113569  89.5662498  92.4621105  11.4948225
  89.7538853  91.0689926  10.9335744  54.4845915  91.8115330  38.4296227
  53.9425373  91.8904781  37.6446533  54.2320776  92.5592518  38.9712620
  74.1331387  93.5028076  36.1784577  75.0319338  93.2464314  36.3850141
  74.2256832  94.2945862  35.6485963 112.9075813  40.1992750   4.1632277
 112.6416779  41.0840607   4.4135985 113.2376480  39.8101854   4.9731004
 107.1069050  91.8387222  34.6116424 107.1871185  92.7292442  34.9533677
 107.3886967  91.2784100  35.3347468  60.6741410  11.2600602  82.1048851
  59.7620469  11.0128106  82.2571476  60.6225663  12.1175660  81.6826804
  27.4067175  81.8333460  58.6052437  27.1913588  82.1452690  59.4841953
  26.6649305  82.1068001  58.0656119  79.8493242  72.0672226  21.1895466
  79.7551823  71.8463135  22.1161366  78.9568090  72.2477436  20.8944821
  96.9799614  28.9806223  50.3715277  97.8790188  28.7623048  50.6170177
  96.5378189  29.1462255  51.2041855 113.1507587  73.5482883  32.4533653
 113.8711071  74.0327024  32.0500374 113.2621288  73.6918831  33.3931565
  94.6234703  56.4460325  50.2471972  94.2086506  55.6352615  49.9525595
  94.7207832  56.9683552  49.4509983 107.3977249  97.6504374  92.7771370
 107.9562252  98.1785346  92.2066824 106.9873159  98.2849694  93.3646403
  32.3385507  43.9812459  84.8423071  33.2112342  43.9673223  85.2353187
  32.4788695  43.7022008  83.9374991  98.2219028  61.8457890   3.5783952
  97.7980232  61.2951565   2.9200950  97.8232479  61.5788126   4.4066644
 113.2426071  79.8113966   4.9351332 113.8059044  79.0395594   4.9916488
 112.9266071  79.9432611   5.8289957  99.3453503  79.7233295  31.3032293
  99.3003178  78.8224888  30.9827733  98.7872505  79.7290993  32.0808721
 106.2389469  54.4013166  23.5642552 106.0344219  55.2517986  23.9529419
 106.8732834  54.0098572  24.1647577  74.8870993  51.1482573   1.1896693
  75.1136446  50.2261686   1.3107817  75.6814718  51.5451193   0.8323158
  95.0185394  63.5581064   5.7488048  95.6411743  63.9823675   6.3391989
  94.2317009  64.1007471   5.8003461  86.0949707  53.8472605   9.1621858
  86.7975044  53.2979774   9.5099789  86.4318085  54.7404194   9.2331833
 111.4122200  39.3729520  35.2520537 111.6734314  38.4533691  35.3006840
 110.5723667  39.4079113  35.7099319  84.0934753  28.7640285  53.9403582
  83.6715221  27.9585767  53.6413097  84.9775696  28.7207866  53.5760117
  60.9693032  25.2643861  87.2947575  60.5099374  25.0441064  88.1051244
  61.1866456  26.1919965  87.3872025  10.5158371  81.4484787  15.1893139
  10.6478066  80.7706356  14.5264792  11.1526913  81.2417793  15.8733606
   8.2784521  65.3551377  77.8039070   7.4976027  65.8662546  78.0166872
   8.2398855  65.2430928  76.8540700  93.6053276  66.2167263  26.5755272
  93.9166164  66.4716244  27.4440646  92.8293228  66.7581129  26.4308023
  92.4528027  66.8405771   8.0933362  92.6813793  66.1639214   8.7306124
  92.3572922  66.3682222   7.2662997 104.0869236  49.3305302  11.7115819
 103.9674377  48.8938761  12.5549614 103.6383343  48.7646866  11.0832298
  82.2807980  69.3727160  30.9352064  82.1199226  69.9531364  30.1912522
  82.0496655  69.8967218  31.7021680  22.2958226  80.3869343  58.8336611
  22.0085758  79.4893551  59.0012074  22.0076889  80.5675411  57.9389048
 103.5674953  36.9933891   0.9260292 103.6800957  37.8811693   1.2657303
 104.3395233  36.5191221   1.2346907 105.6798649  70.4526567  38.6035585
 105.1626110  71.2151909  38.8628316 105.1709747  69.7023726  38.9106989
  29.9076235  84.3195415  91.1933170  29.6895945  83.6777545  90.5174421
  29.2854654  85.0337148  91.0550668  88.5286808  94.5788670  38.2193255
  87.6399136  94.9190807  38.1165290  88.8971710  94.6007729  37.3361659
  49.8816472  40.6716909  93.2924195  50.7607347  40.4916753  92.9591932
  49.8032456  41.6250791  93.2585469 106.4021111  84.5370388   4.0421656
 106.3857746  84.8225021   3.1286705 105.5925465  84.8847103   4.4162661
   7.9158825  81.9483566   3.7282485   8.6973233  82.4820232   3.5841021
   7.2443814  82.5749016   3.9979887 103.8698483  55.0327444  45.7891369
 103.5472775  55.9064960  46.0099030 104.0775108  54.6335602  46.6339827
   3.3410496  97.5210094  55.3046370   2.5558323  97.7639389  54.8140669
   3.0088181  97.1819496  56.1358356 106.2064171  54.8291254  10.8518636
 105.8650208  54.6428156  11.7264879 106.2097931  55.7846022  10.7945848
 113.9205074  52.0676136  12.0418108 114.1739941  51.6948938  11.1973834
 113.3171368  52.7765894  11.8192518  48.7124979  97.3723174  91.9565924
  48.2406389  96.6101552  91.6209059  49.5065081  97.4161959  91.4238103
  11.2131256  86.7681217  24.7199273  11.9526429  86.4776421  24.1861129
  11.0033459  86.0131168  25.2696395 104.0670269 107.7457715  82.4639090
 104.6456640 108.1242085  83.1258758 104.5629328 107.0100547  82.1046992
 110.0606823  44.2461967  37.0673490 110.8194065  43.8908863  37.5302911
 110.2176189  45.1900291  37.0393133  77.8413057  54.1691971  10.6204307
  77.9569006  53.2782173  10.9506226  78.1442785  54.1296434   9.7133064
 116.4910221  62.8418350   3.2559398 116.9892025  62.4113655   3.9507365
 116.5550995  62.2450686   2.5102913 108.6319256  68.8683844   9.0911883
 108.9377403  69.6874666   9.4808239 109.1523266  68.1896973   9.5210665
  10.6904358  24.6484160  26.2904811  10.8747143  25.5419040  26.0007405
  10.2541394  24.7558880  27.1356630  43.2409633   5.5909098  19.5511830
  43.7476505   5.4455794  20.3501654  42.4415172   6.0242690  19.8500502
   9.5499272  98.6893082  47.0732450   8.6746926  99.0686226  47.1526432
   9.6764321  98.2059097  47.8896713  74.7216588  14.3797960  81.3318475
  74.3424302  15.0709619  81.8747194  73.9934331  13.7824239  81.1613865
 116.5627575  51.1238813  37.5505304 115.7264900  50.6603193  37.5950575
 116.4787769  51.6967344  36.7882824  55.2753735  52.6832104  11.4996850
  55.8141041  52.8846407  12.2648180  54.4396734  53.1159449  11.6745460
 106.2885952  95.9997177  45.5003643 106.4680767  96.3864803  44.6433735
 105.4720020  96.4116192  45.7827568  19.7775788  56.5399885   2.4025311
  19.4293255  57.0959854   1.7055267  19.0298695  56.3817644   2.9788309
 115.7078552  60.7512331   9.8759007 115.8268261  61.7003870   9.9103004
 116.2940884  60.4615450   9.1768622   8.8095516  62.6695728  23.3565998
   9.5584435  62.9501104  23.8826084   8.7573380  61.7244816  23.4991312
  91.6229916  65.6652212  32.2310638  91.4295864  65.7952833  31.3026738
  91.9093418  64.7538042  32.2906661   3.2760758  74.0899563   7.7864057
   3.5806317  73.4101582   8.3875316   3.3232064  73.6832380   6.9211942
 104.5796108  76.1507416  28.6387157 105.4773617  76.2824917  28.9435220
 104.3336487  75.2918434  28.9822698 112.1546936  63.1472063  13.2764351
 111.3714218  63.5686636  12.9227495 112.8826904  63.5916519  12.8420186
 103.1567001  64.9520540  48.5845566 102.8067589  64.6621752  49.4270134
 102.6260757  65.7147551  48.3544397 108.0588055  66.4936209  43.7733412
 108.1207275  67.2643328  44.3376112 108.3786678  66.7934370  42.9224396
  81.7889214  30.0837445  22.4415851  81.5774918  30.9981012  22.2532201
  82.7038097  30.1024175  22.7224135  98.9358121  12.5122060  80.0728317
  99.2962628  13.2375659  80.5828805  98.7027532  12.9038419  79.2310830
   0.5615944  44.8537922   1.4382516   0.1331658  44.0084982   1.5730250
   1.4968247  44.6499872   1.4319173  94.8003197  76.9356346  27.8360963
  94.3941879  77.6598501  27.3598576  94.0772438  76.5258026  28.3108902
  60.7507402  21.0485257  92.5537644  61.4504129  21.0077037  93.2057010
  60.9390813  20.3260888  91.9547303  87.7125168  66.7163134  11.3500297
  87.7260399  66.3716793  12.2429335  87.4779034  67.6386070  11.4528000
 107.2103691  47.0941496  29.8084950 107.2968006  47.6199579  29.0133309
 106.4679050  46.5158510  29.6337056  77.1098185  46.3190556   8.4827840
  76.7138529  47.1561289   8.7251741  76.3664055  45.7559204   8.2672691
  44.9451256  52.8192806  14.2862666  45.1829195  52.4814415  13.4228146
  44.9081087  53.7686872  14.1701186  77.7424890   1.0186805  94.5374293
  77.3696214   1.0348024  93.6559852  76.9910985   0.8749570  95.1127467
  86.3333225  83.3162880  41.8535566  87.0184994  83.0085659  41.2602091
  86.3943195  84.2707825  41.8153572 101.9300556  32.8565788  37.3007560
 101.3460636  32.6488876  38.0301762 102.6353073  33.3684158  37.6968288
  55.9546900  52.1395445  32.8938222  55.7205677  51.8453455  32.0135570
  56.7181921  51.6116858  33.1276178  17.0622105  81.1879635  13.2993555
  16.2806362  81.7033482  13.4987247  17.5860352  81.7560291  12.7344310
  86.8882257  10.6644716  80.5323310  86.6379052   9.8515119  80.9712704
  87.8314096  10.5805244  80.3924163 101.5078449  89.3788052   3.5709774
 100.6795120  88.9401054   3.7649617 102.0768166  88.6822510   3.2433841
 107.7097321  99.3947792  23.6781764 107.3029900  99.3326664  24.5424294
 107.0402431  99.0726280  23.0746651 104.0629482  59.7599697  38.2480764
 104.5958042  59.7565413  37.4529099 103.6019325  60.5984879  38.2238507
   4.7245545  46.5827847   4.8769346   3.8244957  46.7854691   4.6218795
   4.7217602  45.6388092   5.0354862   8.2189125  71.0616589  33.6130357
   7.8064579  70.5324984  32.9303145   7.5103230  71.2554884  34.2266846
  73.3366776 100.0427055   7.3855966  74.1209126 100.4548264   7.0231628
  73.1767893 100.5111599   8.2048756  89.8934460  96.3421631   8.9079499
  90.0505733  95.5290127   9.3878752  88.9549923  96.3316917   8.7197495
   6.5890259  79.1108751  19.8778796   5.6574005  79.2727041  20.0266147
   6.7600197  79.4763422  19.0098798  21.8991989  66.5999413  42.7789831
  22.5497383  65.9010267  42.7115536  21.9912476  67.0923424  41.9633245
  92.9700565  82.0989513  45.6835413  92.5619698  81.4350510  45.1277304
  92.2427654  82.6512718  45.9702873  58.3069879  20.4899778  90.1390113
  58.7764627  20.8750858  89.3990655  57.6016790  21.1100759  90.3240802
  95.6927490  70.6827736  33.3003259  95.0649452  71.2656736  32.8733373
  95.5271721  70.7966661  34.2361903  32.8887523  11.0150279  25.7273626
  33.3406699  10.3512991  26.2483788  32.3588241  10.5133570  25.1078963
  60.3331435  -0.2996503  46.5821218  60.6703151   0.0575198  47.4036932
  60.2195228   0.4647959  46.0173702  92.6212579  25.0366677  74.0566321
  93.1231958  25.0154294  74.8713966  92.8607064  24.2264833  73.6066242
 101.6198730  70.4309225  18.0219436 100.9888077  70.7082891  17.3578167
 101.5308475  69.4784117  18.0539393   6.5456260  11.1465014  16.4440477
   6.9149459  10.3613032  16.0399342   6.4932693  11.7814959  15.7297146
  73.7856370  61.7091359  94.2493976  74.1892987  62.0331277  95.0545755
  74.4287473  61.0994519  93.8875733  10.5200810  62.0936489  25.8836794
   9.7723908  61.8842936  26.4434600  10.6711716  63.0281591  26.0254335
   2.6677841  59.0409040   0.4479202   2.6837868  58.8435698  -0.4885813
   3.2504029  58.3903265   0.8397672  59.3076385   8.0314578  22.5677514
  60.1223529   7.6572169  22.9030538  59.4540179   8.9772547  22.5839949
  18.8409961  21.4976252  15.7209766  17.9433120  21.3487662  16.0180378
  18.7606395  22.1677149  15.0421834  90.2564240  79.9867487  27.9022050
  90.0905037  80.7462215  28.4606814  89.8248005  79.2601252  28.3515978
  90.3286743  79.6503210  47.0351553  90.0241470  80.2934551  46.3949394
  90.0784016  78.8047457  46.6628790  85.9010029  83.7784481   7.3273915
  86.1838055  82.8909874   7.1067959  86.7020702  84.3011189   7.2909117
  30.3823227  82.4630833  33.5244656  30.7886833  83.1988335  33.0664492
  31.0331387  81.7627621  33.4774518  80.7415867 101.3169289  26.6935611
  81.4162159 100.8229637  26.2276077  80.1157188 100.6531143  26.9831562
  38.4248794   4.2567671  10.0791669  38.8117469   4.7935141   9.3874550
  38.0621207   4.8897017  10.6988633   1.0715241  50.2110529   6.0041797
   1.6408963  50.7062054   5.4152203   0.6604237  49.5534325   5.4431415
  57.6824916   0.0733984  19.8231149  57.8462756   0.1155222  20.7652569
  58.5358203  -0.1308691  19.4405627  13.7388462 100.2507401  40.6246567
  13.5361714  99.3365669  40.4260540  14.0920014 100.2300072  41.5140820
   9.0896952 108.6167908  92.1094765   8.2001555 108.2659531  92.0663519
   9.0706885 109.3880940  91.5429460   3.3908791  87.0747185   6.4627868
   3.0120224  87.8590298   6.8597174   4.1388077  87.3979378   5.9604239
  53.7039739  56.1979570  80.5796655  54.2394906  56.6901292  79.9573942
  53.8320047  55.2818097  80.3336711 103.9206982  77.0910597  60.6169033
 103.3139420  77.0752335  61.3570499 104.2357731  77.9943466  60.5847597
  27.0182080  93.4967422  15.1916420  26.6486878  92.6464653  15.4297674
  26.9595570  93.5244083  14.2366397  92.9010487  67.3021793  42.1123600
  93.7625885  67.6902294  42.2653103  92.6914597  66.8537807  42.9316521
  92.2288990  68.0943441  12.6306355  92.5526428  68.4490919  13.4586334
  91.7674541  67.2928905  12.8775442  37.0802463   1.4414729  25.9095240
  37.4025214   0.8014525  26.5441442  36.9956458   2.2531355  26.4098001
  99.3175411  93.1564522  34.0489101  99.9488163  92.5193119  33.7145996
  98.8126755  93.4197807  33.2794905   0.6930870  41.0577345  39.4101620
   1.2859482  40.3343630  39.2065310   0.5458397  41.4906979  38.5692739
  99.6349525  75.8116150  24.1361213  99.3466187  76.6233063  23.7186861
  98.8868427  75.5357885  24.6657300  87.7396965  92.5595760   4.8995990
  88.4956837  92.3692799   4.3441731  87.4437904  93.4237671   4.6135229
  70.0194722  66.3600816  90.1811297  70.6595021  67.0488157  90.0015660
  70.2861577  65.6327905  89.6188606 108.2986736  70.9067249  35.4768705
 109.2049408  70.6749201  35.2739143 107.8048801  70.6458664  34.6994710
  24.0107483  77.6120615   8.8616908  23.5669560  76.8759060   8.4405476
  23.4917111  77.7873373   9.6466219   3.0367894  88.5575581  10.5896842
   2.5874562  88.2958317  11.3933182   2.9253334  89.5074749  10.5514526
  90.0288391  70.1564646  33.5572147  90.7167435  69.9139547  32.9373670
  89.4285583  70.7009459  33.0478716 105.3194618  98.9785290  70.6508255
 106.1772728  98.9776707  70.2260971 105.2325249  98.0983353  71.0167933
 110.7990837  84.1884422  46.5052795 111.4641285  84.8403263  46.2839508
 110.0791264  84.3657112  45.8999109   7.2062058  79.9138021  17.4782979
   6.8324894  79.2936563  16.8522060   7.5952858  80.5984306  16.9341123
  87.2764874  68.1759262  37.4635792  87.9468155  67.7744150  38.0164623
  87.6649284  68.1909418  36.5888667   4.0474457  49.1037607   8.7807554
   4.9120468  48.8133240   8.4903264   4.0252632  50.0373220   8.5705096
 116.3238430  75.6211281  13.3161545 117.1995735  75.6509542  12.9308724
 115.7637501  76.0536909  12.6716244  80.2756119  63.6651134  29.9016094
  79.7649288  63.7290764  30.7086682  81.1844158  63.6097383  30.1969934
 111.6814709  75.9066963  25.9721041 112.2810936  76.1134958  26.6889930
 112.2518635  75.6290245  25.2553201  95.9515667  64.8042870  47.6601076
  95.2952290  64.3532753  47.1290445  95.7610321  64.5326710  48.5579681
 104.8721313 102.8565979  33.1274080 104.8296165 103.3685017  33.9351082
 103.9587116 102.6580048  32.9213595  26.5140862 103.5269260  58.6672974
  26.5233654 104.3000412  58.1029987  26.5573735 102.7873993  58.0611038
   8.1117863  62.3202562  44.4458199   8.2452912  62.6647282  45.3288555
   7.3393387  62.7837420  44.1221809  98.5256004  97.5014400  35.3607416
  99.1217899  97.3097801  34.6368217  99.1003036  97.6461983  36.1124039
  89.0326405  74.3855333  15.3207254  89.1631699  74.3117523  16.2661076
  88.1120014  74.6292114  15.2243543  23.3135075  96.9996262  35.6308079
  22.4403900  96.9100285  35.2488947  23.9107270  96.8968582  34.8898625
  38.1514973  60.9558916  27.5379086  38.1398529  60.6468964  26.6320276
  38.8997788  60.5091286  27.9337621  70.9232187  75.0814724   4.3270198
  70.4968929  75.7767105   3.8258973  71.8442583  75.3400326   4.3596607
  92.5366974  76.7032719  14.6849835  93.0209351  76.0990667  15.2477312
  91.8618393  76.1612368  14.2763281 113.7067223  79.4610071  22.7619123
 113.9480019  79.1146088  23.6209989 114.5184898  79.4323349  22.2555041
 109.0680313  56.2462044  60.7695389 109.9045944  56.5817261  61.0917377
 108.8471985  55.5354786  61.3714790 111.7568874 104.8645973  16.6089952
 111.8241215 105.5463696  15.9404957 111.9818687 104.0555954  16.1495030
  82.5221157  71.6734648  21.2024713  82.9433441  70.8670759  20.9049320
  81.5906906  71.5344381  21.0311508  31.2958855  66.3071632  24.0929699
  30.9503121  67.0278215  23.5662198  32.0739312  66.6709566  24.5154953
   5.4552407  77.6905537  10.5292356   6.3745922  77.4294853  10.5827332
   5.2159828  77.9106569  11.4295363  96.7656803  36.9477797  12.0252824
  95.8223248  37.1071315  11.9949818  96.9035339  36.4819670  12.8500533
  93.6355305  59.1538572  41.6219330  92.8308010  59.1111422  42.1384716
  94.3062305  58.7776279  42.1918917  63.2605821  23.1567849  92.4506317
  63.2642346  22.4933376  93.1405960  64.1710931  23.4461583  92.3917861
 113.0321503  65.6735516   2.7407408 113.1227970  64.7411108   2.9371467
 113.9320469  65.9929609   2.6745281  93.6575794  57.1693325   7.0381695
  93.0566216  57.1217728   6.2946570  93.3198547  57.8873301   7.5735664
  61.4479619  25.2486791  92.3071514  62.1431523  24.6472921  92.0401527
  60.6429750  24.7382106  92.2196280 104.3357182  75.7884264   8.0425870
 103.7084961  75.0656986   8.0203795 103.8028240  76.5722275   7.9087692
   0.4308934  43.8096952  40.5515575   0.1470608  42.9075480  40.4039192
  -0.0205188  44.3163347  39.8764539  98.7514687  89.4582939   0.5223994
  97.8429794  89.7594357   0.5088661  99.1237831  89.8555756   1.3096589
   7.8771841 105.1015092  87.0360615   8.2409346 105.6244469  87.7505239
   6.9941771 104.8766757  87.3292913 104.8287487  55.2777386  15.1362324
 104.9120808  54.6113825  15.8183324 105.7297993  55.4651308  14.8731065
  80.5964565  79.6649408  19.4915724  79.8086262  79.6758604  18.9480424
  80.3436184  79.1684198  20.2698851 103.6981010  74.3031025  18.7160361
 104.4713497  74.3845749  18.1577599 104.0089321  73.8305712  19.4882596
  44.1191542 107.8777171  83.8393612  44.8674357 108.1302500  83.2985003
  43.5086214 107.4673176  83.2269462  84.8203355  11.5410032  94.6476549
  84.6871835  11.5362157  95.5955370  85.5227262  12.1760406  94.5076589
  95.1063538 110.3336048  30.1006246  95.1829338 110.3517818  29.1466665
  94.3197727 109.8144341  30.2679110  67.8569871  23.9232482  89.9754782
  68.6815053  23.9057817  90.4613723  68.1212789  23.9788713  89.0571703
 100.9694195 102.5800228  35.5040383 101.4881325 103.0565643  36.1521745
 101.1659813 101.6581821  35.6707788  15.7986588  86.4768219  44.5494080
  16.4448685  86.2822151  45.2282143  15.7376618  85.6697655  44.0383625
   6.2651104  79.7023773  33.6791205   6.7547459  80.2448559  34.2973518
   6.7588944  78.8835144  33.6357403   8.0596299  48.4579802  27.9706550
   7.4875302  49.1056156  27.5589561   8.5120529  48.9425564  28.6611104
  93.2645130  74.3027401  65.2470255  93.7173176  73.6444664  65.7741690
  93.4226608  75.1275587  65.7062626 101.3872814  98.0349827  39.5491290
 101.9423008  98.7725353  39.8025084 101.0867119  97.6651382  40.3792524
  17.7631897  79.0619946  33.4252357  17.7600712  79.9193716  32.9996467
  18.6606545  78.9541721  33.7401366  13.6154312  78.9663649   9.5443022
  14.0770859  79.0363884   8.7087178  14.0596813  78.2542276  10.0044441
  94.5722389  68.9537907  22.5554895  93.8925648  69.6256828  22.5022578
  95.2624893  69.3527937  23.0851912  96.6312695  98.5693836  30.6305242
  95.9535980  99.0301228  30.1358461  96.7301273  99.0799618  31.4341211
 101.0229969  95.4436302  19.5835555 100.1011467  95.7003975  19.6060085
 101.0461330  94.6848106  19.0005517  23.6177391  87.4029922  55.7497644
  24.2910713  87.9417229  55.3342724  23.0438465  88.0319881  56.1870623
 113.7354279  60.3990602   3.5401335 114.5346546  59.9355555   3.7903878
 113.1605816  60.3131056   4.3006629  97.0109653  68.0191278  37.2687531
  96.1829090  67.7776670  37.6837969  96.7571831  68.3755541  36.4174104
 101.1791897  66.6529417  32.4054742 100.4946995  66.0696459  32.7333069
 101.2802124  67.3129272  33.0913639  83.7767964  21.0120572  89.3260290
  82.9294568  20.6969728  89.6406217  83.6994821  20.9951534  88.3721061
 111.0300446  66.9668722  19.8315275 110.4424572  67.4248075  19.2304730
 110.8416367  66.0390902  19.6902823  92.8507900  66.2809229  34.7314477
  93.6401367  66.1667061  34.2021847  92.1407032  66.3417625  34.0924621
 100.9654808  68.4320354  24.9785709 101.3416100  67.9916239  25.7406688
 100.4409504  67.7576685  24.5469093  55.7446176  20.6794872  86.8664886
  55.9258729  20.6789722  87.8063692  55.3756791  21.5457572  86.6941901
 102.3456287  40.8175898  34.0996194 101.9935513  41.6639853  34.3751049
 101.8140697  40.5720758  33.3423877   6.3778157 109.2723179   8.4077495
   6.8807453 108.6111736   8.8833302   6.4636845 109.0225887   7.4877000
   0.0777764  60.1235867  30.5678821   0.6078476  60.2511835  31.3546371
  -0.6636768  60.7185745  30.6795311  90.9800625  79.1643572  11.8191159
  91.6477776  79.8239279  12.0071673  90.3687859  79.6040726  11.2281680
  97.6945877  44.4758177  30.0191665  97.1975327  45.0709486  30.5804014
  97.2620964  44.5328617  29.1671491  77.1840954 108.0217648  31.6044044
  77.3100376 108.9658928  31.6991544  77.2225475 107.8685474  30.6603289
  96.3664436 105.9358406  56.8889332  95.7459354 105.8650017  56.1635494
  96.4064217 106.8730831  57.0792532 107.4233532  73.5206795   4.5436931
 107.8092670  74.3283653   4.8827305 108.1715679  73.0070877   4.2393419
 102.2943401  81.1521244  25.4540157 101.6784668  80.4281521  25.3408813
 103.1510830  80.7695770  25.2646017  99.7062016  58.5764551  38.6819577
 100.4560852  58.7086391  38.1019282  98.9705563  58.4187078  38.0902028
   6.7310185  82.8609943  32.9477024   5.9880394  82.5155067  32.4528813
   7.3495240  83.1533337  32.2782135   1.4397759 106.1861038  23.5357213
   2.2650761 105.8003712  23.8295245   0.8115525 105.4648781  23.5731769
 116.2934589  90.3735733  20.2926040 116.0553646  90.2414703  21.2102580
 115.5161095  90.1056767  19.8025107  25.7257903  16.8408717  23.8036060
  25.4787696  17.6698340  24.2135167  26.3233913  16.4326132  24.4300532
  97.7463722  69.2784309  27.7100468  98.2210350  69.7085476  26.9987631
  97.4397659  68.4551859  27.3299289  94.9817657  16.7398298   0.9745406
  95.0063229  15.9084594   1.4483042  95.8521843  17.1159315   1.1054949
  70.9830743  74.0158235  32.9075909  70.8797151  73.2265674  33.4392166
  70.0876409  74.2918359  32.7120304  10.4335594  44.4883537  44.7169352
  10.4870903  43.8113976  44.0423298   9.7168988  45.0549698  44.4313240
  80.2163982   2.0403224  26.3348246  80.6632233   2.5331134  27.0231056
  79.4473934   2.5691956  26.1223102 111.2070482  66.3445867  95.1453833
 111.6428297  65.5449856  94.8504865 111.8837993  67.0194853  95.0929094
  66.5913725  19.2663002   1.2052842  65.9309578  18.5914361   1.0483001
  67.0268202  19.3765140   0.3600203 114.0431309  16.1014664   8.8876957
 113.9365482  16.2122965   7.9429269 114.3245125  16.9615972   9.1995156
  48.1462574   4.7293553   0.4160777  47.4805784   5.3990769   0.2593160
  48.3603525   4.8172373   1.3448799  81.4891624   5.3663886   8.8109571
  80.5964279   5.6930894   8.9228463  81.4450455   4.4502819   9.0848815
  76.0249186  17.3455775  33.6840677  76.3337088  18.2492840  33.6193109
  76.4790487  16.9915032  34.4486761  28.3727228  66.8627239  81.9023903
  27.6349795  67.2229660  81.4102657  27.9776060  66.5005279  82.6954408
   0.8860075  64.9275703  91.8582164   0.6919443  65.7129598  91.3466172
   1.4823258  64.4227792  91.3052024  33.0469441  33.3287311   8.4111410
  33.7741494  32.8245521   8.0461645  33.0904508  33.1643081   9.3531090
  73.3299272  80.2843810  95.1694813  73.4899943  80.5313493  94.2586476
  73.6128776  79.3715478  95.2234000  59.8159552   3.0533183  17.4671364
  60.4193592   2.8915459  16.7419004  59.8310041   2.2430497  17.9765177
 112.4070804  45.1346976  77.2259422 112.7367657  44.3896592  76.7234929
 112.5390880  44.8841894  78.1403013  69.1236782  35.9636879  15.2403677
  69.3026972  36.2876773  14.3576360  68.1699944  35.9923339  15.3171897
  42.8591442  37.1179318   8.4276342  43.4355116  37.7326846   7.9736382
  42.0459366  37.1347761   7.9230189  47.5597715  22.2388291  14.5288229
  48.4426832  22.4904227  14.2578888  46.9858360  22.8621340  14.0834904
 101.6409206   8.0783874  20.4562354 102.3329639   7.9713994  19.8036551
 100.9552574   8.5665596  20.0003910  23.4874022  84.0616036  90.0343414
  24.2071306  84.5116354  90.4767056  23.9150011  83.5218311  89.3694861
  33.9555436  87.5282108   7.8850919  33.3290797  87.4699699   8.6064678
  33.4544307  87.2705947   7.1113014  50.0033998  37.5606823  42.1251297
  50.1374483  36.9069529  41.4389086  50.8377028  38.0269051  42.1780539
 116.8358343  81.7396475  78.0300887 116.2716930  82.1932436  77.4038060
 117.6036327  81.4835692  77.5190707  76.9786167  25.8953023   9.2989272
  76.5832853  26.2730050   8.5132539  77.7244616  26.4643526   9.4890004
  87.2385025  53.9419222  16.6609597  86.6120434  54.2338419  15.9987164
  87.0632172  54.4997215  17.4188328  72.1147013  33.5043812   5.5373532
  72.1746826  34.2393160   6.1476856  71.7531872  32.7882600   6.0595703
  65.9680939   7.2727716  17.0195639  65.6919575   7.6298404  17.8636503
  66.4737844   6.4916128  17.2438383 116.5375727  63.6107076  82.8770943
 116.4336794  62.7033383  83.1636568 117.0651548  63.5514230  82.0806177
  91.3258362  23.4921575  26.3983464  91.0515308  23.8098407  25.5380750
  91.1172295  22.5580430  26.3864088  70.7180452  33.8117480  15.9592998
  70.2773476  34.6081376  15.6630194  71.4719629  34.1266012  16.4580047
  71.8168640  25.6006122  35.1126957  71.6448164  26.4780354  34.7709918
  71.9300699  25.7283235  36.0545611  71.7939359  98.3884369   0.0840223
  72.4176580  99.0030753  -0.3025329  71.1847478  98.9413499   0.5733148
   7.6864588  43.8935340  67.1628328   7.3105871  43.6876262  66.3069387
   8.3480990  44.5605529  66.9796629  13.7985480  67.6999355  72.2278257
  12.9407751  67.2795034  72.1670862  13.8174402  68.3128715  71.4928527
  98.9698505  35.2142978  36.7968655  99.7884846  35.3322625  37.2786927
  98.2855701  35.4259801  37.4318337 108.8636494  52.0051432  44.7570372
 108.1729794  51.4908218  44.3390846 109.2388821  51.4155149  45.4110813
  56.5283251  53.9957094  36.5587592  56.5975046  53.5639954  37.4102712
  57.2369909  54.6391582  36.5581727 114.9446392  11.0661662  18.1240547
 114.9911308  10.9836543  17.1715510 114.0508556  10.8033836  18.3438897
  90.2113979  65.0009210  93.3865409  90.0245493  64.7943819  92.4707563
  91.1124485  64.7065104  93.5194418  37.3745728  26.9947433   0.7866900
  36.6780066  27.6041770   0.5425305  38.0591154  27.1392488   0.1334274
  68.8535166  33.2731938   6.5680802  68.0696297  33.7311077   6.2646544
  68.5191822  32.4909592   7.0068944  95.4325294   6.1440670   4.1324088
  95.1836681   6.0463905   3.2133019  95.7553482   7.0427310   4.1989353
  63.8492203   0.8503190  31.1664319  63.0124092   0.8941083  30.7037616
  64.1989136   1.7397901  31.1136532  54.5477009   3.0245355  47.7444267
  53.6033583   2.9539824  47.6048994  54.8960781   3.2926315  46.8941402
  75.2005243  38.9383340  35.9747076  75.0802517  39.5894575  36.6659427
  76.1446905  38.9273524  35.8176637  99.7612858  29.1276050  22.3961067
  99.5700455  29.5871091  21.5784764  99.4835758  28.2259059  22.2347045
  73.2281971  31.4871526  20.7393813  73.8362408  31.6467357  20.0175476
  73.7297821  31.6996002  21.5264726  90.5030155  42.1234131   1.1185278
  91.0000229  42.9366398   1.2072840  90.3882217  41.8136024   2.0169000
  69.3699169  20.0451636  25.0785136  68.6112213  19.6391237  25.4977322
  69.2381620  20.9849834  25.2034688  53.0467844  33.7655759  19.9151099
  53.7985706  34.0091825  19.3750119  52.3560286  34.3739533  19.6525002
  96.2209051  84.1146088  88.6253549  96.5881079  83.9966012  87.7493026
  96.0752266  85.0577927  88.6989404  80.5944443  15.9349811  29.4224215
  79.7266674  16.2483168  29.1674161  80.9242439  16.6044784  30.0217819
   1.4397871  79.6413923  45.7191988   0.7050192  80.2359391  45.5680032
   1.3318169  78.9549399  45.0609012  13.6811572   3.1586017  84.4051488
  13.9931041   2.8560151  83.5522945  14.2193776   3.9261712  84.5985027
  72.7745247  60.3384876   8.0743957  73.1171751  60.0382090   8.9162129
  71.9812250  59.8199892   7.9400021  41.8911982  19.1136003  23.9539075
  42.0674801  18.3006799  24.4275308  42.5728798  19.1525984  23.2830691
  93.3179188  76.7208910   7.8830135  92.4795723  77.0304346   7.5401115
  93.3071423  76.9736910   8.8061643  89.1406362  82.0531131  89.9964960
  89.7030275  82.5075436  89.3692430  89.0820425  81.1584426  89.6612920
  46.3902378  27.4247789  27.2691703  47.0351839  27.2430754  26.5856051
  45.5449438  27.3555994  26.8254089  34.5631695   4.2390239  12.5231552
  34.7733212   5.0798976  12.9293573  35.4108214   3.8087872  12.4108422
  48.0949306  34.2495489  43.7460375  48.7625265  33.5834360  43.5821962
  48.0399990  34.7403502  42.9260826  85.6203270  19.0663576  49.5123816
  86.5675354  18.9827359  49.4026566  85.3180790  18.1725919  49.6738243
  73.7699366   5.0148273  13.8135159  73.1509209   5.0369382  14.5432878
  73.2511997   5.2727735  13.0515397  49.1461736 100.1756643  24.0533304
  50.0177747 100.5262070  23.8698459  49.2340928  99.2321788  23.9179015
   1.1144268  82.3693300  88.6966463   0.6037008  81.9927574  89.4132967
   0.6649172  82.0780540  87.9033424 108.4089058  93.0606890  80.8916111
 107.4564569  92.9896832  80.8281239 108.5566967  93.8710499  81.3791640
  96.1940575  12.0975494  16.1263788  96.1604977  11.1409414  16.1234784
  95.2808285  12.3695195  16.0353255  80.5286980   9.8221993  11.1142159
  81.3634777   9.6043700  10.6995833  80.2018070  10.5710459  10.6156111
 115.3351307  35.7861328  32.3370433 116.0265255  35.1896715  32.0499325
 115.7780266  36.6261983  32.4568963   2.6272721  15.0696802   8.0334914
   3.3032555  15.7432294   8.1083333   1.9905133  15.4365182   7.4201357
  71.5189791   3.2750115   3.5420889  71.0438251   3.6879617   4.2631516
  70.8687782   2.7171507   3.1151661  96.6476536   8.5290265  23.4405971
  97.5960922   8.4525537  23.3364487  96.2933922   7.7747869  22.9695821
  29.6173841  97.4860202   6.2309718  29.6555453  97.4122833   5.2773798
  30.3636962  96.9730162   6.5409267  46.3237000   9.0531111   8.1016493
  45.3767633   9.0135634   7.9675561  46.4256763   9.3888867   8.9922041
  93.2833672   5.2764446  12.5079513  94.1148567   5.6346971  12.8186166
  93.2641315   4.3832278  12.8515005  73.1807804  43.7077713  19.8917317
  72.6855850  44.4320107  19.5089877  72.7703810  42.9209757  19.5328987
  73.5582495  66.6561699   4.7563776  73.8515711  66.9846582   5.6062543
  73.0795765  65.8532095   4.9621814  24.4537192 108.8991185   9.8229706
  25.2881700 109.2328708   9.4935203  24.6623212 108.5432946  10.6867456
  86.9825649  16.2787199  36.5763640  86.9570065  16.3565946  35.6226802
  86.5969276  17.0952809  36.8937707  57.0506477   1.5818377  30.0581050
  56.8800974   1.2829031  30.9512925  56.3215971   2.1692032  29.8588014
  77.1584016   1.1101236  79.8687335  76.3615781   0.7175245  79.5121224
  76.8561059   1.6332902  80.6111260  67.6869535  36.5828300  10.7339811
  67.7668571  35.6940341  10.3877258  68.1562233  37.1287370  10.1031053
  36.2835860  28.0038762  17.7021801  37.1999240  28.2646704  17.7945960
  36.2772989  27.0709729  17.9163861  99.2163532  59.8672987  78.3545609
  98.7931459  59.0110809  78.2911594  99.6577900  59.8539830  79.2037876
 112.1548735 104.6376305  10.2971995 111.6681849 105.2401631   9.7347748
 112.7420890 104.1740899   9.7000903 100.6242388  91.9026280  85.7048114
  99.8151796  92.3460317  85.9598644 101.1270540  91.8360997  86.5165873
  53.8453007  22.6031876  42.9029131  53.1821299  22.3684502  42.2538042
  53.4300184  23.2819676  43.4349155  85.9431904  91.5768719  64.8417182
  85.1715391  91.5730024  65.4080887  86.1818664  90.6538964  64.7558065
  79.7701454  24.8858809  17.2136450  80.5179977  25.3823066  16.8812227
  79.1392708  25.5539799  17.4817371  13.2720434  64.7103406  88.8607176
  12.7756273  64.6399129  88.0453398  12.6329577  65.0156445  89.5046051
   8.9544737  71.7255736  86.1887480   8.0625593  71.9012702  85.8890195
   9.4625055  71.6261602  85.3836031  80.0163651  55.8733177  12.3944640
  80.0532150  54.9427986  12.1730852  79.2170477  56.1884260  11.9725275
 106.4085119  55.9589720  80.9256132 106.2817686  56.8669895  80.6505270
 107.3576658  55.8356110  80.9145184  93.4154909  73.4276236  80.8646961
  92.5863378  73.3075441  80.4017444  94.0848177  73.1920708  80.2222414
   2.5162565  84.5165253  89.8127504   2.0765459  83.6948014  89.5944418
   2.0989763  84.8029662  90.6251945  66.7202377  40.7111359   3.2045346
  66.9818163  39.7967458   3.3126932  66.4341593  40.9831667   4.0765375
  75.2938747  85.1430225   9.8400044  75.1331186  86.0852814   9.7896528
  75.3157616  84.9535656  10.7780135  11.3849778  32.5246596   6.3857442
  10.4736084  32.3343754   6.1634302  11.4760250  32.2334623   7.2930193
 108.0909729  39.9183893   4.3543226 107.2250557  39.6067238   4.6175382
 107.9155731  40.5599546   3.6659482 107.9585474  82.0484496  78.3994718
 107.5479954  82.7478147  78.9079674 107.3173778  81.8377829  77.7206834
  62.0308065  45.5878639   9.3523669  62.0865822  45.2650595   8.4529680
  61.1098528  45.8228254   9.4658238 112.6764362  63.3660842  88.0691691
 113.0282419  62.8296632  88.7796022 111.8888395  62.9017002  87.7858444
  73.1665564  42.2869730  42.4576998  72.7986288  41.5925264  43.0041504
  72.4640036  42.5083208  41.8464231   8.7954182  39.4808793  12.6029313
   8.2715649  40.0726986  12.0629716   9.5003838  39.1897964  12.0245445
 111.8806427  70.9840239  78.0967148 111.7142313  71.9146193  77.9466124
 112.7827995  70.8519901  77.8053101  75.6639481  35.4748988  17.5273693
  76.5214777  35.8967805  17.4735546  75.8609104  34.5502400  17.6771927
  68.8786316  22.0877337  20.3173518  69.3010235  21.8459988  19.4931066
  69.0757561  21.3618851  20.9093952  97.9904652  25.1288605  45.1781607
  98.9059639  25.1972818  45.4491138  97.5042248  25.0386405  45.9977102
  61.9435072  41.3707352  38.5166907  62.0782948  40.5101347  38.1199121
  62.8158903  41.7640972  38.5376644  17.4315781  10.2918088   0.1400948
  17.1581787  11.2081623   0.0978906  16.6455025   9.7964907  -0.0900780
 112.2468727  82.5800777  94.5314191 112.8991859  83.1879044  94.1831798
 111.9436138  82.9919100  95.3405271  88.6491871  32.6992130   8.3671629
  88.4265423  31.7782664   8.2310814  88.0041695  33.0102372   9.0023381
  69.8940420  27.5970912  23.9362192  69.0579891  27.4601650  24.3817472
  70.4486942  26.8793368  24.2418694  56.3096285  23.1141520   5.4008168
  55.9432459  22.5394344   6.0729009  56.5258360  23.9212775   5.8677566
  47.9492646  97.9622435  18.4799397  48.8587266  97.9354357  18.7772429
  47.8986531  98.7471353  17.9343998  33.1504595  93.2502294  94.5577353
  33.6452639  93.5830880  95.3064708  33.5256159  93.7029124  93.8023731
 112.5332086  96.0620070  86.5655174 112.0369499  95.5686141  85.9124305
 111.9602316  96.0886479  87.3318197  48.5577583  23.6071324  18.5219777
  48.8116169  22.6917529  18.4042203  48.8267851  24.0366554  17.7099645
  13.0259573  61.5267575  77.1161981  12.8561270  61.4549745  78.0554719
  13.7540781  60.9259284  76.9578512  17.9229414 102.1718550  88.4991439
  18.8622534 102.3174048  88.6120130  17.5421774 102.3954297  89.3484159
   2.2789251  68.8148368  90.2568247   3.0480349  69.3839396  90.2856560
   2.2443163  68.5046101  89.3519534  36.1139750  11.1369836  44.3484545
  35.2409315  10.7886541  44.1676426  36.0916758  12.0298088  44.0040731
 116.6539495  78.4690262  66.5587779 116.7935579  79.4063760  66.6933771
 115.8179872  78.2872916  66.9881649  85.6962395  57.1783447  15.0333393
  86.1087036  57.4440718  14.2114532  86.4114952  57.1727705  15.6694293
  66.3801813  17.6483333  22.8973389  65.5662107  17.2147477  22.6410460
  66.8868780  17.7047300  22.0872092 100.6290913  28.7201977  15.5140734
 100.8633232  29.6322799  15.6857598 100.7034016  28.2894588  16.3656449
  96.8602579  74.2361844  87.1500059  97.1081035  74.9554003  86.5690305
  96.6710346  74.6591926  87.9875566  60.7382393  53.0872154  17.3040509
  60.2731323  52.5034714  17.9033399  61.5549135  52.6280308  17.1080422
 106.1266041  19.9779916  29.6508026 105.3598595  20.3919935  29.2546558
 106.3471413  20.5419803  30.3920937  64.7474670  41.0157728   9.3814784
  64.1660738  41.7738104   9.4413757  65.1496077  41.0901451   8.5160398
 110.8260601  81.8901730  71.3908287 110.6573503  82.7773739  71.7080708
 110.0903623  81.7000032  70.8087464  77.3598480  72.4531269  20.5908036
  77.1077538  72.8007889  19.7353435  76.8113852  72.9295635  21.2140489
   5.5136818   6.0456562  11.1406052   5.5668682   5.0933504  11.0598743
   6.2332196   6.2767845  11.7280400  39.7514021  76.7888857  75.4420562
  39.7780287  77.3679949  76.2037356  40.5262625  76.2347055  75.5353232
  65.7584095  43.2271528  14.9729621  65.3022528  42.5366449  15.4539549
  65.1545429  43.9696455  14.9895465   0.0318300  85.3808928  87.6452829
   0.1811134  84.9089218  88.4645452   0.4227936  84.8230482  86.9728346
  14.8148214 102.0206643  93.1164210  14.0204298 102.2475005  93.5998695
  15.4959070 102.5709153  93.5031678  28.1397020  74.4236828  92.2348200
  27.6769888  75.2595759  92.1764116  28.7214625  74.4183386  91.4747162
  26.9899714  90.7192612  79.0447028  26.6663801  90.9782959  79.9075003
  27.9429018  90.7243562  79.1348572  31.0070955  54.7442414  73.9903851
  30.3380644  55.4276984  73.9513536  31.8323290  55.2215270  74.0764924
  78.1512594  59.0259981  35.2896452  78.3850861  59.9098396  35.0061321
  77.2060633  58.9714622  35.1487255  43.4061241   3.7693375  10.5872345
  43.0931425   4.3723401   9.9129468  43.9659214   3.1524527  10.1157331
  91.8323135  18.3468509  12.0416641  92.7606964  18.1532288  11.9118404
  91.3770771  17.7384186  11.4595973  99.1496468  21.4301205  16.5168595
  99.6230507  21.1451221  17.2984552  98.2405949  21.5138912  16.8046844
 112.9306810  64.5652611  92.7424531 112.3979156  63.8543773  93.0988795
 113.8303726  64.3240047  92.9628574  76.0270882  61.4619780  30.2505231
  75.9610939  61.9937944  31.0436487  76.5765715  60.7204580  30.5043960
   2.6639712  87.2988749  91.5409161   2.0774614  86.5480161  91.6328378
   2.0813810  88.0583168  91.5330224  82.7348328  61.5088797  39.0756464
  83.4703064  61.0322475  38.6907721  83.0040264  62.4270487  39.0486670
  19.6923506  78.9209820  59.9804206  19.1476690  79.4220067  59.3733497
  19.1230070  78.7547732  60.7317229  98.8636589  14.1345930  46.1094189
  98.7331009  13.8123667  47.0012426  98.5215664  15.0284386  46.1252260
  70.5150223  13.7185407  20.8403778  71.0344267  13.6789620  20.0373316
  71.1634493  13.7423337  21.5440893  95.7781982  44.2298698  32.5291348
  96.1518764  43.3596516  32.3901320  94.8704338  44.0630054  32.7827835
 102.9139328  36.7348433   5.8534324 102.4030781  37.1124482   6.5694463
 102.6245499  35.8235979   5.8073419  43.4123593 109.6427143   0.0812930
  42.9247457 109.9048111   0.8621696  44.2891389 109.4356025   0.4047143
   2.9593813  86.1957646  83.7469752   3.7705004  86.2061668  84.2551096
   2.5136244  87.0070053  83.9907415  98.1529617  32.2597694  14.2860699
  98.1136608  32.3547029  15.2377391  97.3725033  31.7522025  14.0635741
 110.8097761  87.7873159  91.2471883 110.7488458  88.5297657  91.8482600
 109.9256056  87.6928116  90.8928679  15.3816473 109.3755961  72.2374292
  16.1155569 109.2243672  71.6418357  15.4627001 108.6867905  72.8971334
  84.8942089  33.5798120  38.5494924  84.7651386  32.7381253  38.9866853
  85.8067226  33.8058424  38.7296462  80.8296490  11.9505548  14.5543456
  80.2818012  12.2810304  13.8423967  80.6582355  11.0089803  14.5712078
 113.1578319  75.3925825  70.4141350 113.5163610  74.8223699  71.0942407
 112.2931307  75.0273622  70.2266736 108.7766647  26.6549611   6.1265844
 108.0418396  26.6121435   6.7384964 109.5121765  26.2771034   6.6087353
  40.0945520  35.8052969   5.1502597  40.2481318  36.4955783   5.7953608
  40.9689331  35.5653143   4.8435003  26.3766539  63.9538074  57.0658823
  26.9617045  64.0365047  56.3128157  25.6509649  63.4168876  56.7475744
 101.1719799  24.6254253   9.1102260 100.4922485  25.1996946   9.4629526
 101.5516949  24.2025661   9.8804462  12.1682019  26.6487288  39.7184563
  12.5891823  25.8640075  40.0694895  12.8506798  27.3193288  39.7459912
 105.9334867 109.8037625  84.2403181 106.5058821 109.4976140  84.9437852
 106.4798038 110.4016019  83.7300678  69.4269448 106.0222136  25.2193546
  69.5919686 106.3321101  26.1098409  70.1174146 105.3792959  25.0576830
  44.7524530  88.9805709  16.7591619  44.3868238  89.3569671  17.5597072
  45.5982476  88.6217867  17.0277679  81.7297935  17.4849832  43.2853937
  81.4346981  16.8508995  42.6318693  82.3800945  17.0103192  43.8031054
  67.7270794  87.8582859   4.2120805  67.1741486  87.1409702   3.9023304
  68.2406664  87.4749851   4.9230948  78.4821749  51.2919474  12.0435035
  77.8501940  51.1886549  12.7549529  78.4430742  50.4631615  11.5661955
  71.4054775  35.0745320  30.9834576  71.5914917  34.3677759  30.3652930
  72.2563219  35.2876282  31.3667202  94.2258263  15.4447091  39.6747994
  93.5314465  15.3484869  39.0230250  95.0287437  15.2209365  39.2041826
  73.4217167  40.8993101   7.0655382  74.2613649  40.9940815   7.5152451
  72.8615904  40.4475689   7.6967484 112.1964615 109.8296929  95.1586660
 112.0120113 110.3758050  94.3944868 111.3334005 109.6036244  95.5054367
  53.5208797  24.6858954  21.3364267  52.9465437  23.9256978  21.4284348
  53.7135506  24.9507689  22.2358441 100.6405258  20.9803104  18.7226462
 100.6725121  20.3623080  19.4529068 101.4530563  21.4808583  18.7967157
  21.8320447 107.0329856  23.5252476  21.6631347 106.3698967  22.8559089
  22.7778464 107.1754619  23.4879470 110.9273928  73.6466063  78.2935281
 110.6308763  74.5514739  78.3911224 111.1607998  73.5695041  77.3684295
 104.3221348  97.7275325  74.9013110 103.5245245  97.8781224  75.4086252
 104.2861336  96.7998601  74.6681614  97.5201702  20.0995970  14.2681623
  96.8179512  19.8356509  14.8626864  98.0751610  20.6756926  14.7938287
  83.2187080  25.1474810  36.8506694  83.5363770  25.4311252  37.7079105
  83.9970875  25.1511192  36.2935805 114.9516886  89.0772415  92.3142781
 114.3483036  89.5546532  92.8836911 114.6885937  89.3224979  91.4272262
  67.1464443  25.1562858  26.9237638  66.6967297  25.9768558  27.1253872
  67.9940510  25.4279494  26.5716290  64.0628052   5.2406853  32.8976774
  64.0891695   4.5017067  32.2898579  63.1812525   5.6004173  32.7992702
 103.1416798  20.2113867  -0.0605271 103.2318211  20.5580878   0.8271126
 103.4296513  20.9268260  -0.6274948   2.5705588 109.1156722  90.8941941
   3.2652628 109.2639113  90.2525969   3.0031836 109.2131043  91.7424698
  91.0283566   2.9243591   7.5711048  91.8144131   3.4699780   7.5964952
  91.1968422   2.2940378   6.8707192  83.3178043  46.1453247   9.3992037
  82.5108719  46.6588306   9.3617737  83.9036274  46.6599131   9.9544007
 100.9693497  68.3167518  95.8504174 100.3580635  68.2167245  95.1206543
 101.8353813  68.2473863  95.4486527  45.1456988  86.7126632  71.0679551
  44.8103296  86.3149667  71.8714424  45.9075415  87.2183824  71.3509245
  44.8303604  30.4657316  39.5665860  44.1909122  30.2060413  38.9033365
  45.3078508  29.6607256  39.7670865 115.6603718   8.5257709  34.7669792
 115.3948689   9.0092272  35.5492926 115.7461739   7.6195675  35.0630641
  50.6715470  30.3006543  87.7133329  51.0784703  29.4437017  87.5857134
  50.0236112  30.1577748  88.4032579  95.4966164  25.6345320  11.4891839
  94.8130226  24.9723506  11.3869345  96.2949944  25.2037001  11.1838925
 110.0922489  43.2652473   3.5689107 110.7829475  43.4447002   4.2068565
 109.3329144  43.7476015   3.8959748  57.5510198   1.3460101  81.8763502
  57.9647618   0.9561099  82.6464351  57.4888307   0.6267156  81.2478741
   4.2618143  88.0696536  89.4178166   3.7066900  87.6570106  88.7561555
   3.8464605  87.8477550  90.2511688  76.6627216  10.5622888  12.9955924
  76.4721823  11.3968337  12.5672674  75.8052683  10.2246773  13.2544804
  97.6479340  79.9507236  33.6452842  96.7434502  80.1315689  33.3894587
  97.5763702  79.2662287  34.3105483 106.5219688  18.5726452  52.2116709
 106.2968349  18.8203681  51.3149071 107.3741341  18.1435239  52.1348429
  13.0082094  57.6536522  76.3267322  13.2428229  57.8732244  77.2283848
  13.3660090  56.7759523  76.1931046  84.1851902  44.8152542  15.4445291
  85.0507545  45.1094913  15.1608944  84.3116474  43.8980055  15.6872129
  16.2564432 106.5085936  59.7746130  16.1793863 107.2345162  60.3937455
  15.7031595 105.8198357  60.1430173  85.2167034  45.3883171  19.8325861
  85.0102043  44.9346638  20.6497693  84.4758320  45.9779024  19.6921241
  14.3822348  98.5507251  80.6709524  13.5907232  98.2630158  80.2160283
  14.0615618  99.1056967  81.3818701  72.4444449  48.5881150  87.9854883
  72.5050413  48.6373634  87.0314779  72.6381457  49.4767196  88.2839747
 100.2888203  17.2786260   7.7402812 100.7038784  17.6987302   8.4935880
 100.2896404  16.3459623   7.9556179  78.3574533  41.5604067  13.7131763
  78.0880260  41.1525297  14.5361471  78.4333038  42.4916935  13.9209902
  53.7618494   4.4719937  38.5156846  54.3453407   4.7360277  39.2270589
  52.9974413   5.0404370  38.6094117  27.8774291   5.8753814  93.5129224
  28.6473733   6.4413251  93.4570210  27.1350938   6.4690818  93.4002742
 110.4621601  41.2951231  25.9186769 111.0929489  41.5005589  25.2286506
 110.2341652  42.1449661  26.2955260  29.2590487  74.5296276  89.6458568
  30.1662409  74.8299862  89.5909603  29.2823946  73.6341561  89.3084891
  84.4106865  18.7032735  11.3125908  84.2879772  17.7743948  11.1167336
  84.0034294  19.1591918  10.5760384  85.5143452  34.7110271  19.2368162
  85.7994556  35.5530071  19.5918036  85.6679058  34.7838926  18.2948279
  71.3546515  10.6183290  28.1995082  72.3072577  10.7045054  28.1627822
  71.0600328  11.4080405  28.6531448 110.7950132  76.5061475  78.1993337
 109.9400347  76.6873146  77.8089233 111.3644092  77.1967483  77.8600831
  69.9199295  20.4865432  22.3223877  70.3861046  21.3175058  22.4141121
  69.9445105  20.1002216  23.1978226  75.4045916   8.1988269  21.8258929
  74.5198059   7.9154998  21.5954351  75.2791786   9.0355831  22.2734880
  21.3027412 101.7218291  33.5974884  20.8030063 102.5298440  33.7141299
  21.7990857 101.6277068  34.4105172  73.1654423 103.3799601  90.4516591
  73.9773720 103.4694625  89.9526675  73.0744856 102.4378014  90.5941199
  68.3005714  24.8363614  13.0256331  67.6148415  25.1524425  13.6139345
  69.1016626  25.2496123  13.3476663  87.8263283  13.6792755  23.4612417
  88.3998966  14.4088805  23.6956072  88.0661201  13.4662402  22.5593829
  57.6675081   7.8500456   4.9665833  57.2898388   7.5540781   5.7948333
  56.9107819   8.0227441   4.4064340  43.7913191  92.9301310  77.5520106
  42.9596388  92.7256299  77.9794641  43.6479818  93.7848902  77.1457155
 101.5775221  56.7705934  75.0794120 101.3452165  55.8729611  75.3171607
 100.8321398  57.0830718  74.5665832  73.8286448  25.4876709  21.7026877
  74.4338703  25.4444408  22.4430013  73.7380695  26.4232302  21.5216875
 107.9453199  73.6588693  59.6025343 108.0789583  73.1791282  60.4199810
 107.8020542  74.5646001  59.8770471  62.7322912  60.9358740   0.8783520
  62.1702623  61.3658619   1.5229203  63.5674000  61.3993549   0.9416577
  43.3376074  21.4496541  22.1385145  43.9777088  20.7768989  21.9063568
  42.5788641  20.9593225  22.4549246  35.3069079  99.4007111  82.3811300
  35.9789908  99.7609473  81.8025334  35.4878676  98.4610177  82.4025138
 103.3474827  61.0342884   5.4632968 104.0369701  61.6477537   5.7172596
 103.8173389  60.2510500   5.1769251  65.5199003  40.7601500  26.9073129
  65.0943041  40.6307459  26.0597563  65.9327173  39.9181008  27.0990777
  48.0336571  54.5433950  28.1526875  48.9836693  54.4783211  28.0553198
  47.8924894  54.5907545  29.0982342   2.3658716  90.2947236  88.1721772
   1.9540178  89.5743490  87.6950278   2.8973925  89.8651648  88.8423969
  12.3389208  90.6673027  89.2276879  12.8010046  90.7108737  90.0648339
  11.6501105  91.3280583  89.2996402 111.7156410  19.9052978  37.6223373
 111.9141293  20.6013846  38.2486749 111.2157440  20.3401113  36.9314885
  85.8910084  42.7844954   3.0356410  85.2271080  42.1863508   3.3787027
  86.0888386  42.4471283   2.1619813 113.5951441 109.0220118  91.0497864
 112.6968210 108.8502837  90.7673775 114.1081016 108.3137561  90.6605925
 102.0836449   3.8886407  34.4602585 102.3954773   3.0234975  34.7258234
 102.7407551   4.1992894  33.8374066  27.2421229 103.3414651  89.7367342
  27.9373610 103.0203248  90.3109737  27.3069822 102.7951384  88.9534374
  88.7570095  52.1594238  45.0111294  88.9539242  52.1146441  45.9467840
  89.3833351  51.5598440  44.6055937  34.3344366 109.4170953  69.8393960
  33.7277281 108.8541461  69.3585320  33.8211310 110.1968384  70.0509449
  94.1157532  43.0224848  35.9140396  94.8941994  42.5369740  35.6410217
  93.6465549  43.2007217  35.0989866  69.1781855  13.6983204   3.7251630
  70.0665760  13.9739072   3.4992352  68.7108850  13.6880291   2.8898454
  76.9970179  42.0148039   5.1508093  77.6984501  41.3986254   5.3618973
  77.4516582  42.8224564   4.9115726  88.7889194  34.4593596  17.7864552
  89.2083836  35.2792096  17.5254416  88.9042950  34.4229913  18.7359798
  43.3361417  17.5422754  78.5042186  43.8250142  17.7769698  77.7154525
  43.3758908  18.3257808  79.0526433  96.5015888  20.9156156  16.8190837
  96.1433792  21.8029094  16.7939925  95.7318115  20.3468966  16.8343210
  10.4570526  53.8161039   7.0538706   9.5837063  54.1927481   6.9459456
  10.9008927  54.4100475   7.6592320  76.0082722  44.7690916  13.9424503
  75.9415770  43.8883209  14.3112719  75.3554106  44.7857809  13.2426453
  79.5658684  23.4909511  12.3393273  79.3335724  22.7916694  12.9502904
  78.7282181  23.7827349  11.9795573 113.5424631 103.3810187  79.5019062
 114.2140215 103.7566186  78.9325531 112.7617138 103.9078141  79.3311973
 111.0157204  43.5708427  15.6936431 111.5359783  44.2515898  15.2668571
 111.4602852  42.7534580  15.4689777  81.3478279  17.9589808  31.1679530
  81.0442734  18.3124363  32.0041084  80.8271122  18.4196246  30.5100083
  61.7803621  33.9153314  11.0189736  62.4042416  34.2869711  11.6425836
  62.1343851  33.0502582  10.8127022  79.5785379  51.2912846  37.2532082
  79.5012093  50.4686451  36.7699742  79.8678875  51.9271517  36.5988541
 113.2347982  73.6606491  94.3286529 113.8703173  74.1822100  94.8188818
 112.4851101  73.5802997  94.9183493  31.2257635 103.7021495  72.4639411
  32.1452105 103.4366942  72.4832650  30.7442248 102.8874636  72.3202701
  87.5759792  48.4708500  14.8137581  87.2243214  48.9733648  15.5486417
  86.8040085  48.1014395  14.3849969 101.6069031  40.9705162  15.7292902
 102.4642086  40.6992817  16.0574353 101.6978645  41.9098759  15.5694294
  21.2183804  68.6705685  18.3067238  20.6372303  68.3244324  17.6294613
  22.0997090  68.5309124  17.9603481  48.1004715  65.9564924  12.1310973
  47.2363043  65.9022617  12.5391471  48.6637926  65.4225540  12.6912856
  41.2561399  59.8698129  90.1216461  40.6713325  59.6589460  89.3937929
  42.1220189  59.9418916  89.7200413  27.3957503  93.0848623  85.6985517
  27.9226935  93.8581682  85.4971416  27.5500071  92.4917699  84.9632426
  11.2571585  99.0316916  83.9785882  10.5534899  99.2106152  84.6023484
  12.0007765  99.5386840  84.3044944  62.6759005  14.4988203  39.5768666
  63.4173107  13.9767551  39.8834467  62.1785116  13.9027631  39.0169096
  98.8763046  53.1768894   6.3662791  98.0220413  52.7612400   6.4833552
  98.9795017  53.7337208   7.1379775 100.9492588  12.2360384  45.2858591
 100.7807732  11.3471603  45.5984926 100.2797794  12.7708924  45.7124376
 111.9415855  41.5650320   6.8326336 112.2915459  41.7045212   7.7125806
 112.2850227  42.2965002   6.3195598 109.6719933  49.0775967   3.7216344
 108.7192631  49.0221405   3.6477736 109.9536800  48.1748772   3.8698936
  90.5513477  45.3616142   4.3361568  89.7231960  44.9165583   4.1563553
  90.3075409  46.1107874   4.8797864  55.0641328  13.6219777  92.7543079
  55.6801015  14.2383231  92.3581489  54.2038804  14.0149774  92.6068850
  89.7800332   7.4826659  78.7053068  89.0442163   7.4447288  79.3163462
  90.5543500   7.3627080  79.2550989   1.6471237  55.0231504  33.7717724
   1.1581749  54.6100712  33.0600691   2.4199433  54.4696712  33.8842058
   9.8618359  20.2958608  31.6245008   9.5914692  19.5096064  32.0987725
   9.0418000  20.6903529  31.3276172  94.9462509  40.0868034   7.4780649
  94.3155098  39.7396469   6.8472916  94.4859028  40.0595570   8.3168519
  48.6821729  10.8778562  79.3142982  48.4304029  10.1114692  79.8295553
  48.2188588  11.6067065  79.7270353  10.9320032 109.4234944  93.9640606
  10.3396856 109.2669488  93.2286097  10.9973013 108.5757209  94.4036552
   1.4814133  94.1621304  11.9341433   0.7365746  94.7630215  11.9146419
   2.2254319  94.6936607  11.6510189  97.4378395  30.7036424  23.9071608
  97.7892494  31.2151313  24.6359444  98.1699848  30.1559210  23.6239672
  32.7145445 102.8910495  85.9682651  33.4643328 102.4897576  85.5289222
  33.0665838 103.2105208  86.7990740  82.5384331  28.4453511  29.9913883
  82.5165462  28.6788321  29.0633583  81.8933964  27.7433276  30.0770140
 100.3126907  14.4797754  52.9280329 100.9580898  14.7522771  52.2757769
 100.3588581  13.5236919  52.9257631  90.9786797  25.2337074  19.2315519
  90.3719425  24.4943786  19.2702866  90.4646683  25.9456658  18.8505757
  71.0728341   0.3039207  93.6218620  70.4853612   0.9440221  93.2201384
  70.4935628  -0.3942500  93.9272000  72.3120117  28.2720327  29.4592595
  71.5142632  28.7031317  29.7658277  73.0235720  28.7777066  29.8519564
  86.5281773  22.8462672   6.1732137  85.7221794  22.4096966   5.8975250
  87.1545124  22.1339297   6.3016987  76.3576508  31.1755061   5.1967168
  76.3153553  31.6388297   4.3601906  77.1819973  31.4636612   5.5886990
 103.5533541  88.0429507  86.8669065 103.8015192  87.3763395  86.2263777
 103.4853714  87.5665141  87.6943244  77.7347088  80.3311253   3.9106163
  78.2898760  79.9037075   3.2584432  76.9724798  79.7574949   3.9892462
  63.1409055   8.3647241  93.9565283  62.6660234   9.1886510  94.0654192
  63.4148007   8.3655490  93.0393516  49.1709119   8.0742826  85.4041214
  48.6476022   8.0041255  86.2025298  49.9844819   7.6137866  85.6097545
  15.8707773 107.8979302  76.8958672  16.7693388 108.1272746  76.6587599
  15.9279310 107.6192475  77.8098162  72.6589823  67.7156878  16.4210033
  72.9286289  67.8327084  15.5100548  71.8400908  67.2230101  16.3669896
  98.8482571  65.0954151  33.0919719  98.0746746  65.1590729  33.6521053
  98.5038948  64.8403025  32.2360730 101.6160583  28.3640671  19.3249393
 101.0071278  27.7700162  18.8861489 102.4586391  28.1987882  18.9018929
  81.1181068  60.0090551  28.0699778  81.6324711  60.0993586  28.8721657
  81.1968422  59.0837669  27.8378558  70.1506424  59.7782326  36.5950966
  69.8456526  60.4624367  37.1909833  70.3983212  59.0535116  37.1692586
  87.1946239  52.6011038  24.3401814  88.0514717  52.3596096  24.6919107
  86.8860435  53.2983589  24.9188375  83.5910034  71.5771341  16.9014180
  82.6612473  71.7852497  16.9934809  83.6033154  70.7016325  16.5146744
  75.9795666  78.3018875   4.1156909  75.2126646  78.2157421   3.5494071
  76.3466120  77.4188614   4.1577932  40.8427173  45.4185380  94.4516910
  41.0827905  45.5316915  93.5320206  41.6224557  45.6871785  94.9375721
  81.4599991  28.3679318  34.5215154  82.1251774  27.8843665  34.0316772
  80.7885742  27.7157331  34.7216296  65.4894048  18.4611644  80.4261370
  65.5432015  18.4537496  81.3817962  66.0972482  19.1500224  80.1573689
   8.6725849  51.0760117  29.2685461   9.0186352  51.2238550  28.3884168
   9.4384331  51.1337709  29.8398447  49.0149575  11.6609754  94.1513343
  48.9190656  10.8574714  94.6626211  48.4535390  11.5273656  93.3876665
  95.4883099  10.6705868  25.0450754  95.9222031   9.9524659  24.5843530
  96.1752892  11.3255513  25.1687908  60.9500456  41.6775799   8.3147252
  61.7204714  42.2456312   8.3149362  60.7241869  41.5806580   7.3896176
  28.4613382  97.8259421  92.8414075  28.8608896  97.3547316  93.5725378
  28.3337271  98.7155295  93.1709129  39.9724257 109.9073792  81.4310880
  39.3444025 110.3382922  80.8513232  39.8050940 110.2901793  82.2923072
  21.1985457  96.8489886  95.4945492  21.6940081  96.1761857  95.0275565
  20.4431975  96.3838626  95.8541865  91.6327477  61.3220930  44.9569988
  92.3079777  61.3245392  44.2785549  91.4727020  62.2481060  45.1389742
  67.5961685  59.1256905   3.9020115  68.1033373  58.6796379   3.2237414
  67.1574163  59.8410082   3.4415305 105.6560707  75.3932905   1.7562288
 106.4486885  75.7454157   2.1612051 105.1401329  75.0594950   2.4901368
  71.9789457  42.5044012   0.4749655  71.7713642  41.5700722   0.4878244
  72.8564453  42.5495958   0.0952581  86.3825607  77.9950094  34.7381210
  86.3119507  78.7736320  34.1858530  85.7879448  77.3616219  34.3362761
 106.9227982   2.8671429  39.3530202 107.0949745   3.6746287  39.8373246
 107.6473808   2.8018007  38.7309766 102.5830555  23.2640338  33.3047771
 102.5403690  22.4874735  32.7467752 103.1215858  23.8834929  32.8123474
 109.0167236  87.8031826   1.2045379 108.5923195  87.4399757   0.4272394
 108.5181046  88.5962582   1.4011469   2.7551043  99.4263316  47.2670026
   3.2170069  98.6040450  47.1035047   3.3965552  99.9759436  47.7172180
 114.9563599  55.3582191  30.2487659 115.1935101  55.0319004  29.3807197
 114.0364838  55.6099319  30.1669359   7.1498930  60.8955616  72.4683781
   7.8455603  60.2586413  72.3052450   7.1364844  61.4421106  71.6826721
  29.7287905  97.1599341  90.2026005  29.5340407  96.6418458  90.9835543
  30.6756365  97.2963858  90.2356847  96.1333942  40.7761812  14.0422678
  96.8000698  40.1315165  13.8052452  95.9005165  41.1955309  13.2139289
  75.3489494  20.3288698   7.3271704  75.0717592  20.7791948   8.1250447
  74.5365906  19.9967909   6.9450337  15.0366842  99.4545031  92.3578058
  14.9075281 100.3789330  92.5699003  15.8583605  99.4338513  91.8672465
 104.6238613  85.2499676  36.9557190 103.9289856  84.6007633  36.8465471
 104.6442509  85.4230118  37.8969264  27.3346674  96.1429072  78.1472905
  26.9198668  96.0067034  78.9991279  27.4583971  95.2606059  77.7973350
  57.5273782   1.0149135  60.5471249  56.6071397   1.1753930  60.3382416
  57.8618318   0.5257215  59.7954174  92.5933361  47.1970749  19.0299845
  93.4022999  47.3272467  18.5351491  92.1544266  48.0471611  18.9993680
  84.4976616  47.7645588   6.6270852  84.3874931  48.1665659   5.7654101
  83.6046791  47.6267147   6.9430166  13.4021437  99.9655867  74.5859046
  14.0614855  99.9385119  75.2792736  12.6460802  99.5102692  74.9564357
  85.0458813  31.6113162   3.9336270  85.0322151  30.6857586   3.6899316
  85.7739544  31.9799709   3.4333938 116.9285887  89.2430211  82.9695507
 116.6900843  88.3385349  82.7664419 116.8499678  89.7046853  82.1347363
 107.5693417  55.2990627   5.1671433 107.8904343  54.5869398   5.7203269
 107.5371075  56.0584450   5.7489771 102.4760818  41.3194227   2.8922752
 102.3352337  40.5293179   3.4139347 101.5976620  41.6717863   2.7493069
  72.9522860  99.0966035  93.3764871  73.3911287  99.1088057  92.5259008
  73.6202585  99.3926192  93.9948924  82.2008514  40.4343796  36.4678526
  82.8639889  41.0091400  36.0855699  82.2530746  40.6011915  37.4089575
  94.1211319  50.1847315   1.8507679  94.2194653  50.0231409   0.9124450
  94.8680592  49.7388554   2.2501650 102.4121015 104.3889046  75.5758162
 102.3423260 104.7308636  74.6845122 103.2540815 103.9339066  75.5925544
  97.1873379  68.2914305  33.7394166  97.4949551  68.0823183  32.8574443
  96.4364243  68.8685751  33.6006117  77.5578880  15.9433270   3.0798301
  77.2255278  15.7901239   2.1953546  78.4987926  16.0745430   2.9627404
  90.1362038  57.2474527  20.7998729  89.5882225  57.8544807  20.3024197
  90.6355858  56.7748404  20.1339221  62.8911924  62.4162912  22.2242165
  62.5309801  62.3783302  23.1102395  63.7778997  62.7575302  22.3405743
 106.4220905  32.4843717  43.1092119 106.7301846  32.2754169  42.2273684
 107.2210884  32.5553155  43.6315298  52.8419876  70.0867796  38.5377026
  53.2954264  70.0414753  39.3794703  52.2291279  70.8156347  38.6347032
   9.6651501  29.3786502  20.4450679  10.1907105  28.5819411  20.5176735
   8.9482254  29.2500830  21.0661340 113.7496948  19.5388341  47.4971342
 113.9415741  18.9910221  46.7360020 113.2789612  20.2910686  47.1382618
  95.4866600  31.6116953  13.6598301  94.6714687  31.8562961  14.0978456
  95.2056789  31.2115002  12.8369546 110.8596039  46.6443682   5.9645921
 110.6344414  45.9014654   6.5246195 110.4706860  47.4012470   6.4028895
 110.8244150  87.3673630  85.2879985 110.1479404  88.0433226  85.3291579
 111.6224258  87.8410936  85.0535079 106.1699295  17.6702178   8.8887995
 106.3560009  18.5897076   9.0789258 105.5332184  17.4119318   9.5552170
  43.9037954 105.9690095  94.6976838  43.7971747 106.9181586  94.6345746
  44.6655333 105.7766820  94.1508748   5.7544100  95.7274676  92.2715549
   5.5144846  96.1997796  91.4743166   4.9631750  95.7487298  92.8098287
  80.2088338  32.3043431  84.9728652  80.4818326  33.1095590  85.4125400
  80.2703553  32.5083150  84.0396758  64.1945362  54.3856668   0.2385802
  64.2428827  54.0754128   1.1428120  64.5093441  53.6485767  -0.2847023
  93.1795120  43.6575174  33.2977605  92.6889992  44.4780874  33.2498360
  92.5556946  42.9887247  33.0152655  63.0077791  43.3791780   4.1403693
  63.9471817  43.2663584   4.2853650  62.9481268  44.0795469   3.4906325
   3.5600895  40.9818745   9.6799582   3.5945267  40.0591230   9.9321002
   2.7281803  41.0722923   9.2152184  72.6090670  45.5846596  54.3615198
  73.0870438  44.7764254  54.1757154  72.0565414  45.7185984  53.5914516
  87.1406746  44.8495340  38.0348659  86.5488529  44.0999985  37.9703426
  87.9494190  44.5527506  37.6176262  42.5510007  12.4701156  67.1303268
  42.4706441  13.3869828  66.8674036  42.5558072  11.9840278  66.3057466
  94.3584442  24.4664121  34.4636679  93.9963245  23.6283588  34.1759729
  93.8755894  24.6739864  35.2636671  91.4792347  44.7266769   1.5178733
  91.1992931  45.1551342   2.3267549  92.2445107  45.2268696   1.2343525
  75.2486372  59.3287992   7.0761687  75.3787899  59.7044468   6.2054342
  74.3986034  59.6666622   7.3581642  75.4306650  42.2166395  20.9990358
  74.8846912  41.7359161  21.6211748  74.8810673  42.9456997  20.7115602
  74.5899248  48.1260872  19.6060956  73.6452770  47.9976034  19.5202661
  74.8535967  47.5132799  20.2925181  75.0006008  70.5492449  14.1398644
  74.5445585  69.7173119  14.0128100  75.0459480  70.6548357  15.0901413
  42.4722272   6.5927734  94.2533202  42.6008493   5.6454648  94.3012667
  43.2612878   6.9200649  93.8214654  55.4014254  15.4176641  22.7216411
  55.2346420  16.1587512  22.1392274  55.2296305  14.6457720  22.1822858
  99.5002174  54.5668793  11.8253601 100.2268696  54.1713285  12.3067605
  99.6281910  55.5096292  11.9305778  12.8851664  86.8257142  94.1105353
  13.3735335  87.1162964  94.8807883  12.2229731  87.5038553  93.9769140
  99.3231946  19.0634002  89.4936909 100.2496320  18.9599313  89.7110154
  99.1558915  18.3919849  88.8322975 115.8477497 106.9930935  12.3265040
 116.4723301 107.7149773  12.2558069 115.9159279 106.7056847  13.2369876
 113.9449596  26.2197614  18.6956477 114.6800995  25.6842327  18.9939904
 114.0860748  27.0716667  19.1086590  89.9578476  26.6521192  27.3875809
  89.4709206  26.7563653  28.2050538  90.7577419  26.1921763  27.6422429
 116.6929436  42.3430061  29.4735217 117.4183178  41.9533062  28.9854622
 115.9281921  42.2089863  28.9136791  44.4434434  37.1852102  90.6158747
  44.0967256  37.3857393  91.4852457  43.8627797  36.5034570  90.2778365
 112.6983929  39.9886680  13.3684206 112.4997807  40.2785444  12.4780536
 112.9050636  40.7943535  13.8421166 103.5806274  52.2308207  13.1854141
 103.4114170  52.2370720  12.2433102 103.0274868  52.9305553  13.5327554
  57.5242197  98.1566478  71.2027545  58.4753763  98.2361222  71.2749382
  57.2973120  98.6834956  70.4364796  54.5401841  18.1732930  87.1532579
  55.0394040  18.9523782  86.9082375  54.9319345  17.8875579  87.9785599
  93.2981110  35.8955836  44.4273138  92.3455238  35.8351278  44.4991684
  93.5251808  36.6880751  44.9137592 107.7737904  48.6366558  34.8248196
 108.5581493  48.7041616  34.2803383 107.2330284  49.3804312  34.5590949
  21.2016720  68.0511379  37.2329783  20.8688874  68.8355780  37.6690316
  22.1449227  68.0690908  37.3947930  38.4280646  58.7840751  84.2577608
  38.7213099  58.1158823  84.8772450  37.5433790  59.0072415  84.5471700
  76.3387918  74.7909498  27.4866104  75.6879473  75.4910660  27.5362372
  75.8498955  73.9943552  27.6931429  43.6714136  97.4270297  74.6289058
  43.6571180  98.3610297  74.8378869  43.0574858  97.3352004  73.9002820
  80.9000397  42.2215319  31.1128330  80.2308846  42.1754599  30.4299498
  80.6528854  41.5390205  31.7367935   8.9141506  53.1715059   4.1787356
   8.3910126  52.3705387   4.2105928   9.5603604  53.0083466   3.4917009
  85.0154972  71.8764782   1.4968464  85.3731632  71.6503382   2.3554322
  84.0895557  71.6405821   1.5534213 108.6350346  62.0525551  14.7922516
 108.8884449  61.2539530  14.3293786 107.6799107  62.0097446  14.8385143
  84.2541218  54.8314238  15.4975200  84.6706867  55.6718111  15.3065860
  84.1798496  54.8122072  16.4516401  62.1754456  51.8438959   8.9361900
  62.8383541  51.1538887   8.9621317  61.3553715  51.3961029   9.1440028
  52.4406129  21.1110963  79.1805633  52.5940400  21.0741224  80.1246639
  53.2641774  20.8157291  78.7923272  19.6541542  76.2939787  48.1582594
  20.2928776  75.5840874  48.2240152  19.8415894  76.8552685  48.9106226
  19.4268936  61.7950726  33.1536317  19.7923130  61.9861794  34.0174460
  20.0234455  61.1468315  32.7792788  18.6976857  87.5333595  51.5326691
  17.8734631  87.0507336  51.4697552  18.7326092  87.8302097  52.4420071
  91.8016720  39.4837427  18.3208501  92.0333672  39.2916298  19.2294991
  92.5329876  39.1381669  17.8090012  14.5321793  44.6201992  19.2043078
  14.8657078  45.4611349  19.5170605  14.5485157  44.6959209  18.2502472
 113.0783081  45.3078985  11.2566864 112.3244190  45.8787489  11.4050150
 113.1251049  44.7638178  12.0428264  20.9239542  98.5065509  81.7135234
  20.7411444  99.2647553  82.2684486  21.8356192  98.6205245  81.4450021
 109.2489243  39.4464231  21.9628096 109.9658489  38.8757396  22.2395062
 108.9289093  39.8397613  22.7746654  61.8912870  14.5105256  93.3927113
  62.0343095  14.3415918  94.3239671  62.4734098  15.2428235  93.1899674
   4.6573967  59.1734362   3.7412533   4.4324726  60.0873470   3.5668874
   5.4807133  59.2179680   4.2274567 106.9701576  58.4411240   3.2285437
 107.2330093  58.8981819   4.0274441 107.7949047  58.2304144   2.7907768
  32.0582068  79.9457050  94.4950417  31.1022150  79.9934698  94.4998581
  32.2741282  79.3918133  95.2452509  57.9731732  15.4921426  85.1458259
  57.6745874  15.6917896  86.0330780  58.2637101  16.3343038  84.7957082
 105.3756779 104.8315669  94.2671557 106.2340896 105.0675011  93.9154525
 104.8124521 105.5716897  94.0408312 111.4636612  74.2663240  10.0776160
 111.4021778  75.0798941  10.5781698 110.5802250  74.1278362   9.7361791
  91.0933781  79.6725130  25.4495907  91.9064999  80.1773548  25.4356408
  90.6735325  79.9173880  26.2742114  10.8619923  72.8585339  23.3601117
  11.4461083  72.6102591  24.0766287  11.4500183  73.1044340  22.6459789
 108.3049488  71.9337177  38.5421681 107.9264450  72.2481251  39.3632102
 107.6871395  71.2718487  38.2315707  63.5375291  36.2499417  92.6100968
  64.2639428  36.6020860  93.1244342  62.8345662  36.8904866  92.7186270
  88.2290554  44.7589827  27.2268391  89.0879059  44.7511244  26.8043017
  88.0131626  43.8343239  27.3477936  22.9588932  57.8881264  34.7436714
  22.6197666  57.0629930  34.3967128  22.1771187  58.3960724  34.9605870
  94.4637394  60.9757805  10.7223558  93.5547733  60.7432365  10.9118927
  94.4014168  61.7548704  10.1697588   3.8536114  59.5386982  20.4984522
   3.8118500  59.6898699  21.4427185   3.5043759  58.6551714  20.3816581
  90.5387688  25.2556801   7.7420759  90.2452278  26.1612678   7.8419584
  91.4729118  25.2824664   7.9491901  27.3050160  67.0060158  34.5898724
  27.0711464  67.9313326  34.5168543  27.4158615  66.7148447  33.6847949
   6.3113081  96.5857697  89.5033081   6.4831221  95.6454135  89.4538357
   6.7263662  96.9466258  88.7198962  73.4649897  37.2636843   7.7052855
  72.8645849  36.8265700   7.1013987  72.9278135  37.9265499   8.1392008
  25.5886012  16.6054572  81.2957378  26.3116008  16.9207277  80.7534225
  25.9903747  15.9630431  81.8806477  18.1587374 102.0324851  94.1866715
  18.2388556 101.1381770  94.5183732  18.9891207 102.1975947  93.7400909
  70.0296688  37.3643994  31.6488528  70.5451298  37.9939270  31.1446428
  70.6153774  36.6169167  31.7690587  85.7156181  78.9859867  29.6113062
  85.3752613  79.8745537  29.5072079  86.1657715  78.8037682  28.7864518
   0.6818909  54.6118879  48.8443089   1.3645596  55.2406788  49.0784216
   1.1334843  53.7684774  48.8134718  99.9661541  65.5051470   5.6099367
  99.2360497  66.0733032   5.3642017  99.5605850  64.7965717   6.1096048
  75.2328664  11.5854682  91.4173858  76.1419660  11.2939300  91.3482236
  75.2428037  12.2363652  92.1191450  95.6553364  41.6876459  29.0107751
  96.4834023  41.8854856  29.4482636  95.5062675  40.7590437  29.1888189
  75.4786569  21.5290488  56.1306210  75.3511792  22.4475326  55.8931942
  75.8428079  21.1262216  55.3423639  85.4327011  60.3545761   1.5826899
  86.2355328  59.8902035   1.8194456  85.2350807  60.8961916   2.3467781
  60.2567655  25.9945001  95.2181366  60.5415326  26.8974389  95.3589929
  60.6328469  25.7540883  94.3713796 111.4301491  26.7763853   3.9563122
 111.2468815  27.7146482   3.9082655 111.3267422  26.4657784   3.0568340
  98.9941692  83.8943291  29.9894619  98.4910583  83.3411884  29.3918443
  98.3523750  84.5098400  30.3436923 103.0162907  54.1080809   1.6277437
 103.6914253  53.4310341   1.6728671 102.3844814  53.8617039   2.3032826
  41.3137418  14.4882430  87.3384138  41.4246541  15.1197566  88.0491330
  40.6106883  14.8533382  86.8011512  20.4371113  76.4722490  38.6855602
  21.2650914  76.0053587  38.5728216  20.4378552  77.1320391  37.9920888
  50.6315023  22.8702106  83.0251582  51.1447316  22.2001542  82.5736661
  49.7208482  22.6202716  82.8686996 105.4009438  66.2836647  25.9560704
 105.9590721  66.4976120  26.7036963 105.8253860  66.7088461  25.2108836
 111.7347813  54.8037004  25.8699036 111.0990047  54.6075010  25.1817703
 111.9352627  55.7323456  25.7530642  69.5863104  40.7648611  25.7397294
  69.4785643  41.6893959  25.9630299  69.2898893  40.7016373  24.8317814
  34.5238632  93.7531185  38.3532238  34.5440430  93.3759117  37.4737167
  33.6497158  94.1355038  38.4298396  11.4150185  61.3479900  15.9823334
  10.6087155  61.6365576  15.5547428  11.6713280  62.0870686  16.5339625
 100.2604771  63.1378841   2.7286249  99.9135685  63.5960197   1.9631182
  99.5385075  62.5825787   3.0229479  20.2380986  41.2055111  28.7276411
  20.2972073  41.4605713  27.8069448  19.3553204  40.8473921  28.8207674
   8.9804024  86.5031815  20.4006767   8.8877529  86.4849281  21.3532066
   8.5765595  85.6872368  20.1050711  76.0797655 107.4221373  74.4176884
  75.7517779 108.2754899  74.7013159  77.0314276 107.5239373  74.4035860
   5.9743256  40.1224756  10.7059765   6.1575074  40.6971359  11.4492416
   5.9121270  39.2475843  11.0892832  86.9651413  28.0276418  28.4232140
  86.3390064  28.7487817  28.3587790  87.0846367  27.7328181  27.5204229
  96.0151196  86.9484997   5.8975482  96.3406563  86.4279270   6.6318929
  96.0212898  87.8493023   6.2211955  31.1213904  23.6165513  72.9250093
  30.4224330  22.9840602  73.0912776  31.3852197  23.4496011  72.0201583
   6.3970703  34.6790719   8.6178505   7.1894402  35.1743531   8.8254213
   5.9923596  34.5073104   9.4681084 115.4415226  27.0201159  54.6613646
 116.2426281  26.7942190  55.1340485 115.6080818  26.7414641  53.7608957
  24.2440171  45.9604883  25.8804297  23.6511177  46.6933918  25.7144284
  24.2053551  45.4353523  25.0810742  20.3638613 100.2695990  89.1019793
  21.1019575  99.6606208  89.1263326  19.5930254  99.7084237  89.0175142
 104.6001339  71.2127781  16.7541492 105.2244949  71.1005974  17.4709582
 103.7431431  71.2111330  17.1805251 104.5008183  68.5577488   6.6978729
 105.2455521  69.0070581   6.2982178 104.1467762  68.0106831   5.9967315
   0.2975125  33.2410645   0.1721891  -0.5502372  33.6844516   0.2030789
   0.3265614  32.7234721   0.9768552  85.8413982  37.4296618  19.7908235
  85.2285004  37.5060678  19.0595603  86.1559677  38.3222961  19.9339545
  12.6479763  74.0880299  21.2015414  13.5347027  74.0105534  21.5535927
  12.4427552  75.0202847  21.2723899 101.5595150  23.3744216  11.7583025
 102.4301147  23.6774111  12.0161593 101.1375713  23.1293321  12.5817871
  92.9599762  41.4800167  22.0241809  93.5439491  40.7418442  21.8500924
  93.1371212  42.0979929  21.3149858  31.1658615  77.3205328  11.9088125
  30.7657284  77.0751810  12.7430356  32.0288414  76.9067860  11.9262362
 100.3828335  82.1543694  31.3964367  99.8298073  82.7812958  30.9302211
  99.9530220  81.3097000  31.2621903  81.7128468  71.9420862   7.7678859
  82.5891781  71.6838408   8.0535388  81.6771984  71.6886282   6.8455410
  24.6721596  69.7114420  14.2719591  25.4570622  69.4931698  13.7694561
  24.4622273  70.6080818  14.0108073 107.6098061  74.5527601  34.4226122
 108.0993843  74.9071693  35.1648617 107.0146561  73.9122105  34.8121452
 101.3109213 105.6727982  68.5031891 101.6924828 104.9045277  68.0784607
 100.5349594 105.8748341  67.9804087  70.3554774  58.8981008   8.2377581
  70.6857503  58.0002641   8.2052664  69.7364229  58.8992929   8.9678339
 107.3489624 101.6215897  65.2272701 107.5755500 102.5299263  65.0277519
 107.5153660 101.1485863  64.4119120  22.7720165  80.5855179  75.2741671
  22.9729486  79.7485209  74.8554850  21.8843436  80.7925224  74.9819088
   7.9942244 101.9604206  93.9521885   7.7040565 101.0490799  93.9909649
   8.1759214 102.1146774  93.0251312  19.3625581 108.3015251  64.3317604
  19.0622687 108.4183121  65.2331018  19.2487442 107.3666477  64.1606236
 105.6347161  58.7821674  80.9842110 106.1307305  59.3060684  80.3551388
 105.5741423  59.3362808  81.7623615  40.2347136 105.5184746  88.1856823
  41.1109781 105.6657124  88.5416412  39.9721718 106.3698483  87.8357410
 105.5369795  14.1482543   7.3520712 106.0083115  13.3887910   7.6945452
 106.0871876  14.8963069   7.5842814  89.4163811  18.6177005  90.7936309
  89.4052040  19.5569076  90.6092514  90.0997626  18.2693233  90.2210422
  55.5259246   5.8888949  89.0785980  55.9628469   6.3734950  88.3782387
  55.9220058   5.0179423  89.0503979  75.6584826  12.7547836  19.4869761
  75.9124291  13.3568858  18.7875418  75.1758802  13.2996749  20.1086001
  90.5777872  42.7993917  26.2754015  91.2696970  42.4995660  26.8649725
  90.9772265  43.5159063  25.7821517 112.2310739 101.8378735  88.2312012
 113.1634038 101.7396164  88.0379677 112.1010175 102.7829552  88.3095837
  92.9807759  18.3801126   1.8478064  93.2884229  19.2176866   1.5013175
  93.6026752  17.7370834   1.5072493  35.5387855  76.1924362  79.6431398
  35.2164030  77.0415163  79.9454069  34.7471070  75.6784201  79.4841909
  74.7453207  75.3707265  15.2385287  74.4040594  74.8781251  15.9849314
  75.6470813  75.0646638  15.1416735  85.6768626  39.6608209   4.0111880
  86.3517285  39.5225381   3.3466105  84.8601741  39.7170972   3.5151152
  50.3851378  24.1239929  20.4841380  49.6312821  24.0797042  19.8959403
  50.4460085  25.0480413  20.7263236   0.5343713 106.2965488  73.2240534
   0.6047057 107.1237183  72.7475452  -0.3474727 106.3086987  73.5961246
  36.7418027  79.8556900  79.5213318  36.3025403  79.1945028  80.0562191
  37.3864055  80.2496910  80.1091099  57.4713129   9.4642104  49.8472834
  58.3673912   9.1396368  49.9363327  56.9684583   8.9571417  50.4846621
  94.6505194  86.2891769  83.2350636  94.8123103  86.4297295  84.1679573
  95.4758149  85.9397984  82.8988171 110.2462983  59.6300316  87.0731735
 110.8876454  59.3848562  86.4062405 110.5425298  60.4841280  87.3878098
   2.6917782 101.9133186  82.2382069   2.0582411 101.2170792  82.0646667
   2.8520986 101.8618488  83.1804752  58.9179588  18.0532121  10.3253607
  58.1815458  17.4585151  10.4677062  59.6375800  17.4828958  10.0549654
  40.5099916  58.5333443  94.3363476  41.3295317  58.3159590  93.8921356
  40.1527405  57.6876307  94.6072197  70.0733948  22.1430539  17.5640349
  70.1682985  23.0474042  17.2650771  70.9541864  21.8878221  17.8384356
  13.5414457  99.7084427  65.4784822  13.7120056  98.9599991  66.0503006
  14.3665230  99.8476124  65.0136042  35.3590757   7.4092520  46.0380363
  36.1361194   6.9059027  45.7949781  35.7052511   8.2304419  46.3873816
 116.2244037  84.2648029  83.8072205 115.6052345  84.9511337  84.0558243
 115.9684445  83.5085773  84.3352699  22.2949100  90.5332088  62.2996235
  22.0150113  91.4123154  62.0445538  23.1490040  90.4231071  61.8817329
   2.3414353  87.4606419  87.6557922   2.2703695  87.6148510  86.7137718
   1.5179849  87.0332241  87.8913212   5.3308666 104.4221687  77.9418612
   5.3814244 105.0478363  78.6645079   5.0414711 103.6066151  78.3509541
 105.3574758  54.5817995  33.2749987 105.4935568  55.3359270  32.7014041
 104.9236160  53.9338493  32.7198792 105.3053599  70.5921793  84.8715305
 104.4320517  70.3603506  84.5555878 105.8848565  69.9442291  84.4708061
 114.0370199  96.7386532  78.7740469 114.0888327  97.6212692  78.4072542
 114.3566778  96.1692810  78.0741501  69.7669614  18.4751367  12.2990660
  70.0205577  19.3337440  12.6377635  69.8028487  17.8969383  13.0610518
  87.1612430  32.6690149  20.5345969  86.5147460  33.3337545  20.2971320
  87.6922691  33.0835008  21.2146334   1.6234524  19.0092563   6.8369631
   2.0802910  19.4245099   7.5684599   0.7530696  19.4075727   6.8410067
  40.0445032  80.8731079  62.4114704  40.9478474  81.1893368  62.3973608
  40.0033236  80.2999210  63.1769657  54.0759009 105.9844266  17.2792773
  53.1927270 105.7663403  17.5770525  54.6074337 105.2299891  17.5332884
  76.5331786  69.0222978   8.9282183  77.0931423  69.6159982   8.4280352
  76.1881671  69.5612573   9.6400599  58.8365930   1.4546050  72.3272562
  58.6097211   2.3845137  72.3223925  58.1963021   1.0549296  72.9159164
 103.3584631  40.5355119   8.0273776 103.8707507  39.7275399   7.9962115
 102.5328577  40.2799272   8.4388117 105.0339966  88.3642101  51.5714073
 104.4210916  87.7937889  51.1075115 104.5103818  88.7639904  52.2658348
  14.8641503  84.9827194  70.5700588  14.6366799  84.0656185  70.7231140
  14.0442455  85.4583263  70.7034254  12.6461565  65.8711052  62.0629930
  12.4116087  66.3611460  62.8510761  12.9512858  65.0245523  62.3892879
  41.6200972  61.0332823  69.6547127  42.5419950  61.2866259  69.6083403
  41.6374779  60.1134777  69.9190760 107.2981060  37.4100637  11.6946749
 107.1930516  38.0222368  12.4229865 107.8899491  37.8570413  11.0895590
  74.6789801  53.1054162   3.3298258  75.0016135  52.4505376   2.7107291
  74.5659238  52.6246499   4.1497759  11.9596505 102.2250938  93.9062405
  11.2325287 102.3662853  94.5125389  11.9919538 101.2757874  93.7879276
  89.5441103  87.8252935  13.4160761  88.7397421  88.0919313  12.9709582
  90.1785422  88.5063123  13.1926112  80.7396531  41.7674207  20.7733874
  81.2553168  42.0477437  20.0172476  81.1564470  40.9546041  21.0594897
  93.4742689  64.8329496  16.5787081  93.4992421  64.3908548  17.4273352
  93.7073660  65.7404565  16.7744689  28.9306134   2.6148737  78.0237913
  28.5500199   3.2385863  77.4054384  29.8588771   2.5841654  77.7922392
  47.1993655  15.1581038  68.4867239  46.2990838  15.3483428  68.2230377
  47.7205759  15.3336371  67.7032948  79.4595923  52.5380754  45.1414542
  79.7518124  51.6952371  44.7943835  78.5700584  52.6409482  44.8032527
 115.4815785  69.8532915  57.3270750 114.5350313  69.7221184  57.3825169
 115.5894631  70.8032990  57.2814894  14.9720931  96.7017937  95.0961876
  15.2503622  95.8607292  94.7336960  14.3023157  96.4747715  95.7412434
 110.6255019  17.1946477  26.1177401 111.2205899  16.7566346  25.5092577
 110.7971800  16.7780923  26.9622759   1.1026199  96.6180038  74.5817327
   1.8226764  97.1466732  74.2378473   0.7782196  97.1147728  75.3328705
  64.7649688  27.1528185  87.8008080  65.5239457  26.9825495  88.3586597
  64.5623177  26.3044299  87.4065971  16.2133849  95.7816696  91.1489010
  15.7158065  96.2825012  91.7952919  17.1006978  96.1367321  91.2021542
   1.4771350  98.8208580  84.0373135   1.6337821  98.5790062  84.9501133
   0.6044739  98.4777737  83.8450050  77.5473532  68.2248830  14.3098788
  77.0304600  68.9509343  14.6590189  77.8649333  67.7622937  15.0853686
 116.4529520  81.6365433  86.6052246 116.8880002  81.0890675  85.9515858
 115.6479212  81.9272327  86.1766720   3.2812197  49.5048379   1.2796168
   3.8073141  49.8422670   0.5546431   3.3186609  48.5535478   1.1802439
  87.8945136  28.9411020   3.0250411  88.6314261  29.3244981   3.5006384
  88.2662988  28.6695813   2.1858267 106.0923975 109.6473885  76.7279053
 105.7998460 108.7449646  76.6003418 105.8894103 110.0841713  75.9007120
  95.7259565  91.6274357  63.8781548  95.0317722  91.4584541  64.5151711
  95.7583481  92.5814056  63.8066053  69.1376412  45.1324796   4.9200301
  69.2665446  44.1849946   4.9633555  69.9977857  45.4807328   4.6852927
   3.9736480  95.5447578  82.9486942   4.2801851  95.0756836  83.7247276
   3.5671335  96.3394928  83.2942200 109.9257570  72.9550982  67.9644108
 110.3235733  73.2131386  68.7959099 109.2674583  73.6289072  67.7945423
   2.7334103 107.5892544  75.2123880   2.9208878 108.0146408  74.3756533
   3.5943115 107.4391651  75.6029749  25.3302717  89.6395302  66.6692352
  26.1907697  89.9883938  66.9017553  25.4795599  88.7036228  66.5349817
  19.6328592  78.0983782  68.6851358  19.1681588  77.6223803  69.3734026
  19.0642929  78.0265093  67.9184532  60.6748694  10.5027522  68.4538174
  61.3846106  10.7439841  67.8585815  60.5867142  11.2552298  69.0388250
  43.2975781  13.6505985   1.9042449  42.7690757  12.8748225   2.0915656
  44.0846789  13.5386228   2.4373202  89.9088157  49.7243451  15.9955744
  89.1099871  49.3594217  15.6148772  89.8237110  50.6695031  15.8703570
  29.5230150  66.2151670  65.2098799  30.3836441  65.7961798  65.2094173
  29.5113015  66.7373991  66.0119820  22.9187668  18.0119848  12.7473406
  23.7491072  17.5608968  12.5947337  22.6660288  17.7550124  13.6340861
 102.1184855  68.5197926  73.2329512 102.2722917  68.1785727  72.3519564
 102.9612535  68.8885689  73.4974813  19.6669084   1.4135588  83.8908291
  20.4062575   0.9080065  84.2284870  18.9251489   1.1440028  84.4324589
  96.3277579  52.0317697   6.4129118  96.6201330  51.3479184   7.0154814
  96.2048018  51.5791940   5.5784659  39.0928745  86.1032104  60.5336285
  39.9620152  86.3236809  60.8686161  38.7866592  86.9074154  60.1144409
 115.3590364  73.9127159  76.4278507 115.5618779  73.8769436  75.4930782
 114.9455265  74.7672081  76.5506792  42.6475668  71.6277981  69.2562962
  42.8777552  72.5203562  69.5143318  43.4805584  71.2287378  69.0050840
  27.0927757   8.3658064  56.5478420  26.6147190   8.0573500  57.3176146
  26.4095920   8.6279047  55.9307575  17.2206688 102.4858189  91.0889816
  16.3708222 102.0934105  91.2889957  17.2155499 103.3202171  91.5580177
  97.6415122  24.4640064   5.8862261  97.4559760  24.4091319   6.8236689
  98.4750402  24.0055990   5.7798056  57.2662509  26.7039727   4.5123915
  58.1475044  26.3326692   4.5543246  57.3968757  27.5947236   4.1872172
  25.2962136  71.4323425  88.4622765  25.3309894  71.3476992  89.4150829
  25.2804708  70.5304146  88.1421089  71.1998958  33.1566095   1.5649848
  70.2796424  33.4049844   1.6525988  71.3089735  32.9663801   0.6332449
  97.8766554  83.8934135  77.6786995  97.6408761  83.6164951  76.7932844
  97.1417075  83.6093330  78.2221889  27.8017807  81.4593506  79.4275951
  27.3958635  81.3049030  80.2805901  27.3578238  80.8504963  78.8373137
 106.1980856  50.2454805   0.8876948 106.6165006  51.1048936   0.9383826
 106.0102189  50.0164937   1.7979102  17.6588190  61.9329643  61.2478876
  17.5038946  62.7671671  60.8047867  18.5502326  61.6905355  60.9972048
  34.3480325  91.7829132  90.8194160  34.8177457  92.1588516  90.0749207
  34.9437642  91.8955994  91.5601158  67.7718437  50.8376645  16.3779406
  67.5592923  49.9078512  16.2972788  67.2690821  51.1333226  17.1369223
  98.1041921  37.0158433   0.7678751  98.7585247  37.6985883   0.6197981
  97.2845435  37.4933481   0.8959059  87.3593468  56.3192987   9.7462325
  87.3581761  57.1762990   9.3198733  87.1727866  56.5089845  10.6657176
  18.9720213  90.2783489  69.8201513  18.3806252  89.6295834  70.2017069
  18.6929846  91.1106014  70.2018929  32.0570707 109.0961742  81.5686703
  32.9469657 108.9352322  81.8823910  31.4956355 108.8478661  82.3030949
 104.8323429  29.6684503  -0.0214143 105.4337514  29.2153978   0.5695872
 105.3813207  30.3038739  -0.4808660  16.5899420  80.2728462  69.8645401
  16.5259552  80.3270626  68.9110231  16.5254986  79.3372250  70.0560999
  93.4721506  28.2414769   6.8399195  93.8519574  28.2086705   7.7179293
  94.0383113  27.6776742   6.3128333  50.1287413  95.2003384  70.4717731
  50.4113150  95.8626080  71.1024714  49.7982645  94.4817543  71.0108948
  29.6102428  80.9622192  24.2339206  30.5031753  80.9196186  23.8917398
  29.7142649  80.8984184  25.1833105   2.4545557  53.0680131   9.4706873
   1.6614515  52.9141568   9.9840502   3.1439335  53.1853532  10.1243166
  45.0036716  94.5604038  60.1955318  44.3385983  94.8387241  60.8251762
  45.6897497  95.2245045  60.2625465  80.7933358  41.7553186  10.2819209
  80.8945710  42.6293229  10.6588702  80.3988159  41.2363958  10.9828619
  96.4680081 100.2464199  87.6714516  95.8532100 100.8164787  88.1332874
  97.1066349  99.9930477  88.3379269  88.2897716 100.5261707  49.1287708
  88.3968692  99.6036434  49.3605137  88.8941127 100.9903526  49.7080231
  45.1846492  19.9702967  84.2324352  45.9671956  20.2175749  83.7397861
  44.7950667  20.8035696  84.4972229  85.2133507  59.3892240  18.3296828
  84.8030889  58.7169408  17.7856688  84.5092005  59.6990537  18.8992552
   8.5419160  94.7917366  74.5778847   8.5726333  95.0932217  75.4858494
   9.0695602  95.4286480  74.0960503  98.8550585 109.7530460  62.2655725
  99.7098737 109.9906921  61.9063473  98.5977607 110.5098248  62.7921772
  27.8490329 105.9647083  73.6596680  28.0535674 106.5999222  74.3458891
  28.4849048 106.1465740  72.9677010 104.0273350  78.6968374  56.8335676
 103.4359770  78.9774418  56.1351490 103.6238211  77.9029655  57.1845341
  34.4435239  93.3610249  68.7477779  34.5304608  92.4777412  69.1062069
  33.6688066  93.3169079  68.1873369  99.9938958  83.3245564  53.1940413
  99.0879398  83.3613968  53.5008287 100.5095523  83.6545372  53.9298677
  73.5424203   1.0335959  62.7384281  73.6291570   0.7953681  61.8154144
  73.9566630   1.8940485  62.8036547  72.9525513  37.6674222  -0.3616567
  73.6122954  37.7781915   0.3229670  72.1205157  37.8468274   0.0762515
  65.8687300  10.9744967  65.6955719  65.4394549  10.4732646  65.0022364
  66.7910212  10.9951628  65.4402685  14.0589345  91.1838818  73.9555264
  13.7061286  90.8485413  74.7797251  14.7252929  90.5449486  73.7026358
  21.1616404  29.0967321   5.7196669  21.0541803  29.1224431   6.6704707
  20.8850844  28.2146978   5.4711394  99.4432658  16.5780009  68.9586258
  99.4752616  15.6664217  69.2488623  98.8982791  17.0180644  69.6109724
  87.4355370  59.5648145  25.6028418  86.7687261  59.1535520  26.1528067
  88.0409670  58.8548707  25.3891520  97.1410942  10.8601713   2.0274119
  96.5410233  10.5801248   1.3362364  97.7373994  11.4707565   1.5940051
   1.8277056  46.8179082   4.1946177   1.4134056  46.4219140   4.9612765
   1.1236317  46.8846940   3.5496001  85.9551972  34.8358286  88.5003376
  86.0357160  34.7123946  89.4461250  86.8509215  34.9943388  88.2023716
 101.9659024  76.7803717  70.2908134 101.0759359  76.4843798  70.4820728
 101.9604808  77.7123165  70.5091715  65.8488286  40.8271646   6.6948943
  65.1208735  40.4411649   6.2077479  65.9981764  41.6728925   6.2722067
  17.4180634  17.8202295   0.5692820  17.6535065  17.7454471  -0.3554864
  17.5028069  16.9300317   0.9107546  77.8938098  38.2266855   0.3473048
  78.2272037  37.9912614   1.2131361  77.7457182  37.3874997  -0.0886484
  40.6903741   9.5497263  95.0475407  40.1592526   9.1035212  94.3879604
  41.1782968  10.2100790  94.5555019   2.7104336  90.6370163  66.2766123
   3.1522524  91.0390949  65.5287075   2.4516097  91.3758278  66.8274355
  29.6752310 108.6791325  89.4407654  30.2100277 108.1750393  90.0540543
  28.7736917 108.5113525  89.7151947  56.2280518  17.7701891  89.1744614
  56.9780260  17.6599444  89.7589397  55.6630820  18.3975733  89.6254921
  95.1431406  23.2591438  16.0580687  95.6169033  23.7105607  15.3595023
  94.2555607  23.6148166  16.0141520  91.2248725  14.1106261  76.2814569
  90.2933330  14.1732729  76.0704231  91.3005179  13.3065451  76.7952204
  89.4338060  33.7803697  21.8015151  90.2658749  34.2533349  21.7872099
  88.9355052  34.1936063  22.5066142  57.1732277  13.6347426  70.3542995
  56.9130892  13.5386790  71.2704515  56.4646262  14.1400469  69.9558353
  19.9109387  68.4606743  87.5201416  19.9545240  68.0616903  86.6511536
  20.7980108  68.3727074  87.8688526  39.9746466  77.5771284  91.5755081
  40.5947733  77.6832771  92.2968960  40.0885248  78.3649397  91.0438919
  75.3406161  68.6684083  19.1685156  76.1509595  68.9204549  19.6112875
  74.9966696  67.9447221  19.6921687  66.0429681  43.6476754   9.5054774
  65.2063668  43.4959649   9.9451499  66.6499472  43.0411863   9.9297194
  33.8877439 106.2157726  87.5367737  32.9334307 106.2841511  87.5657940
  34.0699339 105.3059006  87.7716446  76.6989535   6.0758627  54.8358917
  76.6431374   5.1259745  54.9399185  76.2725538   6.2503851  53.9968681
  98.2309735  80.2566480  47.8770022  97.4292505  80.2566766  47.3540644
  98.8933528  80.6367635  47.2999434  15.6098831  88.5330200  80.4715729
  15.8151293  89.2551041  79.8776913  15.6878555  88.9130497  81.3466263
 113.1555420  91.1623096  93.0676842 113.2442405  91.8549538  92.4130058
 112.7549916  91.5952015  93.8216114  42.7381242  38.4699868  28.9428000
  42.1815002  37.7905130  29.3232111  43.1003869  38.9334058  29.6979384
  23.5083127  99.3761635  78.0766535  24.2602921  99.6058941  77.5307751
  22.7482033  99.6613312  77.5695610  12.6790363  20.4446458  40.6048922
  12.4328501  20.3109168  39.6896033  11.8847592  20.2410363  41.0987525
  97.6981235  72.3425817  28.8475661  97.1862674  71.7016076  29.3409018
  97.4090481  72.2337865  27.9415755  63.5594368  35.4882764  16.9924883
  63.8134277  34.8192834  17.6282362  62.6288474  35.6370019  17.1601634
  61.7827982  20.6446684  83.9066315  61.9753188  21.5146101  83.5568237
  62.4292225  20.0720538  83.4937382  43.2845482   7.1198309  88.1767845
  43.5756287   7.8539790  88.7176418  44.0945095   6.7159022  87.8652763
  60.4157150  37.5433873   5.3389983  60.0186897  36.7192220   5.6206946
  61.1175216  37.2800206   4.7437338  71.9268560 108.1233501  78.2723284
  71.8350458 107.6367760  77.4531555  71.0284328 108.2519150  78.5765219
  25.1979470  53.9536190  91.8327713  25.7397032  53.6951065  92.5783634
  24.5028687  54.4887209  92.2158718   6.0016441 102.2442341  89.0695953
   5.1020771 102.5605297  88.9861488   6.0165048 101.4292812  88.5677433
  45.6369734  80.6070995  70.0552034  45.4544497  79.6737432  70.1636457
  46.3112879  80.6420422  69.3767405  51.8590993  23.3425940  77.9825687
  52.2813553  23.9464415  78.5935545  52.0533556  22.4730719  78.3324575
  65.9252519   3.6474932  47.1114492  66.3592976   2.9479064  47.5997257
  65.5240005   3.2044543  46.3638258  65.7346577   7.4698676  84.9843788
  66.0273975   8.3676756  84.8278904  66.3978356   6.9245280  84.5612621
 103.7339104  70.6731176   8.3758502 103.5081876  71.2897062   7.6793627
 104.2473328  69.9943780   7.9377417  20.0207543  97.4134731  73.7214947
  19.6182537  96.6100216  73.3918190  20.9521723  97.2038841  73.7905169
  50.7283098  21.2046088  75.8393288  50.6991905  21.8747366  76.5221977
  51.2464172  20.4960288  76.2210512  32.3059511  92.9864502  66.0415411
  31.9949484  92.0819378  66.0784721  31.8004441  93.4412289  66.7152405
   6.1806017 107.9831982  78.3684111   5.9616649 107.3506546  79.0526533
   7.1101165 108.1685543  78.5021210  63.0641342  39.1943120   8.1521658
  62.2768891  39.4415998   8.6372714  63.7654937  39.7038221   8.5580401
 102.5473481  89.6940422  61.8420792 102.3986631  88.7539577  61.7402887
 103.4709125  89.7657394  62.0831633  80.9952754  22.1326865  80.5656719
  81.3324183  22.0228518  79.6765661  81.7604226  22.0137156  81.1283684
  60.7769412   4.6945036  79.1252279  61.6949982   4.4282473  79.1753006
  60.8092493   5.6416834  78.9909124 103.2311934  99.3785477  93.9035416
 102.4955886  98.7716866  93.9861965 102.8595715 100.1480389  93.4722519
  60.0078106 107.2940063  72.3024511  59.9912214 107.6969051  71.4343309
  60.0208378 108.0338383  72.9096556 114.6652210  33.9305162   0.6379942
 114.0204490  34.5347547   0.2700476 114.1573799  33.1555604   0.8783679
  20.0913763  84.3693924  66.1574030  19.4380379  83.6848259  66.0133123
  20.4923415  84.1448689  66.9970751 105.6707364 104.6427822  72.5817966
 106.3438326 105.2754974  72.3311186 106.0905891 103.7897778  72.4706984
 108.0540627  18.6469019  60.8543921 107.5789851  18.3948363  60.0625610
 107.4875564  18.3663119  61.5731239 114.6782846  67.9120779  88.6431599
 114.1576877  67.3832607  88.0385399 114.6216289  68.8012838  88.2933998
 112.5457546  81.1806393  65.1923895 112.0916932  80.9826374  66.0114479
 113.4750249  81.1463737  65.4193592  17.5325346  99.1275787  91.6121483
  17.8308594  98.8652611  90.7412720  18.3347750  99.3574715  92.0809650
  46.0804212   3.3880938  84.7270679  46.4068729   4.2633570  84.9357891
  45.7425678   3.0540122  85.5580139  38.8815236 103.1927872  75.2951431
  39.6573019 102.8503227  75.7391262  38.2068563 102.5310135  75.4471731
  50.2893526   4.9213541  90.6248569  50.2841669   5.8682383  90.7649326
  51.2075907   4.7090090  90.4575825 100.5908447  61.7183018  45.2856779
 101.1630552  61.1144257  45.7591152 100.6144410  62.5244713  45.8012009
  93.5536223  65.1566029  75.3678799  92.6890856  64.8386669  75.1076412
  94.0727502  64.3624353  75.4944992  10.4079670  92.9260002   6.2885146
  10.7615727  92.0984803   5.9623198  10.8376616  93.0532442   7.1343283
   0.0188757  19.6597254  47.1149015   0.6206745  18.9176965  47.0560455
  -0.2846663  19.6505105  48.0226517 101.8161016  52.4652386  83.0174732
 101.2006348  52.3177719  83.7355900 101.3296240  52.2190762  82.2307301
  23.2350039  61.7088270  53.7642527  22.4473953  62.0078754  53.3098602
  23.9258218  61.7575788  53.1034803   3.1463665  76.1900520  52.9708481
   2.5411907  76.7949152  52.5417328   2.8994614  76.2197495  53.8951778
   5.2005571  53.3056545  73.7839079   5.6372535  53.6048555  74.5814085
   4.4346854  53.8740349  73.7025690 105.1028877  68.2652903  58.8982344
 104.5374911  67.8725529  58.2331657 104.5968598  68.2053614  59.7085285
  99.9003690  45.7375908  91.4151764  99.8352116  46.5060043  90.8481503
  99.4304221  45.0505924  90.9425068  93.8566745   4.1487359   2.4930148
  93.8235081   3.1951188   2.4172644  93.0977011   4.3727683   3.0315356
  19.8657191  66.8918562  84.4600296  19.6787000  65.9688425  84.2888641
  19.2152131  67.3677826  83.9437199  75.6177192  20.7457303   0.1552634
  75.8164129  21.5315151  -0.3539510  75.2694413  21.0781478   0.9825663
  53.5715157  84.3808733   6.8993334  54.0867788  83.7520991   7.4046855
  53.9412218  85.2333079   7.1293311 111.2135797  96.5740490  79.4814920
 112.0888152  96.9560719  79.5466995 111.3695114  95.6498909  79.2869329
  93.8558942  59.4459200  89.8832989  94.2803293  60.1075792  90.4294682
  93.1300693  59.9096775  89.4657612 114.0886503  90.0906467  70.9215355
 113.9935955  90.6097221  70.1229382 114.0025007  89.1832924  70.6291008
  10.2724802  50.2615643  68.4667158  10.9976661  50.8134604  68.7595415
  10.2372682  50.3949928  67.5195122  76.4207750  50.6326246  77.3816347
  77.1752506  51.0237217  77.8221321  75.9946352  51.3667488  76.9392586
  25.0572968  81.3072109  54.7664642  25.8465505  81.0816860  54.2740774
  24.3589759  81.3092232  54.1118097  12.7497041  97.7173328  58.9194584
  11.9252336  97.8555775  59.3856859  12.9742646  98.5793972  58.5692263
  77.0436817  65.3976822  83.2688236  77.3312288  65.0435877  84.1103554
  77.6872402  66.0752678  83.0615997  16.2605202  72.6958513  53.4924603
  15.4407942  72.9868746  53.8919401  16.9414341  73.0078745  54.0884686
  99.1930168  73.5800791  89.1672230  98.2554572  73.6411524  89.3502045
  99.3382734  74.1993189  88.4519100  16.1174625 103.5949193  12.2362380
  15.2562159 103.5248290  11.8244414  16.2589473 102.7398787  12.6425986
   5.0776786  62.6437092  81.5739155   4.5197493  63.2842445  81.1327171
   5.0379062  62.8880405  82.4985504 107.3171652  16.1804866  13.6624770
 107.1469796  16.5640353  12.8021483 106.4489997  16.0615730  14.0476851
 100.0281947  54.1907740  87.0494080 100.1644939  53.5758305  87.7701759
 100.9022003  54.5290184  86.8546295  16.8039095  70.3992653  40.9810114
  17.7403080  70.2329588  40.8726978  16.3774705  69.6737051  40.5250025
  24.4694424  85.2145767  71.8860388  25.3287363  85.3959942  72.2667456
  24.0809488  84.5638943  72.4707747  22.3351383  71.4590454  55.9083462
  21.9079757  70.8359003  56.4961004  21.7225456  71.5596819  55.1797628
   3.8796252  57.1834278  52.1185350   3.4868929  56.3171148  52.0113468
   4.1683251  57.2043037  53.0309200   5.9389412  85.6078243  66.0158253
   6.2149853  85.5598736  65.1005507   5.3680629  84.8486328  66.1339140
 102.5272787  38.6630201   3.5107665 102.6336563  38.0683851   4.2532782
 103.1313026  38.3287000   2.8477244  24.7898173  61.1674404  48.4911394
  24.5027375  61.5146017  47.6465702  24.1056061  61.4345217  49.1049433
   7.6671720  81.1476326  74.3297386   8.2569546  80.7984924  73.6615372
   8.0295068  80.8319950  75.1575756  35.4270166 101.3909541  19.8582510
  35.5681962 100.4933654  20.1592974  34.9449727 101.8097220  20.5713419
  18.1990659  21.4898419  49.9047756  17.6239538  21.0679030  49.2664576
  17.8961754  22.3972845  49.9370003 115.7425541  75.4980421  90.7387447
 116.2040242  76.1971426  91.2019253 116.2400857  75.3775597  89.9299335
  54.4980109  12.4867534   9.5457797  54.1631449  12.3011588   8.6684851
  54.8509801  11.6503858   9.8493151  22.6929450  33.3959365  68.0704451
  23.3064556  32.8173542  67.6175928  23.2110500  33.7940884  68.7699270
 115.5165784  77.0588017  76.1696196 116.2935655  77.5199032  76.4857006
 114.7974547  77.4163532  76.6904354 107.6665186  53.2078648  68.9408779
 107.9370450  53.9754200  69.4447708 108.4524756  52.9474878  68.4605598
  94.2471796  60.9415960  74.9573088  93.6869627  61.3657236  75.6073141
  94.8672395  61.6220188  74.6950388 113.4193351  38.3033633  76.3154316
 113.4541803  38.9680505  75.6275320 112.6964217  37.7308226  76.0588694
   8.5719132  48.8020229  46.1339235   8.7728035  49.7186804  46.3226414
   8.1429684  48.4824991  46.9277382  96.9237542   2.6130389   5.6364970
  97.2902882   1.9337510   5.0704150  96.1310697   2.2191810   6.0008578
 113.3668297  82.6971531  60.1575613 113.0792084  83.3872414  60.7553005
 114.0038645  82.1924496  60.6632233 115.0636266  66.6292620  81.0293484
 115.1102757  65.9553719  81.7075253 114.1502946  66.6181803  80.7431126
 104.3710046  72.7849674  90.0086498 104.4026547  72.4275923  89.1212273
 103.7485736  73.5100174  89.9528122 109.0174114  67.1979904  71.0591984
 108.8137292  67.3632240  70.1386309 109.9004900  67.5484467  71.1757565
 103.5963810  23.9646959   5.1427226 102.8798139  23.5682487   5.6382994
 103.6010301  23.4932565   4.3096880  97.4574679  52.6254892  66.9030905
  96.5208798  52.5543070  67.0874023  97.7721136  53.2908583  67.5150633
  11.4182091  62.3007965  60.1429081  11.2441945  63.0560207  59.5811367
  12.3181939  62.4278879  60.4430866  19.0943050 101.8528175  85.2991104
  18.2610512 101.4386082  85.5235004  18.8622820 102.7559662  85.0829506
   4.3576956  66.5090513  61.3298416   4.2692834  65.6684017  61.7789841
   3.6706442  67.0568514  61.7094564 111.1699813  83.6334419  82.5165462
 111.9654715  83.8307190  82.0220661 111.3047462  82.7433681  82.8418827
  20.0472689  70.7615423   9.5048505  19.5467365  71.2897491   8.8830042
  20.5981374  71.3934469   9.9668801  36.5755382  80.3025900   3.9362578
  37.4245158  80.6165205   4.2475657  36.4080692  80.8116804   3.1431536
  18.8144445  57.7098894  42.2518969  18.9999187  57.9924107  43.1474495
  18.7935281  56.7542124  42.3017216 100.5119603  60.8242226  52.9560995
 100.0379043  60.0008297  53.0724144 100.0917917  61.4307070  53.5659075
   2.4219696  43.8681889  81.5912724   2.1540491  43.1476259  81.0209751
   3.3384070  43.6831474  81.7965412 106.3303786  51.6744041  26.2714243
 105.4276031  51.9218588  26.0714388 106.8494969  52.4380875  26.0193515
 113.8211998  64.2295408  79.8298502 113.2933956  64.6606445  79.1576910
 113.2081964  63.6475468  80.2790070   1.5606360  67.5317955  84.5098400
   0.8000430  67.6902580  83.9507198   1.9014075  66.6866732  84.2167950
  47.9473102  41.9063138   0.4194312  48.1567729  42.8186654   0.6193881
  47.9123438  41.4758348   1.2736563  60.5147457  62.8664445  14.2637114
  60.5267680  62.8741216  15.2207999  61.1968184  62.2404146  14.0206294
 107.5559049  91.4538574  87.8623104 106.6320091  91.2395859  87.7329540
 107.9690909  91.2485790  87.0236397 105.6409603  31.4621305  46.5033484
 105.6670123  32.3784423  46.7788887 104.7648996  31.3475823  46.1350679
 110.9520345  66.9012070  50.9572220 111.1571323  67.7074194  50.4837370
 110.8601665  66.2382984  50.2728653 106.8504625  42.3826599  92.7099133
 107.0641690  43.3153963  92.6862907 106.2576240  42.2539425  91.9695091
 113.6546498  81.8526459  69.6375990 113.5212910  82.7556515  69.9257708
 113.4277448  81.3216305  70.4009914  30.5527377  68.9540577  47.4376440
  30.7148957  69.6429968  46.7932034  31.3240576  68.9697504  48.0042601
  10.7610381 100.1385593  57.7683973  10.5712748  99.2562389  57.4494457
  10.3405905 100.7183838  57.1333694 102.2303336  84.4311428  66.9438839
 101.3229936  84.2591858  66.6920996 102.5037771  85.1520634  66.3766766
   5.9269464  38.9815354  65.8305740   5.0845456  38.5273671  65.8485842
   6.4616108  38.5202503  66.4767790  55.7955450 102.5357495   2.5556235
  55.8371908 103.4821282   2.4182753  56.5446133 102.3423396   3.1192927
  89.9603927  28.0993413   1.3122706  89.8154998  28.6024331   0.5109362
  90.1883650  27.2215604   1.0060553  30.2596855  84.0120792  93.9311028
  29.9395585  83.1665611  94.2454910  30.1238394  83.9825153  92.9840469
 106.8063098  74.1723728  90.1166534 106.5896922  74.7959328  90.8098221
 105.9755271  73.7429810  89.9125576  98.1405669  62.3324299  59.4758177
  98.7963873  62.2060013  58.7901449  98.4328204  63.1134844  59.9456882
  43.9835358  74.1206980  62.4766731  43.9607811  74.7539616  63.1940937
  44.0341997  74.6569300  61.6853905  94.8105269  38.0623293  61.2167597
  94.9364000  38.2898760  62.1379614  95.6500869  38.2636666  60.8034372
  94.0308076  26.8225217  72.0865965  93.7196141  26.3170099  72.8374910
  93.2818800  27.3627257  71.8345690   9.1819453  82.8621769  54.8361778
   8.9730328  83.7634659  55.0816822   9.4549072  82.9204845  53.9205742
  10.2255440  75.6721210  40.1425362  10.1227474  75.9722757  41.0456276
  10.3559029  74.7268200  40.2177000  10.8832085  59.6946239  67.0450115
  10.3629816  59.0862417  67.5698614  11.7816138  59.3749571  67.1281481
 108.9131140  68.4127283  55.6648064 108.0153721  68.7368584  55.5924988
 109.3081486  68.9523077  56.3496637  13.2579720  79.0859413  72.6065874
  13.0625951  78.2573795  72.1689320  14.1124296  78.9456558  73.0145741
  30.3404212 100.8793068  57.4345541  30.7307053 100.6948471  58.2888842
  31.0885668 100.9768295  56.8454838  48.0289632  95.3759967  12.0598559
  47.7379811  96.2778531  11.9249014  48.3951551  95.3722773  12.9442362
  13.4715545  78.4616375  30.6708646  13.8969290  77.6645660  30.3547001
  13.1424165  78.2292175  31.5391254  16.9600320  49.4771957  93.9354229
  16.0834944  49.1899824  93.6796474  16.8216062  50.3289175  94.3497276
  89.1035133  20.4325318  58.0902243  89.9122387  20.9007883  58.2974195
  89.3229347  19.9032462  57.3234510   1.2021676  69.0232849  72.2577477
   1.7693804  69.6955490  72.6353264   0.5044784  68.9085388  72.9029560
   7.8857684 104.5394325  63.1726885   8.1275356 103.8565540  63.7983465
   7.2999251 105.1165581  63.6625433  95.6799799  72.7774429  66.6248846
  96.1457163  73.1000280  65.8533525  96.3146358  72.2163439  67.0705462
 111.1630123  31.0604501  65.2836466 111.0517227  31.9375849  64.9169302
 111.1416566  31.1926270  66.2314367 114.7708733  65.7498646  47.3222256
 114.0307572  65.4007435  47.8187895 115.0785714  66.4927864  47.8414726
  22.2655201  75.9641027  63.0627298  21.8457460  75.7287455  63.8901520
  23.2020211  75.9639120  63.2607126 112.6114883  72.2226429  84.1297436
 111.7819744  72.6993275  84.1599178 112.4317148  71.4639950  83.5744381
  51.8907022  59.6487904  23.3199835  51.4594507  59.2395926  24.0701938
  51.3053179  59.4747019  22.5829291  11.0409236  76.0742617  54.1566563
  11.3858962  76.0283566  55.0483513  11.7788732  76.3810825  53.6298561
 105.7281345  64.3848705  62.4175596 105.4448848  64.4437599  63.3299923
 104.9751228  64.6920061  61.9127131   1.0575421  84.9899006  60.7083273
   1.0321674  84.7115040  59.7928619   1.8459013  85.5289173  60.7729864
  22.9655433  55.4552889  81.6909122  23.4368348  56.0832405  81.1433792
  22.5541210  55.9906101  82.3694420   3.8038889  58.9019632  57.7329302
   4.2833114  58.7133265  56.9262075   3.6945510  58.0482340  58.1517696
 113.0544587  79.6643734  89.2585468 112.9178157  78.8750267  88.7346268
 114.0021592  79.7058201  89.3865299  68.3425635  10.9160613   4.3022971
  68.5917920  10.0893258   3.8892226  69.0932554  11.4920186   4.1575007
  35.9545905   3.5560835  40.2056456  35.5159587   4.4024886  40.2919197
  36.7252742   3.6271990  40.7688665  18.8163388  75.2842331  59.1011810
  18.5315990  76.0461950  59.6057367  19.6715653  75.0600433  59.4680023
 102.4673598  91.7812347  70.6904459 102.0899659  91.1844540  71.3367176
 101.9890505  91.5933418  69.8828888 107.9422211  74.9077129  74.0114355
 108.8740795  74.7559118  74.1690016 107.7044391  74.2648220  73.3433151
  33.0523402   7.9619158  51.7209435  32.7879393   8.8630332  51.9061565
  32.2369194   7.4616278  51.7531157 116.4043337  84.4970512  69.1241407
 116.5062954  84.2292690  70.0374460 116.7272946  85.3978252  69.1011715
  62.7922397  92.9662704  85.1863194  63.5604053  93.5232544  85.3124809
  63.1240135  92.0741367  85.2876091  19.3071330  74.9971867  74.3232059
  19.2119992  74.5011377  75.1362991  19.4747925  74.3323708  73.6552715
   5.7519734  69.8469496  61.0127783   5.3062797  69.1617537  60.5146885
   5.0538045  70.4497623  61.2685251 103.8712538  25.6451844   1.5384058
 104.4841993  26.0111665   2.1760516 104.3610275  24.9422502   1.1115222
  23.8885617  95.1923275  74.9375486  24.8256350  95.0522423  74.8015356
  23.6888599  94.7125626  75.7414007  85.9790092  61.1282110  62.5106001
  85.8159309  60.2909374  62.0763016  86.2643176  61.7113256  61.8071747
  34.0458632  50.5747032  51.3153315  34.8009467  49.9884605  51.3643551
  34.3602133  51.4012861  51.6816235  34.3742847  90.6810856  67.5767565
  33.9922142  90.3317738  68.3818865  34.7735524  89.9218369  67.1520710
  99.8605984  86.0698128  57.0269299 100.2980416  85.6625843  57.7746248
 100.2868884  86.9219017  56.9349909   9.5311339  29.5115518  12.6877646
   9.9232275  30.2221441  12.1802668   9.9360783  29.5828103  13.5521559
  18.7780559  66.9729090  81.1451817  17.9723716  66.6015482  80.7857513
  18.5820305  67.9025126  81.2619686  21.1394596  53.5411501  58.7950659
  22.0675254  53.7512922  58.8988209  21.1236095  52.8438473  58.1395149
  30.7394123  63.1299686  55.4098558  29.8246408  63.2045650  55.1380825
  30.9160447  63.9435577  55.8822012  77.2227018  19.8588704  17.0785098
  78.0351271  20.2602481  17.3868708  76.5331716  20.4476356  17.3853163
  45.0074148  99.4804096  60.1250172  44.6148062  99.1146660  60.9176874
  45.2976131  98.7162495  59.6269369   2.1440877  58.7970114  93.3313084
   1.2497313  58.5709667  93.0758476   2.6936296  58.1733179  92.8567123
  16.4027810  80.3608990  84.6924019  15.5986226  80.8254433  84.4605446
  16.4979851  79.6931791  84.0132046  87.9788118 102.7368641  82.0178890
  87.7408200 103.6257648  81.7543697  88.9153867 102.7864265  82.2092152
  19.9355793  89.1291428  76.5291452  19.6909642  89.5301628  75.6951284
  19.1181922  88.7644482  76.8684101 109.1933834  83.1847286  66.3301897
 108.5921817  83.6445713  65.7442379 109.9552375  82.9877663  65.7851982
  12.3991472  24.6916818   2.5979571  12.8126652  25.3321027   3.1768374
  12.2936422  25.1536035   1.7662577  77.3295705  52.5143861   0.5520300
  77.9477633  52.3800611  -0.1663251  76.7758241  53.2381963   0.2592902
  33.4808874  52.6661921  70.5036831  33.2432175  51.7848301  70.2156830
  34.3335867  52.8282499  70.1001072  13.3607006  78.7467623  80.9103680
  12.7592385  78.0504656  80.6464577  12.8162551  79.3584728  81.4059639
  35.7250857  83.9449978  73.0140066  35.4281068  83.3892536  72.2934580
  36.6787362  83.9540672  72.9321289  18.7163228   3.5988654  95.1378536
  19.4585961   4.1037978  94.8057461  18.1265301   4.2554892  95.5082893
  51.8196154  71.7001390  79.7057438  51.5113354  71.9555283  80.5752087
  52.6841545  72.1039438  79.6299791  10.3714824  88.4269524  56.4199829
  10.5388355  88.6902046  57.3249292  11.0944557  88.8084316  55.9219742
  19.8871565  60.3281116  82.1002960  19.6762693  59.9286890  82.9442215
  20.7053638  60.7997322  82.2563076 106.3845425 105.2971554  64.9250507
 107.2499233 105.0236893  65.2292919 106.5001648 105.4598808  63.9889002
  99.8844867 105.4148769  62.4101782 100.7478290 105.5537987  62.0208549
  99.9205917 105.8810043  63.2454395  39.0470719 103.6701488  45.8013201
  38.9832020 103.3495712  44.9016666  38.2239604 104.1360188  45.9485865
   4.9625418  81.8057823  62.4439955   4.2660493  82.1290016  61.8724585
   5.5338657  82.5622272  62.5766897 114.6983278   3.2502746   7.0272879
 114.4267381   2.6940250   7.7573924 114.7251809   4.1332197   7.3959593
   5.0539500  46.9869757  87.5358772   4.1077948  46.9022512  87.6535416
   5.1965076  47.9249859  87.4092007  23.7758088  83.7941837  47.6551390
  24.4025064  84.1668510  48.2752991  23.0611682  84.4302940  47.6253796
  15.9871554  84.5724297  59.3750763  16.8171287  84.2559242  59.0184307
  16.2282491  85.3328133  59.9041510 105.7867985  98.7108707  37.3589134
 106.7317444  98.8274765  37.2603679 105.4310792  99.5988846  37.3251581
  93.6956268 102.0657158  64.4295359  94.2243415 101.3239288  64.1355371
  94.2719274 102.8238487  64.3328714  44.9776840  91.5097427  70.5296087
  45.5586481  92.0046329  71.1073589  45.3911400  91.5667725  69.6681929
  74.4251636  21.1552285   2.6772742  73.5784114  21.1689376   3.1234316
  74.7042933  20.2406930   2.7212672 108.5013258  84.3222237  95.2010155
 108.4788751  84.3395710  96.1577988 109.4287222  84.4116497  94.9815369
  10.6365693  87.0428181  53.4433651  11.1887062  87.8095913  53.2902956
  10.8017135  86.4746952  52.6909018  11.3411653  94.5328045  68.5894728
  10.7903302  94.5147705  67.8068590  11.0848987  93.7522984  69.0807724
  74.0390516  17.4583244  13.1040625  74.8200506  17.1991491  13.5930399
  73.3340219  17.4393224  13.7512164 116.4531920  68.3894491  74.3961477
 115.5528274  68.6810589  74.5394659 116.7007051  67.9640007  75.2171040
  87.0636182  74.9597502  74.6123552  87.5124269  75.8016634  74.6897507
  87.7190667  74.3138170  74.8757696  12.6059794  96.5372086  85.9491825
  11.8118620  96.1158848  86.2779713  13.1191051  95.8214951  85.5741024
  28.6101103  62.3867893  86.9673061  29.1297603  63.1893635  87.0128250
  27.9522943  62.4880409  87.6552486  70.5043626  29.7078561   5.4301886
  70.4762942  29.4541787   6.3527445  70.3793711  28.8878869   4.9524169
  45.3644991  72.1777868  65.1281023  45.8343029  71.9866753  64.3163204
  44.4399118  72.0925093  64.8955059  55.5782760   8.4145593   3.4947352
  55.3536189   8.0999946   2.6190619  54.7915352   8.8697337   3.7948756
   3.4363163  70.8921766  71.9668150   4.1338843  70.2703714  72.1741629
   3.6941963  71.2697601  71.1258841 111.2788146  47.7742529  75.9884691
 110.5534392  47.3912096  75.4951763 111.5358245  47.0900631  76.6065741
  17.4363160  98.7735462  56.0214329  17.1201122  99.6212673  56.3338852
  17.2697556  98.1731510  56.7480755 114.6102456  66.3659191  36.3031960
 114.7312656  66.7204905  37.1840262 114.9572393  67.0432186  35.7225990
 115.8176438  99.3045139  75.5852938 115.6200681  99.5664883  76.4844990
 116.7125017  99.6106243  75.4377747 110.2527797  94.4186401  52.0176220
 110.8495479  95.1405525  51.8202925 109.8193049  94.2317772  51.1849070
 111.8655914  95.1898193  68.7991905 112.2121986  95.6411648  68.0295229
 110.9191292  95.1677990  68.6579227 103.5209143   8.5616540  11.5207629
 104.4642008   8.7196492  11.5592246 103.3502138   8.3533716  10.6022219
  43.0576563 102.0219421  67.9539633  43.0191946 102.3915863  67.0718527
  43.5909128 101.2326241  67.8598547  21.2087202  50.2017403  32.2122025
  21.4152312  50.7194090  31.4339972  21.2550688  50.8272934  32.9352260
 102.1103137 109.3957329  83.7561607 101.8566530 110.1622868  83.2420731
 102.8545111 109.0248871  83.2819462 103.8671916  58.5046434  52.4158716
 104.0130692  57.9644680  51.6392326 103.2674187  57.9902697  52.9561710
   3.7497798  61.7789459  61.3301516   2.9279324  61.3231230  61.1484289
   4.3350571  61.5087509  60.6225681  87.2876585  27.4027204   6.4871268
  88.1827104  27.6300000   6.7390399  87.0795787  26.6305017   7.0130686
 109.8423135  57.5978470  52.6932096 110.3208833  56.7849207  52.5308704
 109.2660528  57.6920891  51.9347429 100.3093803  49.5955419   1.2847571
 100.0558627  50.0585889   2.0832209 101.2111461  49.8728895   1.1230998
  22.1593809  60.7165432  91.6718102  21.5798569  61.3183880  91.2047291
  22.2788286  61.1184359  92.5323009  55.5879849   9.2195548  81.5372849
  55.4971332   8.3495081  81.1487007  55.2028245   9.1337813  82.4093628
   7.0622277  69.9999619  54.0549469   6.6207701  70.4149437  54.7959805
   7.9783821  69.9390364  54.3254662  24.8202354   1.6442049  37.0213437
  24.1210038   2.0097006  36.4793873  25.5080027   2.3097647  37.0058680
  10.2552652  32.8925633  71.0423851   9.6999294  33.3304310  70.3973246
  10.8414888  32.3442507  70.5209208 101.8172019  91.2771893  48.5187769
 101.2491756  91.0973930  47.7696085 101.3960975  92.0099163  48.9682341
   8.8797182  80.0722790  55.1231146   8.0485725  79.7832727  55.4998112
   8.7023264  80.9560966  54.8011923 106.2597888  64.3685770  31.7143822
 106.6897469  63.5251045  31.8555331 106.9724863  64.9655485  31.4865232
 110.4980868  93.5359001  45.0429010 110.2619051  94.1085052  45.7726812
 110.3322613  94.0631390  44.2613983   7.1935874  74.8967743  64.9823809
   6.2791616  74.9086094  65.2650738   7.1981674  74.3315840  64.2098713
 110.7193249  39.6289086  84.2342854 109.8591858  39.4718981  83.8447475
 110.8125495  38.9416504  84.8939896  38.3900785  97.8731441  42.0499182
  39.1975236  97.3847866  41.8894100  38.2715607  98.4052372  41.2631130
 111.7030328  74.3440771  54.1036081 111.0772633  73.8273478  53.5960293
 111.1587923  74.8817778  54.6788597  20.1107287  69.5141649  90.9118748
  19.8069000  70.1713991  91.5379429  19.3168020  69.0482616  90.6494808
  93.4395790  15.8685493   5.0670104  94.2836130  16.0894393   4.6732478
  93.4925497  14.9276971   5.2349906  13.8448215  80.0006676  94.7778702
  14.2206681  80.0256062  93.8978958  12.9161465  79.8167658  94.6365452
 108.3725631  82.5223541  68.7240553 108.8154989  82.5253677  67.8755093
 108.7060457  83.3002949  69.1710711  54.0693665  96.8227959  79.5521498
  54.5704269  96.7993069  80.3673935  54.4010735  96.0813618  79.0456963
  43.4165478 106.8848801  65.6009626  43.7211561 106.5491199  66.4440012
  42.6948929 106.3045883  65.3586531 107.6710408  70.4768181  93.0631733
 107.8099006  69.5367050  92.9485893 106.8075531  70.6394243  92.6834679
  29.9706173  87.5646591  45.5935287  30.4291201  87.8820610  46.3715124
  29.0756416  87.4032021  45.8921623   6.9265723  83.5428715  74.9215603
   7.0208985  83.4200001  75.8661413   7.0708394  82.6721001  74.5511770
  88.3660353  23.7665605   3.0290846  88.9819575  24.0722989   3.6949591
  87.9676819  24.5664548   2.6859812  46.8831062 109.1376220  12.9141955
  47.5962752 109.6503268  12.5337271  46.1290687 109.7270118  12.8976016
  19.2360294  83.6624813  63.2852983  18.9376533  82.8733826  63.7375450
  19.6858418  84.1700554  63.9607763  51.4691162 107.9910469  65.3345442
  51.9904470 108.6037731  65.8532095  51.7743397 108.1176376  64.4361877
 103.0552965 101.4182472  74.5617580 102.8412300 100.9444809  75.3654718
 102.5288635 100.9923363  73.8852262   7.4913490  76.6865063  80.7480240
   7.2997892  76.4741516  81.6615009   7.9685515  75.9243584  80.4199409
  39.8854899  65.7743692  61.4943218  39.5514154  65.4429674  60.6607771
  40.4912901  66.4735508  61.2485886  96.1654883  45.6438541  93.3584404
  95.9512239  44.7428322  93.1166172  97.1222013  45.6731129  93.3498001
 112.1741327  66.0295773  45.5844402 112.5133132  65.9593773  44.6921062
 112.6230216  66.7908669  45.9520960  10.7777274  69.3259430  49.1675806
  11.1506867  68.9527655  49.9662495  11.4976394  69.8198318  48.7751150
   8.2745206  33.2548523  20.3333187   8.0970496  32.4514127  19.8442185
   9.2253327  33.3564615  20.2901459  20.4873681  45.6715822  84.3349075
  19.8800337  46.1458874  83.7670994  20.1626706  44.7711372  84.3338108
  31.1533427  57.6407480  51.3435555  30.2855945  58.0313110  51.2400913
  31.4810038  57.5448465  50.4493093  36.0469651  78.8838053  39.4249058
  36.3749218  78.3610868  40.1566458  35.6119394  78.2504177  38.8541126
  23.6122084  44.1058636  32.0026183  22.9981709  44.8101807  31.7949533
  23.2763219  43.7270403  32.8149629 116.2770441  74.9766159  64.1000319
 116.4681024  75.7375574  63.5516787 117.1373348  74.6345615  64.3431997
  34.0679932  57.7737522  51.6982079  33.6163259  57.8241539  50.8557796
  33.3740640  57.5900221  52.3314047  26.1023831 103.8221264  74.8908615
  26.6681695 103.2998371  75.4594898  26.6821623 104.4894314  74.5237207
  22.4266338  86.1843586  66.5272951  21.5662456  85.7985878  66.3625526
  22.3162794  87.1126461  66.3215113 113.4908020  60.8934259  90.0377560
 112.8910616  60.3942204  90.5921364 114.3410164  60.4724884  90.1649475
  39.0952229 102.9656219  54.4642687  39.0076351 103.4144974  53.6233902
  38.9383388 102.0435047  54.2610121   0.4015858  91.0945415  85.6271935
   1.3370259  91.1697102  85.8156967   0.2604095  91.6756916  84.8798275
  17.7578735  77.3183632  73.6676884  17.7717137  77.4487495  72.7195120
  18.3065534  76.5473175  73.8114595  72.7512855  38.5484266  11.7520670
  72.4136269  38.5853147  12.6469664  73.3270863  37.7838182  11.7446570
 110.7870203  98.2738113  75.5416632 110.1578354  97.5537491  75.5850124
 111.2240189  98.1595421  74.6977377   4.4566137  53.5921144  11.1398558
   4.7057087  54.4734144  11.4182333   5.2764446  53.0980920  11.1467032
  18.6905563  83.3086109  83.2747173  18.1075287  82.6704502  82.8635502
  18.1392014  84.0772533  83.4211159  21.4626527  88.7670231  57.1281576
  21.3941073  89.6830177  57.3974180  20.8015251  88.3135319  57.6511145
  36.6376977   6.5624846  90.3137970  37.4620351   6.0759772  90.3114510
  36.5267922   6.8414153  91.2227154  13.8510823  64.4227648  78.1324577
  13.1019890  64.4164419  77.5365925  13.6366343  63.7648249  78.7937880
  14.0138859   7.5311030  78.8787556  13.3323425   6.9352091  79.1896200
  14.1626305   7.2713984  77.9695463  36.3462305  64.7497797  63.1276751
  37.1574831  64.3470812  63.4374094  36.4942479  64.8990202  62.1938372
  22.8948140  72.8548384  91.7470646  22.7250862  73.5587978  92.3730469
  22.1301055  72.8567410  91.1713409  33.6626649  82.1311283  94.2830563
  34.5220494  81.8313122  93.9867306  33.1279469  81.3376236  94.3088055
 109.8662686  84.7603130  84.8126316 110.2715289  84.2325401  84.1245556
 110.0205218  85.6655216  84.5423508   8.6429226  66.8528748  50.9451723
   7.8479195  66.3755465  51.1825752   8.5700160  66.9844437  49.9998617
 116.8481624   4.8056506  14.1474776 115.9376395   4.8389625  14.4408564
 116.8002332   4.9440765  13.2015566 116.7374719  29.0105581   2.9254393
 116.0879410  28.8608598   3.6124091 116.7941153  29.9633264   2.8528933
   9.2162025  82.9350948  66.6685057   8.9919984  83.8425636  66.4624166
   9.1814137  82.4824810  65.8257961  36.6687107  98.5749149  54.3190718
  37.0063972  97.8036308  53.8637495  37.1700835  98.6107826  55.1336718
 111.1386746 106.4752865  78.4855795 111.7239969 106.2457180  77.7638292
 110.7966285 105.6357574  78.7928677  12.0434463  62.1094370  64.3775034
  11.1977100  62.3739338  64.0155602  11.8751907  61.2584782  64.7822189
  45.3937912  67.5937700  32.1712446  45.9734583  67.8984356  31.4731073
  45.2061939  68.3784628  32.6863098 108.8426554 101.5076351  86.9506073
 108.9913415 101.2620068  86.0374832 109.1054505 100.7358265  87.4520874
 109.8712491  72.9495525  83.9907074 109.4640129  72.5221634  83.2372284
 109.8659598  73.8808441  83.7695980   6.6119093  63.4303045  92.5444412
   7.4153519  63.2447863  92.0583439   6.9140172  63.7114143  93.4081268
   7.9713333  78.5756063  85.7299328   8.0170733  78.0364370  86.5195179
   8.6838692  79.2069721  85.8294392  99.1185289  69.3766356  65.0513411
  99.3908649  68.4714651  64.9005604  99.0530759  69.4516373  66.0033464
  14.5304799  99.6764088  60.3924465  14.9710774 100.4919720  60.6311083
  15.2429676  99.0625286  60.2142954  32.2541785  66.6987181  68.6255264
  31.4368343  66.2268782  68.4656858  32.5775862  66.9202089  67.7522659
  75.1629132  35.7648219  49.9899054  75.1601499  36.3812006  50.7222319
  76.0842151  35.6937636  49.7401333   0.6623604  66.4158869  69.7029591
   0.8396019  66.0499144  70.5694962   0.5707709  67.3565817  69.8544121
  50.0412208  15.3692282  84.6244431  49.9291843  14.7538317  85.3489876
  49.9801308  14.8269785  83.8380146   8.6742282  98.4471512  51.4007616
   8.6882192  97.9144001  50.6056499   8.3650899  97.8511524  52.0830011
   3.5673779  90.9361553  81.0409260   3.9385632  91.0155201  80.1622009
   2.8615257  90.2966404  80.9459019 112.8463378  82.8764915  51.5477085
 112.7775409  83.6055756  52.1641016 112.7555865  83.2823563  50.6855774
   4.0877029  60.0670481  17.8154445   4.2182094  60.0150013  18.7622762
   4.8718286  60.5088043  17.4895132  41.7147005   2.1779765  86.7608738
  41.9169894   2.5635088  87.6133251  42.5660825   2.0786036  86.3348389
   4.5356399  96.0040188  80.0796890   3.9504802  96.7421055  79.9092865
   4.4832033  95.8703136  81.0260487 114.4463172 100.9426880  77.8890753
 114.2589092 101.7329979  78.3955383 115.3907570 100.9743023  77.7365398
   4.1565928  99.5802975  93.4349155   3.8677338 100.2418804  92.8063488
   4.8772538  99.1299152  92.9944229  46.0758352  71.7384720  94.9558544
  46.7353106  71.7344141  95.6496239  46.3311815  71.0189867  94.3784714
 111.3578373  83.4639740  63.8981533 112.2272235  83.8289642  63.7332821
 111.5187615  82.7069664  64.4614267  84.2137742  49.5712423  20.1397566
  85.1292932  49.3824624  20.3457121  83.7239874  49.2233896  20.8849673
 103.3583343  54.6729039  19.7504286 104.0335811  53.9988469  19.8274188
 102.6701367  54.2636918  19.2258696   1.3629431  79.7708654  59.7527933
   1.8544853  79.2484903  60.3866243   0.4475991  79.6607351  60.0101805
  33.9204288  82.7497673  58.6151457  34.7639561  82.4696159  58.2598925
  33.5627198  83.3362865  57.9486084  54.1496372  65.6090593  79.2552471
  54.0591192  65.0734425  80.0433826  53.6233330  65.1563406  78.5962439
 111.1837172  89.3850517  88.7132263 110.7889223  88.5147095  88.7667561
 112.0012029  89.3079090  89.2051601  79.8814239  12.8233861   7.7083067
  79.4776462  13.6065673   8.0822329  79.4962547  12.0976209   8.1993727
 108.6367052  92.0640659  92.3782063 108.8149583  93.0028343  92.3219299
 108.5953563  91.7730999  91.4672375  37.7730060  71.9276667  91.7280674
  37.5913119  70.9888792  91.6845989  38.7219119  71.9829988  91.8409634
 112.5954043  88.1275368  52.6277685 111.9816035  88.8474846  52.7732086
 112.4553984  87.5397587  53.3701611 109.3696016  68.3077192  62.9712725
 109.4884204  67.9819012  62.0791101 110.2533262  68.3281183  63.3384895
 105.3122550  69.1482210  89.3406487 106.1994272  68.9295149  89.6258259
 105.3865009  70.0337315  88.9848614  49.6479005   0.8121050  85.7071781
  50.5963546   0.6977118  85.6473255  49.5172137   1.7590083  85.6570339
  22.4752426  66.4414406  75.6420517  21.6833568  66.8849945  75.3380585
  22.2179008  66.0308981  76.4675570  14.8211718  70.0832272  60.7027864
  15.6187749  70.0419331  61.2303829  15.0821710  69.7429180  59.8470402
  11.6719794  72.8987932  65.9304333  11.7018008  72.1185780  66.4841557
  10.7383561  73.0797911  65.8217096  32.2958285   2.4020709  68.2008791
  32.3820818   2.2126235  67.2665882  32.9835624   3.0433787  68.3797169
 114.9127599  71.5562773  93.3284092 114.7708217  71.5529585  92.3817921
 114.3431031  72.2534084  93.6535740  25.3955054  99.6850491  76.2274694
  25.7142138  99.2614174  75.4304838  26.1012769 100.2797985  76.4812279
 105.9377783 108.2842255  72.2894955 105.7617717 109.1675854  72.6134443
 106.7658561 108.0384350  72.7019358  34.7312140  86.0885620  64.5933485
  34.8623276  85.1577568  64.4126844  35.1229954  86.2225437  65.4563618
  20.2115560  48.2647896  34.7746873  19.3902004  48.0257845  34.3451738
  20.6432843  48.8532829  34.1553974  85.2124506  72.7273273  83.0641651
  84.2722517  72.8067064  82.9030514  85.4610258  71.9093847  82.6335716
  90.5446029   8.7362050  19.0138487  89.9558759   9.4886970  18.9556460
  89.9741590   7.9762983  18.8982348  28.0990148  94.4585133  65.3885937
  28.7924910  93.9770317  65.8397007  27.7598262  95.0638771  66.0479212
  88.6475438 101.1001073  22.7461009  88.1717366 101.7059718  22.1779780
  88.2064933 100.2595912  22.6226763  15.9084427  82.0955849  92.3474407
  15.9588218  82.5887966  93.1662369  15.5867624  82.7288437  91.7057705
  17.1063519 102.9715061  38.4737945  16.2163866 102.7431583  38.7422180
  16.9898915 103.6608982  37.8200388 113.4611451 100.1103020  55.2114964
 114.3141463 100.4321766  54.9199200 113.4043797 100.3790855  56.1284256
 103.5147994  63.8425541  76.5851355 104.1956132  63.8070011  77.2570419
 102.7399259  64.1640091  77.0460796  15.4974008  61.9791031  20.8943152
  15.3578210  61.8931437  21.8373728  14.6243596  61.8846464  20.5133843
  88.8487566  38.4374189  11.6842227  89.0260780  39.3187665  12.0128970
  88.1154251  38.1268071  12.2152380  45.3121185  64.7594404  53.9708138
  46.2550879  64.7293043  54.1324711  45.1647568  64.1030788  53.2898521
 111.3952225  75.4219484  58.1979895 110.7973223  74.7536898  57.8630590
 111.6064530  75.1313543  59.0852165   3.0611476  59.9828959  66.6990471
   2.3968494  60.4271984  66.1722326   3.7454960  59.7473335  66.0726213
  51.9106483 106.7426014  54.3794298  51.4863634 106.0113430  54.8282862
  52.6561928 106.9656563  54.9367857  65.9540701   6.8597554   2.2255854
  65.7716585   6.6199445   3.1341319  66.5354514   6.1690044   1.9076495
  25.1097369  93.0958557  61.0284615  25.6342292  93.2303238  61.8178034
  25.1572251  92.1535683  60.8669806 113.7604698  30.8134389  59.1072893
 114.3462920  31.5655446  59.0213633 114.3251916  30.0529861  58.9693356
  23.2125211  48.8632631  78.3190584  22.4580717  48.7779188  78.9019489
  23.5832691  49.7199106  78.5310411 103.2175124  49.9159478   1.2509207
 103.9279640  49.8049688   0.6191210 103.5092295  50.6312131   1.8161826
  35.0569129  91.9262981  42.5778008  35.2484369  90.9900570  42.5229645
  35.3922415  92.1895695  43.4348106  27.6393723  92.9057884  48.6989784
  26.9221115  92.3489189  49.0017462  27.7433562  92.6808739  47.7744102
  80.0338798  12.4308061   5.1455359  80.0628399  12.4463844   6.1021666
  79.5175808  11.6529941   4.9341731  53.7247479  35.9826421  13.7919383
  54.3688238  35.9050893  13.0880980  53.6879814  35.1085519  14.1803317
  91.1506706 102.5221062  90.6922531  91.2597376 102.6533127  89.7503757
  91.1805540 103.4044838  91.0620403  44.3620777  83.9643574  63.5246563
  44.4364929  84.9052143  63.6842918  45.2015734  83.7204361  63.1348133
 113.8617396  93.5608387  88.3576012 114.5843364  92.9435349  88.4717464
 114.0384545  94.2562389  88.9911747  80.0651985 106.0026932  64.7491026
  79.7177463 106.8844414  64.8833942  80.6685024 105.8690739  65.4801321
   5.0488776 103.9818287  60.6451893   4.9392787 104.9260902  60.7574320
   5.6161803 103.8959599  59.8790169  81.4599710  48.2514381  37.3036122
  81.8780404  47.5909662  37.8560877  81.8525868  49.0791512  37.5810480
   9.7223490 109.8476028  64.2576885  10.4969752 110.3749371  64.0624905
   9.2939472 110.3090191  64.9786568 105.2507716  88.1284904  28.4601283
 105.4992967  87.4440479  27.8388309 105.6979769  88.9133072  28.1434345
  24.2144227  84.2153358  38.4072304  24.1410422  84.4319630  37.4777555
  24.8786473  83.5269356  38.4410071  62.5669635  38.5174989  11.4449267
  62.3989487  37.7915429  10.8441119  63.5213566  38.5766267  11.4881854
 100.0290375  80.8960342  70.7349014 100.2952498  80.6970215  69.8372602
  99.1038566  81.1310291  70.6638241  93.4112233  22.6777781  90.6033039
  93.5220307  21.7872847  90.2701664  93.0661410  22.5611342  91.4884853
  35.2421761  86.7789459  74.3599892  35.3472114  86.5712643  73.4315109
  36.0257959  86.4195633  74.7759390  37.5471902  90.8616734  55.9625816
  36.9619727  91.5956783  55.7755375  38.2504511  91.2438202  56.4875793
   6.0888846   1.9957828  13.1913619   6.8911345   1.6835069  13.6098151
   5.4418499   1.3149547  13.3758788   7.3313767  67.3959160  42.0630836
   7.5998420  67.3785019  41.1444664   7.2918409  68.3265638  42.2834539
  81.4703483   1.8088759  50.4058027  80.7429904   1.1954154  50.5099869
  82.2283477   1.2531031  50.2247238  24.0172696  99.6549320  66.3618898
  23.3522749  99.1499615  66.8298769  24.6669388  99.8727989  67.0302486
   1.5958244  34.0779161   8.5035185   0.9799082  33.6343717   7.9202990
   2.4074728  34.1312265   7.9989295  21.8143588  -0.0319253  65.5942345
  22.4850959   0.3134860  65.0051403  21.5248233   0.7279051  66.0992670
  15.9542429  42.6918745  55.2094221  16.6267800  42.7497005  54.5307589
  15.1648200  42.4193096  54.7417116  55.1757002  70.5981350  45.2657747
  55.1328611  71.5427446  45.1170826  54.2985821  70.3633404  45.5687094
  37.7993488  85.2354431  57.9149532  38.3163047  84.8946095  58.6448956
  38.4206057  85.7527447  57.4024391  12.5059938 100.5741405  72.0747662
  12.0215285 101.3426781  72.3762274  12.8989208 100.2120113  72.8689384
  13.9099383  35.0673342  41.2015009  14.4157016  34.3049312  40.9201145
  14.4800258  35.8140016  41.0178709  63.8148785 102.5872993  69.0405607
  63.9815092 102.8679085  68.1407166  62.8789043 102.3877621  69.0598011
  42.5956583  95.5974197  68.2752752  43.2738018  95.0090981  67.9432726
  41.9757032  95.0206375  68.7215948  31.6071391  91.2642002  77.5293064
  31.0535836  91.1614799  78.3034229  31.4443183  90.4754162  77.0120573
  62.9199857  23.0920733  67.0412683  63.5384268  22.8019370  67.7117777
  62.1768898  22.4947299  67.1262598   7.0409775 107.4202728  60.7701540
   7.9519808 107.1980667  60.5779886   7.0775962 107.8738976  61.6122484
  20.6350684  72.6204252  40.0656271  21.4086890  73.1633902  40.2170563
  20.0261664  72.8721046  40.7599831  66.7521084  48.1494378   2.2394232
  66.7393303  48.1065797   1.2832694  66.1798871  48.8862085   2.4538188
  46.4567614  89.6795845  65.9457684  47.3126650  89.5381737  65.5412149
  46.2414551  88.8393688  66.3506413  33.0862069 108.9808083  89.1404819
  32.8845596 108.0475807  89.2087078  32.6392341 109.3777180  89.8880863
  90.8369547  60.4239130  88.3813000  89.9864178  60.7945299  88.6168098
  91.4537864  61.1464119  88.4985256  42.5299883  96.9552898  85.6684494
  41.8014336  96.9221210  86.2883949  43.0840397  97.6674938  85.9878635
 115.4263861  80.9217644  89.6114731 114.7488358  81.5850067  89.4800663
 115.8149223  80.8013439  88.7450027 107.5893945 107.7548753  17.3207812
 107.8187627 106.8959676  16.9659476 106.9212645 108.0903159  16.7230277
  75.3184313  23.9930380  92.8439903  75.3650111  24.7258318  92.2299290
  75.0166601  23.2552660  92.3140240  69.9284023  -0.0359880  76.6072416
  69.8663968   0.8991087  76.4123583  70.1735300  -0.4385339  75.7741165
 112.2398710  78.3656740  69.6628284 112.9469165  77.7414465  69.4995594
 112.5198924  78.8463783  70.4417658 115.6272816 101.1334610  67.7486897
 114.9758169 101.1339951  67.0473862 115.4475440 101.9330978  68.2431650
  34.3336439 101.8733311  80.5953598  34.0848088 102.0333290  81.5056992
  35.2230334 101.5234280  80.6481266  53.2956869   5.4254187  72.0118761
  52.6596278   5.1397551  71.3560867  53.0013341   5.0158156  72.8253937
  51.6080666  91.3505936  65.6013060  51.9094849  91.6193199  66.4691591
  51.0064650  92.0444012  65.3312492   5.6103939  91.3849735  53.0079651
   5.4925978  91.7827606  53.8705873   6.5084589  91.0538864  53.0175066
  44.0903473  96.1500835  53.5903454  45.0063610  96.3586426  53.7737846
  43.9754629  96.3687992  52.6655769 102.3856681  98.7384129  42.3771572
 101.9400137  97.9028988  42.2373581 101.6834300  99.3505859  42.5970030
  37.1318078  85.0920010  93.3571911  36.8886828  85.0304508  94.2809486
  37.5691056  85.9400177  93.2806015  16.7622864  80.7266998  63.7350750
  15.9659028  80.2073765  63.8460112  16.5834332  81.2800121  62.9747486
  30.7647395  83.1969261  67.6133776  31.6265178  83.1217384  67.2035980
  30.2881265  82.4232864  67.3124552 101.3778675  28.2636880   7.3801188
 100.8130992  27.5116777   7.5583128 101.4660681  28.2764863   6.4270739
  38.6491323  93.4179974  69.9227810  38.1704402  93.7882900  69.1811800
  38.5344934  92.4718857  69.8335123  37.0451427  86.9057751  51.7612553
  36.9205809  87.4840260  51.0086966  37.9657125  87.0168209  51.9988537
   4.2670185   9.8133420   0.7963519   4.8385794   9.7091626   1.5570788
   3.8515169  10.6661653   0.9239535 112.8962993 104.8200512  91.4312363
 112.4625828 105.1987648  92.1959019 113.6284607 105.4106712  91.2541962
  87.7570778  91.5709400  61.9794321  87.9538637  90.9833336  62.7089691
  87.1082240  92.1804714  62.3311472  28.7275362  68.3786058  77.9319525
  29.0098906  68.4256077  77.0185566  27.7713895  68.3749866  77.8871965
 113.9326418  39.4777631   0.6634669 114.4365418  38.6641359   0.6817011
 114.3964827  40.0602865   1.2649111  32.3727870  87.3008633  70.7794380
  32.3260021  88.2563972  70.7478666  33.2963562  87.1116257  70.9451008
  46.5026903 107.3742771  52.1509743  47.2169685 107.4818993  52.7790356
  45.7928228 107.9125977  52.5010204  59.1154021  12.6447142  79.2503691
  59.2737979  11.8342913  78.7662697  59.9893230  12.9647196  79.4741774
  60.8949608  19.7904242  48.1846666  61.6118854  20.3370703  47.8630686
  60.4055184  19.5500983  47.3979521  59.1324854  93.8066959  43.9764071
  59.2011595  93.0038166  43.4597826  60.0251436  93.9741039  44.2786741
  30.3837466  79.7525501  66.0791636  29.7158098  80.4298210  65.9723902
  30.0262117  79.1666079  66.7463017  43.3601093  95.7026958  36.3028789
  43.6958599  96.5693283  36.0738683  44.0874434  95.2760696  36.7558813
  29.7858596 102.0610237  43.9348364  30.5520344 101.9294071  43.3763695
  30.0290036 102.7884674  44.5074987  11.5555096  71.1384010  45.4451513
  11.4866543  71.9380903  44.9236298  11.7235315  71.4468718  46.3355732
   7.0583088  37.9242849  19.3984084   7.6147349  37.8094816  20.1687674
   6.2222416  38.2299470  19.7502570  39.4661617 103.3879852  61.8726635
  39.1708326 103.7100315  61.0210180  40.4189348 103.4755421  61.8445730
  37.8284407  99.4236851  69.8145199  38.7115312  99.6622467  70.0964260
  37.8431702  99.5318794  68.8635683  17.8809822  96.0941792  64.6430922
  17.2421050  96.5244198  64.0747976  17.3512602  95.6424141  65.3000069
  15.2137959  88.2558346  57.9805326  14.4194174  88.4822083  58.4642172
  15.0057793  87.4245834  57.5539398 112.2389721  49.5469427  90.1809406
 112.7122440  50.3478098  89.9554062 112.6407733  48.8699102  89.6364975
  22.7322388 107.4297523  30.7034349  22.8366137 108.1935596  31.2708282
  22.0946383 106.8791389  31.1578846  11.5805805  69.1647053  88.4696388
  12.3977411  69.4282484  88.0465317  11.5092039  69.7395372  89.2316818
  13.9006329  71.8787622  92.2460938  14.3182707  72.6444578  91.8517399
  14.1394234  71.1524725  91.6701508  41.2792110  76.9076872  54.0751553
  41.6600561  76.7571163  54.9403238  40.8055687  76.0995817  53.8780212
 111.2525642  45.9935331   2.9177050 111.2003839  45.9612321   3.8729338
 110.3894079  45.7053518   2.6208071  89.3391150  16.2065829  54.3580294
  89.4013184  16.1633624  53.4038305  89.1704816  15.3039111  54.6281862
  39.9046302  86.6369820  78.2122898  40.5441189  85.9250832  78.1903934
  40.2050638  87.2495461  77.5409174  78.3999604  18.3443202  70.4638910
  78.7738079  18.3436717  71.3450670  78.1250471  17.4388636  70.3196812
   9.5221668 109.1021347  42.9931307   8.8419521 108.6386681  42.5045204
  10.1206601 109.4273853  42.3206329  63.8780880 106.5831470  59.4851446
  64.6972704 106.9826412  59.7776794  63.8307619 105.7556820  59.9639893
   1.4930332 109.6453285  57.6309061   1.6213703 109.2682743  58.5013008
   1.1385815 108.9260578  57.1081781  27.5735188  51.8969536  17.1181500
  27.0186615  52.0705748  16.3577414  26.9993329  51.4429951  17.7349699
   9.8776400  99.9544716  74.9694300   9.2905533 100.3940201  75.5845356
   9.3760592  99.9013996  74.1558981  70.1412481   8.2225455  72.7694559
  69.9730104   8.8275469  73.4918785  69.6787638   8.6052550  72.0238876
  47.2529697  58.0857420  69.7843313  47.3450136  58.5811710  68.9705038
  46.6460466  57.3782682  69.5667124  12.1821320 104.3097878  87.5406551
  12.3250735 104.5901966  88.4446239  11.6183829 103.5398006  87.6150322
  38.8416338  93.9535427  63.3787298  38.1273031  93.5549927  62.8816175
  38.4061527  94.5510960  63.9866114 102.2354203 100.6385803  50.6893873
 102.4223440 101.1396790  51.4832354 102.2885698  99.7236443  50.9656143
 114.0369668  83.3936214  88.8516617 113.8738802  83.4856701  87.9129601
 113.2685536  83.7843609  89.2677116 112.7041652  91.5571117  81.7339230
 112.1893703  90.7591438  81.8542004 112.8358188  91.6168594  80.7877064
  93.9727092  55.5443620   2.3083834  94.5479322  55.9071492   1.6347842
  93.1070268  55.5273008   1.9002966  94.5513600  28.7792529  75.9786844
  93.8318223  29.3185175  76.3068390  94.7762650  29.1684569  75.1335955
   6.5096457  17.6765966   9.5000319   7.3681290  17.3538017   9.7739748
   6.6343243  18.6182737   9.3820433   9.8229831  79.0058184  70.0332403
   9.3779981  79.2158842  69.2122126   9.5032364  78.1332207  70.2625132
  15.6824827  62.3188543  94.9099350  15.1340270  61.7088413  94.4166756
  15.2098548  62.4557066  95.7309914  99.1259927   9.3813361  67.9796982
  99.8617333   8.7691153  67.9899406  99.2635459   9.9339903  68.7490368
   8.6091215   9.6162223   0.7235388   9.0544684   8.7841033   0.8831458
   9.2235453  10.1177930   0.1876788  51.0518080   5.1252593  36.5048695
  51.3876814   5.5101050  37.3143840  51.5147299   4.2911566  36.4261317
  52.6425505  81.8866634  94.2516041  53.2067776  82.4063778  94.8241234
  51.9589758  81.5496826  94.8307419 107.1367205  28.3448839  16.6302733
 106.2232030  28.2526826  16.3596968 107.0918620  28.7853193  17.4789481
  44.6416766  10.0936736  72.7838230  43.9206168  10.1002444  72.1543264
  45.2803475  10.7085265  72.4228668  24.5086867  15.5147494  58.3651495
  25.1736671  14.8445929  58.2072878  23.8844687  15.0975836  58.9589167
  82.7910680   2.1092070  68.5959816  83.1851405   2.7648295  69.1713858
  82.1243876   2.5903929  68.1058550 107.8686488  44.2793607   6.0994772
 107.0563114  43.8552713   5.8229117 107.5824702  45.0712823   6.5546755
   0.1149032  70.8209085  84.0001583   0.6375588  71.3195372  83.3721161
  -0.0387999  69.9799395  83.5696030 112.0863760  15.8598518  24.1538386
 112.3176396  15.4171657  23.3372740 112.8995121  15.8712243  24.6587328
  44.9907541  72.1914291  71.9584894  44.4812822  72.8651190  71.5081453
  44.3341541  71.6312361  72.3723650  71.1992091   9.9967898  57.7665186
  71.6721696   9.3146933  58.2432652  71.2222618  10.7560099  58.3490038
  26.5370822 109.8681068  82.2819996  26.0210705 109.9367428  83.0852795
  26.8952847 108.9806938  82.3025227  30.5221772  82.0948315  44.9953365
  31.4140654  81.8902969  44.7143936  30.5509424  83.0231762  45.2268362
  30.7115054  95.5242920  57.1621799  31.3993979  94.9453545  56.8337393
  31.1766338  96.3100624  57.4493265  59.9415058   2.8949011  88.1569672
  60.6120724   3.5450877  87.9476166  60.3446001   2.3421324  88.8264370
   6.8953514  51.7478037  80.6282425   7.2231537  52.6453876  80.6841373
   7.6388919  51.2411785  80.3015804  62.5123567   1.0371912  92.5666809
  61.7463607   1.5695418  92.3520088  62.4843687   0.9505118  93.5195351
  14.3220186  59.6993303  74.8775434  13.9500296  58.9508057  75.3439808
  15.2492166  59.6929455  75.1152277  75.4379124   0.3613986  43.8574505
  76.1817640   0.8280123  43.4764194  74.7609252   0.3974856  43.1817150
  55.8454800  96.0313320  94.1053200  55.4817247  96.7438126  93.5796928
  55.1903582  95.8772278  94.7859764  32.5619292  77.1173048  84.3592834
  32.0378828  77.0676088  83.5598278  32.0804667  76.5873861  84.9945927
  61.2889952  22.2870768  78.4437513  60.9568948  22.5294436  79.3081570
  61.7446011  21.4573992  78.5862017  56.3959789  85.3464890  77.2575951
  55.7784128  85.5255318  76.5485191  57.1895075  85.0467300  76.8141079
  96.6404075  25.2490176  92.9021835  97.2823733  25.5804099  93.5301113
  95.7925338  25.4372633  93.3045578  89.2459697  15.0222338  67.4623775
  89.5618266  14.5349444  66.7014456  89.6685809  14.5993460  68.2099009
  87.7751130 108.1433307  15.0244574  87.9741973 107.5361357  15.7371382
  87.8228825 107.6073848  14.2328028 114.0838983  73.1754923  59.4567680
 113.2385039  73.3125353  59.8842716 114.5864488  72.6529837  60.0817966
 115.7328117  34.5302057   9.4900088 115.6918490  33.8030195   8.8689093
 116.4388073  34.2923593  10.0910334  10.6769252  80.8289814  63.7167978
  11.5128624  80.4746532  63.4136581  10.8271146  81.7718506  63.7851715
   6.0814411  32.5414514   0.5184035   6.0129864  31.8137883   1.1365084
   6.3198645  32.1289110  -0.3117700  12.0255792  80.6078720  29.8513508
  11.3898981  80.1603889  29.2928720  12.6375782  79.9209690  30.1156473
  36.2023425  74.1586781  84.7839928  36.5078521  74.5151472  83.9498329
  35.2825975  73.9429712  84.6298027  15.0399077  76.8492746  54.9101353
  15.0660586  75.9663916  55.2789974  14.2272091  76.8738413  54.4050121
  50.2211112  12.5183428  77.7614737  50.4360801  13.1741179  78.4247875
  49.6789140  11.8790472  78.2235909  14.4144249  67.5562668  83.2597733
  13.9905906  66.8080091  83.6801338  14.5139587  67.2924042  82.3450565
  40.6492615  96.5562725  47.9967022  39.7085381  96.5716267  48.1728697
  40.8424282  97.4276733  47.6508951  33.2653499  86.9058800  47.7924585
  32.5476837  87.2066689  48.3498764  32.9983544  86.0313606  47.5093174
  95.2183748   0.1462793   0.6499247  95.1816726   0.6909274  -0.1363607
  96.0125423   0.4313421   1.1018900  11.6740298  81.8747711  50.5866098
  11.9645500  81.5245438  49.7444868  11.6095817  81.1077499  51.1556101
  70.5618996  55.8146619   2.3627715  70.3457129  54.9418878   2.6910262
  71.4396370  55.9879064   2.7030520   7.5441086  80.6144905  92.8748608
   8.0577415  79.8176479  92.7427578   8.1540650  81.3270283  92.6838779
  15.6743026  84.7412968  87.2717094  15.7900977  84.5437241  88.2011127
  16.5580916  84.7008324  86.9063187  47.4530572  12.3999918  91.9355583
  47.0352853  11.5399016  91.9796467  47.8739274  12.4180544  91.0760403
  26.6279197  84.0095997  41.3629198  27.1355724  84.2698765  40.5942965
  25.7288623  84.2622662  41.1529541  93.2471019  75.4283381  62.6839161
  92.3345833  75.6103802  62.4594069  93.2069903  75.0524139  63.5632944
  19.5995712 103.9087105  61.6315651  19.2433548 103.1949234  62.1605778
  19.1181147 104.6840477  61.9201469  38.9790821 100.1528168  72.9685450
  39.3880892 100.2231407  72.1059942  39.7144008 100.0817871  73.5772276
  44.1486931  72.9133797  88.0560970  43.2757759  73.3013916  88.1168365
  44.7233677  73.5484791  88.4834385 103.3133191   1.4284457  71.4087200
 102.7223653   1.9844950  71.9164801 102.9564351   0.5458773  71.5083551
  73.0690873  79.3028688  15.4267363  73.4732867  79.2756032  14.5594935
  73.1906340  78.4197950  15.7755141 109.7560060  27.8590726   1.1074214
 109.5184911  28.6398172   0.6071524 110.2905691  27.3419618   0.5048613
  50.9679079  72.8512430  82.1207333  51.2726927  72.7187681  83.0183887
  50.0320005  72.6532316  82.1538830  49.8301810   3.9226759  59.1420889
  50.0548202   3.6666335  58.2475471  48.9268381   4.2335738  59.0825367
  91.2317532  38.3042468  64.5731068  91.3245028  39.2315520  64.3546152
  91.7598313  38.1903780  65.3632927  36.5350855  40.4908418   5.0332980
  37.4543226  40.6842565   5.2172141  36.0517729  40.9483575   5.7212786
  15.9799778  78.9290237  82.1923828  16.4847636  78.4427166  81.5405178
  15.0957441  78.9707756  81.8282127  39.5508122 105.9270954  91.9793892
  40.1728821 106.6528988  91.9297791  38.8366699 106.2604237  92.5226402
  34.8059845  88.0749893  83.7957001  34.1400099  87.5468349  84.2358780
  35.1776028  87.4901199  83.1353474  48.8184071  78.8543892  53.9507151
  49.4937992  78.2257223  53.6960554  48.3162642  78.4043932  54.6301174
  11.6083753  89.0232658  36.0710049  10.9139395  88.5947800  35.5706096
  12.2862029  89.2162132  35.4232764  57.9350931  28.4715785  67.6822472
  58.8299102  28.4871615  67.3427010  57.7650410  29.3744696  67.9507542
 108.2417154  87.2094536  89.2833138 108.9970058  86.6551781  89.0869904
 108.1469297  87.7673721  88.5113144 110.9791220  99.6234464   3.9479689
 111.8948639  99.3513917   3.8876395 110.9538138 100.4769086   3.5153059
  49.0327740  74.2437315  68.6009836  49.9402666  74.2154932  68.9041138
  49.0244389  73.6927652  67.8182936  28.5878563 102.1975517  49.6386576
  27.8808308 102.7148438  49.2529774  28.2226586 101.8671894  50.4594707
  38.9502072  77.4515629  87.1058750  39.3119025  76.9011497  87.8004646
  39.3902540  78.2946157  87.2147179  18.9608002  90.0256538  74.1820145
  19.7516239  90.2916908  73.7129164  18.8025546  89.1266060  73.8940811
  93.1158173  59.7525644  48.9398055  92.5485671  60.4868650  48.7047057
  93.4986961  59.4701909  48.1092028  83.3415908   3.9171923  51.5174866
  82.6756829   3.6015929  50.9065866  84.1209811   3.4019412  51.3093853
  30.0353217  99.5107937  94.2306614  30.2187371  98.6882973  94.6846294
  30.6479549 100.1380730  94.6146297 111.8854218  51.8225956  42.8145933
 111.5908771  52.2234917  43.6323738 111.7108279  52.4854040  42.1464396
  41.7146313   3.0677355  76.5288496  40.9070483   2.6531924  76.8324947
  41.5921515   3.1679095  75.5848169  27.4362636  56.8339062  62.1711731
  26.6290283  57.3479128  62.1911097  27.7570271  56.8566656  63.0727434
  49.9159956  95.3980541  62.7109671  49.6577549  94.5901585  63.1546402
  49.9349880  96.0569286  63.4050465  35.0096369  98.7371445  58.6633110
  35.7978678  99.2702866  58.5599613  35.0503302  98.4219933  59.5662260
   9.7969896  34.7432851   2.5386862   9.5699675  33.8743638   2.2075228
   9.0159065  35.0311040   3.0112319  21.6701865  92.4684620  77.3414087
  20.8021760  92.4050426  77.7398634  21.6740584  91.7897511  76.6664505
  33.8604188  67.3353720  82.3718643  34.4662452  67.2324610  81.6379642
  33.3866692  68.1446123  82.1797085  55.6625414 108.4437370  51.2259865
  54.7954607 108.6214733  50.8615494  55.9012794 109.2513752  51.6809225
  24.7087669  77.3186111  83.2536221  24.1224933  77.9944897  82.9134750
  25.5872202  77.6756811  83.1230354  31.6598368  60.7211542  64.0492773
  32.4500751  61.1174822  64.4162703  31.7913699  60.7577133  63.1018639
  45.2888012  94.0658092  49.3027878  44.4177389  94.4335747  49.1536856
  45.7626963  94.2346954  48.4884596  48.5296249  86.0729885  94.4250584
  49.2928791  85.5605221  94.1584969  48.6092186  86.1441040  95.3762913
  53.9230061  86.9359875  48.0084896  53.9193773  86.8687725  47.0536613
  53.7995148  87.8689289  48.1833935  35.6529713  77.6241636  94.1937160
  35.9472895  78.4962845  93.9309978  35.9832597  77.0433474  93.5083008
  89.5121402   5.6187285  21.9999242  89.1751117   4.7236289  22.0378566
  89.0180940   6.0308493  21.2911868   5.5569786  65.8463430  64.6467733
   4.7898281  65.9737492  65.2048779   5.3141284  65.1244879  64.0669632
  92.6219571  50.9148073   5.7533125  93.3842123  50.3427076   5.6644015
  92.9512644  51.6813897   6.2224822  80.7436186  90.8720493  66.1975574
  80.2065449  91.2983799  65.5297089  81.0143905  91.5838242  66.7774630
  51.6767597 108.4175396  36.4182830  52.2380400 108.8978958  35.8096361
  51.1383820 107.8589344  35.8576179  19.5649517  93.3635139  90.2121925
  19.8380542  94.1764164  89.7869301  20.2449512  93.1941319  90.8642197
  10.1002419  79.7540617  45.4253531   9.2330182  80.1230812  45.5926371
  10.4067302  80.2087307  44.6407700  31.2492204  74.6879244  83.0297089
  31.0097075  75.5694532  82.7437592  30.4274821  74.3036938  83.3352375
  35.7401419   3.2302798  63.6529446  35.0139049   3.8256014  63.4674692
  36.3813394   3.4134329  62.9662466   3.4808722  71.7265558  58.7109089
   3.0664480  72.5890779  58.6877298   2.7972054  71.1410141  59.0364408
   8.3906591  80.3403282  68.0821323   8.5239321  79.9381256  67.2238159
   8.0488455  81.2129211  67.8872728  14.2523272  10.2890586  28.0384783
  13.6531098  10.9591960  27.7097277  13.7979204   9.9096345  28.7906699
 110.6814575 102.8398895  95.0087547 111.2179553 103.6135864  94.8361111
 110.7330745 102.3276997  94.2017746  37.9572678 104.3257713  81.1009502
  38.7218928 103.9463997  81.5341377  38.1638598 104.2805004  80.1674080
  85.4741734  14.5202483  84.7901821  84.6079701  14.1492308  84.6220493
  85.5262584  15.2796114  84.2097664  18.9779675  80.9463787  85.8744812
  18.8241243  81.6552639  86.4990234  18.3394587  81.0982513  85.1777267
  28.6477995 108.7335968  70.2632332  28.1449795 108.8955688  69.4650030
  28.5047865 107.8062248  70.4523516  20.7782960  68.8623619  15.1144481
  21.5605974  68.6625004  14.6003568  20.9096289  69.7632647  15.4100132
  24.1574931  95.2945232  62.8891182  24.3820262  96.0313416  63.4573841
  24.7217822  94.5812607  63.1875420  33.8561034  90.7718372  58.0960655
  33.2922792  90.5074406  58.8229990  33.9030337  89.9974251  57.5354290
  20.0972724 103.3303070  68.9179850  20.6917191 103.8607979  69.4484949
  19.8134208 103.9171505  68.2170725  48.7505817  67.9018784  86.0449028
  48.5180235  67.0001316  85.8235359  47.9269266  68.2990789  86.3278484
  66.9415087   4.4428957  70.4631233  66.5675563   4.7037924  69.6215057
  66.4252681   3.6819495  70.7290220  42.8604317 101.2871552  23.5158825
  43.5904455 100.7008362  23.3170176  42.2478008 100.7463360  24.0143156
  93.8506162  61.5884828  29.3125395  93.4635711  60.7298803  29.4834952
  93.1034184  62.1527242  29.1136317  19.3373513  99.6809769  94.9838161
  19.6391881  99.1195583  94.2697239  18.6828208  99.1541576  95.4423904
  39.5603347  66.5611267  52.0016623  40.3526783  67.0959044  52.0510292
  39.1473913  66.8202877  51.1779261   6.1644274  78.1122351  72.0473289
   6.0230708  78.9934349  71.7013025   6.7031604  77.6786137  71.3855314
 104.8815000  14.0962791   4.5302348 104.9474204  14.1446637   5.4839377
 105.7032836  13.6908387   4.2536120 103.4322584  34.2330884   4.0244154
 102.9465235  34.3971776   3.2161097 102.7634967  33.9691686   4.6563487
 112.8512877  13.6201037  82.8967667 112.7600068  12.6727046  82.7950954
 113.3098239  13.9028204  82.1055317  40.6651020  79.9227285  70.7044744
  40.2899647  79.2286015  71.2464094  40.5164576  79.6310806  69.8049879
  62.2321004   2.5350798  69.6261501  61.8679398   3.4137953  69.7333479
  61.8118376   2.0163287  70.3120804   0.9826053   8.5429896  76.0315990
   0.9765208   8.8598956  76.9347954   1.1866439   7.6107729  76.1062288
  40.4489088  88.7207699  82.7242088  39.6686769  88.2172394  82.9564285
  40.9078169  88.1717682  82.0884132  80.4365987   3.2922114  64.3199015
  80.4248065   2.7074851  63.5621548  80.6828660   4.1446436  63.9608288
  45.9660435  80.3193855  72.8061104  45.9568214  80.3180981  71.8489552
  46.4854956  79.5506716  73.0416584  43.6554146  66.0343266  80.3488636
  43.3016825  65.8399105  81.2167931  43.8189888  65.1755476  79.9590206
 114.3181282  84.8566341  53.4650946 114.2792108  85.7314110  53.8517189
 113.8823416  84.2927361  54.1041136  86.8481130  21.8610610  60.8226442
  87.7545089  21.5536440  60.8357334  86.3326234  21.0980643  61.0840702
  24.3981957  99.5859337  54.5397043  23.8751030  98.8447571  54.8450947
  24.7035813 100.0101280  55.3415966  36.4808536  79.3505478  64.9261284
  36.3857865  80.0296593  65.5939674  36.9988155  78.6671638  65.3514910
  53.4106159 105.6116390  52.1276426  54.3481588 105.5920982  52.3196316
  52.9965496 105.7846451  52.9731321  10.3074884  69.1899061  82.8424549
  10.3879035  68.5115862  82.1718979  10.5874777  68.7614679  83.6513329
  15.3437829  93.0057526  62.9263496  15.4771340  92.6696873  62.0400572
  16.2055111  92.9432869  63.3383656  37.8505516 106.2076283  83.1305313
  38.7753582 106.4499664  83.1777954  37.7387094 105.8610725  82.2453022
  40.7787323  94.4484425  46.4270639  40.6355286  95.1374722  47.0758867
  41.4215422  94.8188591  45.8222294  66.6999906   4.5577754  65.1741648
  67.2705573   5.1264323  65.6911993  66.5683407   5.0327624  64.3536234
   7.4330193 103.0906487  65.4367828   7.1065217 102.6833248  66.2391043
   6.7226863 103.6668110  65.1544762  42.2918463  95.9062290  60.7492495
  41.5871572  95.7387352  61.3750219  42.1667385  95.2478504  60.0657845
  70.2164573   3.7909926  86.0239697  70.9787959   3.9589346  86.5779209
  69.9240130   2.9156531  86.2779427  45.2618599  94.4552135  82.7631187
  44.9671650  94.5515442  81.8575287  45.0133562  95.2778816  83.1846619
  15.0541050  49.2703962   1.7670779  14.1131193  49.1933393   1.9246821
  15.1198513  49.6564054   0.8936362  40.4511166 106.6394424  53.4726191
  40.8169365 106.1037064  52.7687740  40.7484770 106.2139034  54.2768049
  39.7464061  92.6407528  56.7616081  40.5467081  93.1533813  56.8754530
  39.5043945  92.7748489  55.8452654  26.7295074  76.7454004  91.2372208
  26.2481618  77.4710178  90.8397102  27.6008558  77.1020317  91.4098358
  19.8736525  77.7319574  25.1264787  19.5636976  77.0467901  24.5342755
  19.0848517  78.2210588  25.3605819  91.2497616 108.0650902  72.2528172
  90.7853508 108.1707096  73.0831146  90.7131004 108.5375690  71.6164255
  70.9223241   6.7172278  40.2603960  71.7788142   6.3972796  40.5437517
  70.9445661   7.6563109  40.4444122  94.9310416   8.4354819  80.0931358
  94.6715421   8.6097945  80.9978580  94.6839923   7.5226916  79.9447441
 106.1123979  24.7234773  16.7156844 106.2010587  24.4218826  17.6197867
 106.9984591  24.9810266  16.4611296  90.1305646  25.5359877  67.7366161
  90.7385367  26.1544455  67.3315001  89.5212144  25.3050364  67.0354891
  46.8446309  16.2287844  71.8238449  46.3600183  16.0860671  72.6368713
  47.7592868  16.0741461  72.0599031  50.4370023   0.9944999  29.7193770
  50.1232434   1.8609894  29.9781851  50.0620175   0.4000366  30.3691725
  78.6426705   9.5636214  52.8472805  78.7507457   8.6311282  53.0344057
  78.9634341   9.6668662  51.9513559  75.5891460  21.5704192  66.6894531
  74.6527594  21.5060652  66.5016508  75.9584016  22.0044554  65.9203672
  87.8138083  35.2422656  35.4669595  87.8104371  35.7192267  34.6370602
  86.9085854  35.2901209  35.7743883 106.3649100   0.5338419  66.7920732
 107.1384114   0.0186957  66.5628433 106.6110343   1.4371336  66.5927649
  39.9068379 109.5187092  58.1033802  39.8451519 108.8316250  58.7669563
  40.7253599 109.9726105  58.3039570  86.0436505  20.7992495  57.8015709
  86.8248481  21.3480509  57.8707027  85.8617705  20.7586802  56.8626833
  77.6649612  35.4064787  86.7057991  78.2824630  36.1090315  86.5024757
  77.2364086  35.6904925  87.5132084  19.6969158  46.7615175   0.5734972
  19.3684275  45.8819818   0.7598834  20.2593834  46.9701719   1.3193659
  61.9893044  16.4535655  59.7989607  61.1794633  16.5075148  59.2915392
  61.9385427  17.1886576  60.4099417  82.9930657  10.0569094  73.4555006
  82.3850268   9.9024237  74.1784477  83.7907809   9.5932330  73.7102175
  54.0954638 104.8690033  94.1830730  54.5447826 105.6294250  93.8141632
  54.7468567 104.1682529  94.1534710   3.9320245  91.8818378  64.0407085
   3.1897086  91.6677284  63.4755898   4.5175463  92.3942089  63.4831572
 112.2673524  25.3521585   1.2762980 113.0924833  25.5119466   1.7344050
 112.3448527  25.8501863   0.4625468  95.3833836   7.6954878  94.5001316
  95.4741019   8.4595335  95.0695419  96.2319297   7.2556532  94.5524979
  66.8412066 100.2148151  36.3523459  66.0903311  99.6318054  36.2404680
  67.5972319  99.6813965  36.1071515  58.1785154 107.2303295  87.7142334
  58.4750128 108.0353451  87.2896576  57.4955273 107.5168800  88.3205700
  15.0202400  82.1559381  10.0348620  14.5275528  82.5186776   9.2987113
  15.2319700  82.9147863  10.5785040  15.7592642  95.6959629  74.6715355
  15.5368757  94.9089622  74.1741419  15.0583398  95.7765102  75.3184128
  57.7999878  70.1350737  75.6567860  57.9374838  70.2224350  74.7135496
  57.3018742  70.9155846  75.8995199  23.2609034 108.6829376  62.4690676
  22.4470520 109.1851807  62.4286509  23.9155722 109.2550945  62.0687199
  37.2619200 101.8333530  60.9258127  37.9666996 102.2706890  61.4035749
  37.0664668 101.0546875  61.4470673  90.1055306   4.9448527  61.1891031
  90.9036273   4.6202887  60.7720423  90.2562350   5.8840121  61.2963343
  26.3381624  65.2915192  70.5886793  26.7672253  64.4563484  70.7747793
  26.8311071  65.9332132  71.1000109  59.7491121 101.8703938  87.5841808
  60.5069685 102.4548531  87.5673199  59.4865847 101.7920971  86.6670227
  62.7998447  83.1691551   3.6746365  63.0678082  82.3746109   3.2129702
  63.2232094  83.1031322   4.5305786  13.9235675  69.7209454  70.4187298
  14.8587358  69.6857834  70.6198645  13.8706887  70.2384377  69.6152115
   3.6081699  56.3947964  58.8702154   3.9480966  55.7214499  58.2809067
   3.8973713  56.1198187  59.7402620 115.7065030  81.7511559  34.2294717
 115.4912324  82.6822758  34.2833042 115.4869781  81.5061474  33.3305740
  88.0110234  14.1858328  58.5765982  88.0041713  14.0597476  59.5254326
  87.0884007  14.2841567  58.3413744  34.0840554  98.2875633  31.2842155
  34.6844292  98.3699799  32.0251560  33.8693452  99.1900730  31.0483861
  85.8306122 107.2505665  63.3540630  86.6837788 107.6684475  63.4710884
  86.0236740 106.3132381  63.3345509  13.2315409  84.4457245  89.6047497
  14.1370487  84.4717216  89.9139595  13.3010769  84.5228291  88.6532021
  76.8010301  23.0341471  44.1308117  76.5617913  23.2809580  43.2374573
  77.3839349  23.7341918  44.4247389 113.8951838  49.5486211  13.9443163
 112.9705084  49.6011018  13.7025504 114.3104327  50.2616739  13.4591918
  73.8895840   2.2697390  71.2707710  74.6254176   2.7611865  71.6358232
  73.7350983   2.6701106  70.4151630   1.0910113  89.4424009  32.4372248
   1.2519962  88.6229848  32.9050593   1.3784678  90.1249074  33.0436663
  43.7906599  84.7024441  60.0312471  43.5920000  85.0694180  59.1697979
  44.7412348  84.7810364  60.1116467  50.0186396  99.9080944  80.9846306
  50.5508423  99.8049355  80.1957321  49.5237494  99.0912342  81.0481930
  49.5438004  97.4518108  79.7465372  50.2794790  97.0870209  79.2546749
  48.8600731  96.7847824  79.6847010  33.3545065 108.0527592  72.0892906
  34.1890359 108.5156345  72.0148993  32.9890227 108.0742645  71.2048721
   0.5300534  12.1552409  95.4174042   0.3095735  11.3342608  94.9773979
   1.4273322  12.0283164  95.7256413  14.5529246 106.0985088  57.4451160
  15.3950059 106.2380219  57.8783226  14.0129340 106.8365383  57.7278709
  16.6491997  88.0599213  89.2742729  16.6922581  89.0137959  89.3413162
  17.5308931  87.7638721  89.5005512  97.2192687  17.9521979  92.4596500
  97.7152461  18.7506999  92.2789860  97.8873605  17.2774542  92.5805092
  52.3589611  96.2676239  61.5465260  52.2865963  97.1598434  61.2074900
  51.5073776  96.0940266  61.9476509  51.0290259   1.8225707  73.3134079
  50.8756918   1.6503180  72.3844051  51.6080445   1.1146296  73.5958815
   3.3739835  83.6628342  46.3770580   2.9499000  83.6603260  45.5189323
   4.2761031  83.9278126  46.1976194  24.0860677  74.5342112  54.5374680
  24.0075564  73.5991049  54.7262621  24.9569726  74.7706890  54.8565865
  80.6992245 107.2967052  35.1087737  81.2961292 107.9064465  34.6750116
  80.9635162 107.3162937  36.0285544   8.2878631  94.1907120  80.1377583
   8.9580745  93.5332108  79.9513769   7.7682692  94.2372608  79.3352127
  84.9211186   6.0232390  82.1918964  84.1394776   5.4718531  82.2270393
  84.9719972   6.4222563  83.0604839  89.4054765   7.9556216  76.0421085
  89.4059819   7.6581324  76.9519043  88.6337346   8.5178030  75.9743643
  84.1207236   7.6617564  52.5757790  83.8607377   7.2401942  51.7566776
  83.5161895   8.3980597  52.6686001  26.0731459  89.5015335  73.6678123
  26.4579749  90.3295326  73.9551353  25.9491301  89.6095085  72.7248430
  82.1797437  22.6724566  41.3144970  81.2359160  22.8225268  41.2606812
  82.4932546  23.3366049  41.9283724  75.3599405  97.1961117  85.4584122
  74.5434952  97.1844006  85.9579277  75.0860167  97.0776081  84.5489311
  39.5457554  96.7466736  36.8804598  40.0261307  96.2236309  37.5222564
  39.1026688  96.1016464  36.3292265 104.6672094  47.2579908   1.2367396
 103.9443958  47.5641965   0.6890158 105.1886952  48.0426549   1.4057974
   9.6328759  71.5337133  47.7456808  10.2597296  72.2544050  47.6833010
  10.0604665  70.8928537  48.3137465  76.9021177 105.6412601  78.1126118
  76.1133194 105.6773376  78.6536551  77.6213646 105.5820465  78.7414312
  56.3886023  75.8374596  82.1838188  55.9812593  76.3669252  82.8693581
  55.6910658  75.2536058  81.8858433   6.2326235  94.0745163  82.4349880
   5.5761015  94.7056961  82.1403313   7.0225430  94.3045330  81.9457531
  41.3880777  95.1763058  79.5701456  40.6749678  94.9975109  80.1831245
  41.0287809  95.8281326  78.9682722 107.6657313   2.8456152  42.9285860
 108.0984229   1.9933356  42.8772402 107.2049874   2.8301562  43.7674618
  47.3290777  93.7946701  41.8952894  47.6144361  93.7232685  42.8061724
  48.0538225  93.4292412  41.3879061  43.1753016 100.6392956  80.5277824
  42.3589611 100.4532528  80.9916878  43.6379671  99.8014927  80.5117512
  44.8178434  82.0057011  59.7730350  45.3685999  82.4746418  59.1461468
  44.0038252  82.5085831  59.7997713  10.8999753 107.1534348  44.5846367
  10.3469849 106.4951992  44.1637325  10.8162081 107.9278469  44.0283108
  47.4518919 100.2412033  60.6887197  47.3985434 101.1420822  61.0077953
  46.5607929 100.0335312  60.4075575 113.4738529  36.6183137   2.7570490
 112.8518498  37.3421239   2.6832633 113.1705773  36.1181974   3.5147719
  37.3774099  89.9162197  51.9555569  37.3164821  89.9722004  51.0019398
  37.2261357  90.8116245  52.2582006  13.6194336  77.9469109  75.6065655
  14.1699350  77.8861475  76.3872623  12.8872931  77.3561430  75.7831860
  96.8373269  18.2016886  65.9347916  97.6556271  18.5505332  66.2882423
  96.8430871  17.2777213  66.1847496  43.2105160  93.0008411  39.9258947
  43.0481243  92.6318169  39.0577459  42.3549795  92.9890442  40.3550243
  90.6463593  16.4919127  95.1392078  89.8481578  16.6314162  94.6296501
  90.3444928  16.4319552  96.0455799  44.5133686  91.4471436  83.4602165
  43.7439013  90.8843899  83.5466099  44.1554260  92.3159695  83.2779026
  81.6875076 102.0745723  65.6327343  80.7633444 102.2127013  65.8402777
  81.7336186 101.1647367  65.3389597  14.2774141  45.0885296  56.8803549
  14.7384214  44.3068314  56.5759706  13.3680272  44.8068047  56.9797421
   2.4933589  23.8809037  76.7386055   2.7677792  24.3571973  77.5222301
   3.1567177  24.0960836  76.0829496  50.2992058  63.7261343  26.4321160
  50.3608274  64.6511984  26.1940217  49.3649435  63.5783052  26.5788555
  22.4319577  19.1844761  61.4866972  21.4984465  18.9986944  61.3853502
  22.8545284  18.3276677  61.4271402  15.8161986  45.8069134  68.1262732
  16.0236025  45.2085209  68.8440084  16.5086961  45.6578779  67.4824810
 103.8251584  74.6683979  55.2818012 104.1924315  74.8759651  54.4225836
 102.9498428  75.0555229  55.2679920  38.1013823  16.9477558  93.3981419
  37.8423238  16.9385898  94.3195724  38.9863157  17.3126006  93.4017563
  55.5890131  57.1293402  65.7246304  56.3256502  57.5633001  66.1550665
  54.8130751  57.5114012  66.1347389  34.9809361  58.0287695  67.6804352
  34.9655962  57.4420452  66.9242954  34.0620613  58.1173992  67.9335022
  92.4145084  63.5731649  42.4944973  91.7368847  62.9164362  42.3339796
  92.1507865  63.9944220  43.3125591 107.0098918  96.2852478  61.9903612
 106.5232831  96.8863583  61.4263487 106.4150363  95.5472469  62.1235228
  18.8736308  65.4999685  71.2615108  19.3372083  65.3104162  70.4457951
  17.9991794  65.7714987  70.9825134  22.0501256  37.1469998  40.7594061
  22.1958303  37.9810095  41.2059832  22.6915503  36.5520716  41.1478186
  11.7023551   1.6799375  58.0753374  12.1100903   0.8273052  57.9236746
  11.3529098   1.6235229  58.9646864  93.0445224  46.1595726  45.1256657
  92.2890549  46.0784674  45.7078362  93.1257492  47.1002483  44.9683189
  29.6721244  31.3104510  42.0212698  29.7840905  30.8257627  41.2034845
  29.5592904  32.2204876  41.7467976 101.4230781  63.9570665  53.7142086
 101.1835712  63.8679457  54.6366644 100.7338744  63.4902668  53.2416296
  20.9472609  41.9149351  70.1434708  21.1272860  42.4425983  69.3654013
  20.6185722  42.5422049  70.7874680 112.3745527  38.7692428  70.1829338
 113.1389677  39.2529678  69.8700285 112.5474998  38.6236596  71.1130571
  15.3448808  73.1956911  13.6781192  15.8722973  72.4072933  13.5497034
  14.8519778  73.2895231  12.8629661  92.2901111  15.0453973  49.6568966
  92.0641261  14.2110956  50.0681210  93.1947451  14.9315345  49.3655157
   8.1825960  33.0545020  51.4412117   8.8196433  32.3721290  51.6528034
   8.4960103  33.4275985  50.6173182 105.2963203  47.8519201  58.3967781
 106.2020450  47.7289009  58.6809587 105.3576427  47.9804230  57.4502277
  10.8020258  30.9735584  50.7623911  10.8048940  31.9284034  50.6953239
  11.3196528  30.7869172  51.5456295  98.5922032  21.0775018  87.8200531
  98.8151687  20.5313516  88.5738659  98.7986654  21.9690204  88.1007671
  32.2886109  55.0555134  60.1867056  32.0549631  55.9416151  59.9101782
  31.5046000  54.7274971  60.6271219   6.2162900  33.4687805  47.4674368
   5.5509454  33.7220454  46.8275881   6.5554792  32.6346159  47.1428537
  91.7604023  32.0236325  26.3896370  92.1712261  31.4282823  25.7627273
  91.3838201  31.4479661  27.0552397   0.3668532  46.5522003  71.3138056
   0.4744127  47.4774313  71.0933256  -0.5343290  46.3493824  71.0628748
 101.9251877  60.0421524  81.3182449 102.3352235  60.2006245  80.4679585
 102.0409506  59.1039896  81.4688492   3.5091394  55.1974106  73.3433294
   2.8262076  55.8376074  73.5432816   4.2432937  55.7221556  73.0241251
 113.1561201  48.8996553  93.0840302 112.4131876  48.8673973  92.4813366
 113.7357658  48.1980228  92.7874565 110.4640036  74.2526865  50.0474262
 110.2666360  74.1804981  49.1135836 110.8490538  75.1236629  50.1442242
  77.1927267  59.4999790  49.1937685  77.7893429  60.0659180  48.7038803
  77.7345663  59.1243458  49.8877001  91.1498028  44.0907860  71.3234138
  91.0554867  43.1453466  71.4395142  92.0834189  44.2195892  71.1560822
  86.1924248  54.5098639  25.7718468  86.1721950  54.9362040  24.9150753
  85.2709585  54.3897152  26.0014057  24.5110506 106.7643462  15.4616122
  24.2201358 106.0368357  16.0114626  23.8093490 106.8752108  14.8200850
 112.8369480  40.0158024  29.6492386 113.0475157  39.6233392  28.8019705
 113.6882114  40.1873875  30.0519061  11.1341190  36.0730219  53.2470512
  10.2487791  35.8502817  53.5347891  11.0034060  36.6402483  52.4871826
 103.1823366  70.4331923  75.6358290 103.9082127  70.0386429  75.1524401
 102.8436988  71.1097097  75.0494099  21.4418197  17.9119384  84.3156910
  21.5720344  18.6345339  83.7015820  21.1939836  17.1702242  83.7637234
  92.3355078  85.1908099  74.6496534  91.7625820  85.5950414  73.9980507
  93.1538951  85.6833636  74.5874834   0.6613591  64.9878883  27.8304839
   0.1226878  65.6881666  28.1988263   1.4806913  65.0314522  28.3234644
 109.3785184  64.4485807  42.8962469 109.6757709  63.7183046  43.4389877
 108.7352508  64.9042225  43.4392262   7.4421340  60.3681707  54.3752861
   6.5658695  60.6232691  54.0866375   7.8074753  59.8854494  53.6338425
  18.6509228  41.7115259  79.7011614  18.1440318  41.3733912  78.9629459
  18.3644068  42.6202869  79.7922087 108.9564454  64.4075108  76.4744616
 108.3282417  64.9558544  76.9444704 108.4236329  63.9123106  75.8522701
   0.5993520  54.2727518  13.3454967   1.3567579  54.0597630  13.8906610
   0.5863533  55.2294302  13.3167827  24.3982053  42.3798418  34.8045945
  24.0278172  41.5196991  35.0025797  23.8007307  42.7547121  34.1575027
   5.8748329  40.4260397  84.0608215   5.4494011  39.6098709  83.7979317
   6.1327916  40.8380699  83.2362461 113.5885620  31.9877028  75.2376652
 113.6051622  31.0433412  75.0823164 114.3053364  32.3308468  74.7040749
  50.2492272 104.2759495  46.0014725  49.7499024 104.7319989  45.3240299
  49.6776234 104.2877852  46.7691708  20.8686614  51.2353849  22.5703621
  20.3950000  51.6237640  21.8348050  20.4727554  51.6319656  23.3463860
  16.6207755  40.2656698  35.0060248  17.1302021  39.4849324  34.7888470
  16.7956150  40.4149246  35.9352088  26.6367895  65.9046064  18.3760218
  26.2167281  65.2953790  17.7688746  26.8958825  65.3608738  19.1199641
   5.7167131  37.3431182  43.8789129   5.6395113  36.9931769  42.9913282
   6.6374773  37.5921607  43.9589357   3.3825940  20.2803802  47.5144958
   3.7904459  19.4427586  47.7342224   3.3566505  20.7588220  48.3431435
 112.1341243  67.8486586  62.8338194 112.7485755  68.5413504  63.0764341
 112.6506087  67.2475529  62.2970247  99.7594207  47.2454882  70.6162071
  99.6773391  48.0043983  70.0386715 100.4012113  46.6829443  70.1827478
   4.6907014  49.4349384  24.0873528   3.9557636  48.8251781  24.1528606
   4.7165933  49.6803570  23.1625104 103.6433023  43.4268999  65.5260992
 103.5599917  42.5014925  65.7561207 103.3669155  43.4720087  64.6107817
  16.4808095  39.0233350  38.9187121  16.6899037  39.9024296  38.6029553
  16.7222965  39.0377545  39.8448372  95.5790621  51.7862320  35.3176260
  95.8692532  50.8825207  35.1938176  96.0803347  52.2888565  34.6754980
   3.5712451  14.1651857  61.8184280   3.2923806  14.2262554  62.7320671
   3.8535497  15.0519454  61.5943909 105.3888660  58.8089800  65.6428003
 105.4831093  57.8975677  65.3659010 105.6317383  58.8043451  66.5686655
   8.7563646  24.9707389  54.7332621   9.6625644  24.9782157  55.0414467
   8.4198987  24.1150784  54.9994802 109.2531925  61.9452095  62.9641104
 108.6142331  61.2675047  62.7434778 110.0979024  61.4957857  62.9373837
 106.4529591  41.2701988  31.8982148 107.1623307  41.3579941  31.2615705
 106.8226605  41.6027451  32.7161169  37.5180626  36.1050987  33.2094073
  37.8559470  36.6987872  32.5388861  38.1425309  36.1786413  33.9311147
   5.1679784 110.4472351  77.5469875   4.2507678 110.2310306  77.7149725
   5.6363374 109.6228713  77.6784992 107.6334840  18.7182868  44.2575598
 107.4070751  18.6808562  45.1868439 108.5792297  18.8655603  44.2472029
  35.7988787  54.8787737  29.8247242  36.3142705  55.1414633  29.0620995
  36.2167048  55.3248644  30.5613756  15.7323086  30.9928155  85.0547123
  15.9869552  30.1309252  84.7252655  16.5582573  31.4678502  85.1462555
  53.7789679  65.1003408  92.1823502  54.6691656  64.7486496  92.1727085
  53.4945011  65.0072527  93.0915451  81.2287458  96.7185067  86.8606949
  81.3381805  95.9796905  86.2620163  80.2822571  96.8552314  86.9018936
  97.8489249  33.0806136  93.6297321  97.1726411  33.5426998  93.1344032
  98.6540275  33.2320929  93.1346607 113.6093297  51.7461538  56.4518356
 114.4337812  52.2020864  56.6210651 113.8200515  51.1190319  55.7600641
   0.3629462  50.8846378  57.3386240   0.5738249  50.3736925  56.5571499
  -0.4616592  50.5133057  57.6522636 106.9821441   2.3258447  13.4017043
 106.9062746   1.4016055  13.6389021 107.3962486   2.7349138  14.1615824
  64.0669548 107.5543042  71.7315102  63.7189173 106.6754221  71.5809488
  63.3640336 108.1412471  71.4528847 111.2271714  38.2141137  53.8773632
 110.9399640  37.4001122  54.2910671 111.3396221  38.8258576  54.6049309
  12.2734654  19.1205919  85.4232407  11.7135358  19.1967750  86.1958408
  11.6625762  19.0099740  84.6946716  18.4952629  30.0589609  58.3378553
  19.1754556  30.6249762  58.7028170  17.7038860  30.2918983  58.8233376
 116.4107460  37.5104666  53.0753374 115.6228163  37.8697276  53.4831762
 117.1339981  37.9098010  53.5587358  17.9965174  37.7548313  60.1293325
  18.5914898  37.1025848  59.7594500  17.7316022  37.3866630  60.9722471
 111.8593674  42.0639133  84.6048641 111.2366157  42.7898169  84.5664501
 111.3190901  41.2795353  84.5095539   6.2016153  25.4451036  35.6899714
   6.7638838  25.1043558  36.3856554   5.3121400  25.2437425  35.9806919
  13.8018310  21.1527562  78.2143688  12.9953825  21.5328026  77.8658867
  13.6963212  21.1970234  79.1647053   1.0683995  29.2486978  54.7025251
   1.1223031  28.3705783  55.0796652   0.4021606  29.1753864  54.0191650
 110.6157004  30.6204224  56.0793543 110.8285987  30.6208658  55.1461315
 109.8680120  31.2133074  56.1547279  12.7023506  44.1017294  71.3042831
  12.0968652  44.2811632  72.0236015  13.5478520  43.9644623  71.7315054
   4.8896843  18.4236503  45.0762415   4.2091146  19.0967190  45.0821829
   4.9024254  18.0880010  45.9725714 116.3683515  37.4188042  58.1341219
 116.7131138  38.1276393  57.5910521 115.5463483  37.7629161  58.4835863
 111.4680314  95.8029233   3.8467173 112.1887135  96.3034688   4.2292170
 111.3596987  96.1709939   2.9697852  93.8797241  19.2496622  49.6987724
  93.9615517  20.0590444  50.2031946  92.9993993  18.9311063  49.8982286
  39.0353441  10.0256765  67.1709156  38.6129045   9.1869509  67.3561621
  38.3388233  10.5681372  66.8010139 114.9572028  55.0823784  70.5473280
 115.6442512  54.7130823  69.9925184 115.3047962  55.0139236  71.4365578
  40.0428852  80.4281412  10.3021006  40.4367000  79.5757161  10.1163344
  40.6950605  80.8820830  10.8358054  28.6987782  84.9055862  34.9607587
  28.7204194  85.7273197  34.4703317  29.5837069  84.5512772  34.8736167
   0.8417690   6.9273520  52.0898485   1.4102535   7.5003517  52.6043653
   0.1592899   6.6539550  52.7027988   0.6600679  49.6318865  54.0110779
  -0.1020020  49.0918732  53.8016272   0.3430672  50.5321121  53.9380503
  99.8270541  41.7659044  59.7823381  99.9369257  42.7160263  59.8201275
 100.6099933  41.4520645  59.3298531   3.3988976  62.4553967  31.3760400
   2.5416419  62.8716516  31.4659071   3.2112953  61.6032219  30.9825492
  13.7213087  49.7505569  53.6882114  14.2531800  49.4005346  54.4029379
  13.3936310  48.9756155  53.2317829  86.4611941  45.2338982  71.2643099
  86.6802531  46.0534430  70.8209229  85.5161124  45.2842712  71.4075565
  15.5602682   9.0139836  64.0448856  16.2700152   8.5483795  64.4872665
  14.9774921   8.3216590  63.7329674 106.7537611  42.3553944  65.4426622
 105.9031671  41.9864273  65.6805420 107.3779022  41.6513109  65.6185865
  19.1588652  68.5378075  71.2504625  19.7796261  68.7774181  70.5623674
  19.3693006  67.6270008  71.4563227  91.1635471   8.4459543   0.5793242
  90.3127933   8.0419874   0.7503752  91.1366654   9.2734765   1.0596518
  95.4965311  50.9230423  53.1808281  95.6827765  51.8390989  53.3867025
  95.8599573  50.4331017  53.9184666 108.9334857  46.9909096  75.1788807
 108.2639598  46.4007282  74.8329735 108.4424865  47.6445675  75.6767607
   7.9815096 106.3996601  12.3711276   7.8952044 105.5588627  12.8203952
   7.4304587 106.9983006  12.8753150  97.3901814  80.7853127  66.4632940
  97.6064938  81.4128494  65.7736254  98.2302826  80.3945637  66.7036629
 106.2225156  49.4692516  68.3547163 107.1703499  49.5040226  68.4836864
 105.8950573  50.2679539  68.7683296 115.1232773  35.9896803  45.5694151
 114.4616961  36.4712262  45.0727701 115.8376348  36.6159248  45.6866455
 116.8337580  73.8800669  84.5578003 117.1494131  74.1673660  83.7010384
 116.1771284  74.5322561  84.8021698  27.5920510  44.0509081  42.6958275
  27.1914768  44.8252630  42.3006725  26.9608402  43.7653732  43.3563375
  21.4195347  70.7317543  32.6204276  20.7601500  70.4036903  33.2318354
  21.0131645  70.6410551  31.7585301 104.6503025  41.9061756  55.4036760
 104.4938451  41.7806959  54.4677210 104.0398007  41.3055563  55.8311987
  20.4379177  83.4862137  48.8181400  20.7269859  84.2511654  48.3206177
  20.9250212  83.5373211  49.6405411  95.8415640  21.5818023  24.9061541
  95.7470644  21.7023992  25.8510069  96.7872227  21.5436076  24.7629694
  13.5837293  52.2956896  40.0993061  12.7792203  51.8042517  39.9335194
  14.2787468  51.6389275  40.0563049  18.8651371  44.0448046  77.2298765
  18.4375846  44.0197372  76.3738346  18.1543386  44.2159843  77.8476906
  37.4962306  65.6831980  73.3220434  37.8389120  64.8016882  73.4694862
  37.3090196  65.7135677  72.3838186  31.9210672  41.4912462  47.6026011
  31.2382674  40.8617783  47.8345203  32.5810385  40.9708071  47.1445465
 116.0813088  48.7796354  90.6569958 115.8413128  48.8269901  89.7315884
 115.4250463  48.2010603  91.0453224 113.1924653  55.3847075  38.4903574
 112.7634426  56.2223673  38.6650038 114.1162535  55.6079388  38.3762717
   8.1491256  59.9867392  63.0358076   7.3382366  59.7238255  62.6004171
   8.8321090  59.8334646  62.3829126 112.6159301  74.3202400  87.3426437
 112.3323801  74.1966534  88.2484913 111.8081992  74.4988585  86.8610859
  18.6317253  51.4506245  48.1390572  18.9174032  51.8472242  47.3160553
  17.7720737  51.8372917  48.3055544  22.8768963  94.9230848   9.0045981
  22.2683782  95.6607447   9.0469889  23.7082869  95.2801858   9.3168501
  35.5026031  56.3294792  76.7789125  35.9029579  57.1827888  76.9456625
  35.8559847  55.7612562  77.4633646 108.8114249  59.4854736  83.3399963
 108.8740557  59.4891882  84.2951393 108.1321269  60.1301336  83.1420040
  43.2789755  50.7547379  80.6333828  43.4701681  49.9295187  80.1876450
  42.8723764  50.4922676  81.4592361  37.4269295  62.4182558  84.0363884
  37.6262140  62.7401638  83.1572437  37.1001601  61.5293264  83.8976002
  24.8193693  97.5623989  49.4394159  24.3669820  97.4563885  50.2762794
  24.9202085  98.5090542  49.3398857  20.3833413  26.5099359  53.7222290
  20.9032035  27.2885871  53.9214277  20.1068926  26.1812329  54.5776606
  49.0001375  97.6783143   2.7756075  48.6820036  98.4875928   3.1757121
  49.9010223  97.8758250   2.5194220  49.1855115 103.9130507  17.6771693
  48.4920091 103.4389840  18.1360297  48.7637919 104.7151051  17.3687987
  28.2488418  20.9999681  69.4375038  28.2016039  21.8477583  69.8793745
  28.9948153  21.0808706  68.8431883  12.8181863  45.0760794  60.3682566
  13.7226665  44.8499393  60.1514435  12.8915274  45.8564663  60.9176683
 110.5487221  37.1235371  22.7583075 110.3362399  36.7209840  21.9162679
 110.1557522  36.5409684  23.4082460 113.5673013  60.6854391  52.1646690
 114.2543789  61.3248014  52.3527527 112.9054915  60.8397579  52.8387833
 113.6903029  47.8976870  88.7113380 113.7229171  46.9410563  88.7066650
 113.4866014  48.1348181  87.8066254   3.9788327  33.4975982  43.8113642
   3.9844862  33.2382751  44.7327518   4.4478622  32.7946424  43.3618164
  10.1555705  70.9784889  54.6404457  10.0075901  71.8634939  54.3071413
  10.2162635  70.4339838  53.8555479   1.8408868  64.0327740  61.1057663
   1.3795033  63.4534931  60.4993057   2.5026268  63.4743261  61.5137720
  78.2848794  27.3743104   3.8061480  78.2030380  28.0393552   3.1225829
  77.5126129  26.8198823   3.6945872  34.2638683 101.3467121  83.8663006
  34.4311738 100.4848194  83.4850121  35.0651908 101.8425846  83.6983013
   9.3026483  58.0255127  72.2575426   9.0187258  57.1848440  72.6165628
   9.9117267  58.3711815  72.9100561 110.7366859  90.1313496  53.6628819
 110.2092093  90.6719589  53.0748844 111.3109642  90.7534027  54.1095257
   9.6440214  53.3058691  66.1713934  10.3211021  53.9816523  66.1380482
   8.9318621  53.7048149  66.6712999 101.2055939  91.0420513  53.4764338
 101.7015904  90.7735729  52.7030373 100.4919713  90.4068661  53.5356998
   7.4636632  49.9324322  83.2993793   7.4848622  50.1862097  82.3766804
   7.5573558  50.7568073  83.7767315 109.5499223  85.2826118  81.0192776
 110.0878870  84.8021412  81.6485405 109.8458045  84.9709034  80.1639843
 109.0649163  62.6905203  50.7204676 108.3703964  62.0451593  50.8522987
 108.8074022  63.4341955  51.2653255  79.4605117  24.1921663   2.0443873
  79.5934031  23.4012031   2.5668292  80.2880980  24.6678829   2.1152739
  11.6004503  72.4809122  75.3156614  11.2467420  72.9348803  74.5507860
  12.1909690  71.8216848  74.9510527  97.9668277  73.1811666  57.2026157
  97.1594101  73.6557722  57.0049858  97.9949289  73.1440258  58.1586790
  17.2340095  43.9517307  37.1231580  18.1694293  43.9853287  36.9229269
  17.0300281  44.8235989  37.4614930   7.2187597  47.2003031  58.1843233
   6.8715155  48.0895853  58.2538271   7.5049263  47.1253920  57.2739792
  57.4696005   0.4772043   5.6256060  58.3282638   0.0703763   5.7414679
  56.9664800   0.1965284   6.3900141  23.7698364  58.4001684  38.8473439
  24.4124866  59.0624809  38.5932398  23.6314678  58.5472488  39.7830009
  96.5207129  60.1067400  29.6386456  96.8214613  60.7012177  30.3259420
  95.5661112  60.1713085  29.6669436  69.0505546  94.6330033   7.9744677
  69.8918742  94.7528921   7.5339751  68.7066788  93.8149963   7.6155142
   4.3569729  31.2599587  42.0093679   4.5678526  30.9824204  42.9008436
   4.1642171  30.4458213  41.5443325  23.7567711  64.7540617  33.5991192
  23.6828470  65.5833292  33.1268001  23.8925838  64.0995073  32.9140329
  17.5923860  66.9475603  63.5633945  17.7867723  66.6756344  64.4603395
  18.4436285  67.1839571  63.1949806   4.6672320  26.1901021  72.2316408
   4.7033671  25.2809930  72.5290394   5.4043031  26.6150618  72.6702404
   8.7097561  90.0739861  58.8882160   8.9745790  90.8250523  59.4192505
   9.3266433  89.3822193  59.1272593 112.8213214  64.6858501  20.7839108
 112.7256870  65.6352520  20.7082653 112.0509344  64.3313932  20.3399539
  99.7234410  31.9061422  57.2924089  99.4191390  31.2975240  56.6191912
  99.8952776  31.3535380  58.0548573   3.4991300  21.9268727  49.9085331
   4.2509255  22.3872185  50.2815151   3.4347004  21.1200500  50.4195309
  18.1186974  44.2961836  73.7688684  18.8230479  43.9902973  73.1974173
  18.1873286  45.2505922  73.7437725  27.9748487  29.6035194  43.6672688
  28.7900066  29.9077296  44.0662766  27.9767990  29.9920583  42.7924728
  23.1612182  54.2998695  52.8353357  22.6749063  54.3248034  53.6594152
  23.4050298  53.3803892  52.7288342 105.5347329  33.8258433  37.0657635
 105.1064413  33.2827663  36.4040494 106.0006481  34.4936514  36.5625882
  26.9562006  18.6483729  68.4022522  26.5202212  18.3491862  69.2001486
  27.3522568  19.4852602  68.6451387   3.1574211  43.1878138  49.8847628
   3.4233144  42.2723532  49.7983694   2.6507303  43.3658504  49.0924215
  11.3862717  85.6831932  59.1960239  11.8265688  85.1830482  58.5088396
  11.0943162  85.0221348  59.8237133 110.2346688  71.1664391  65.9641647
 110.5892610  71.6619635  65.2259541 110.0475072  71.8287516  66.6294050
  12.2268200  84.1336250  94.2251396  12.2115195  85.0668335  94.0127563
  11.8639612  83.7055302  93.4497070 104.4114154  52.4666071  24.4529867
 104.8915868  53.1402397  23.9714408 104.0094906  52.9355383  25.1842833
  75.6764227  37.1363759  61.5505695  75.3922468  37.0664787  62.4619341
  75.6166368  38.0708504  61.3520384  74.0306907  39.2365432  57.1751738
  73.5996967  39.3871856  58.0164719  74.5852333  40.0064564  57.0488977
  19.3196559   8.0969357  55.4554844  19.2028356   8.2592762  54.5194101
  19.1323614   7.1643049  55.5620289   1.7054264  90.4532814  73.0382776
   1.1799257  90.0161648  73.7083530   1.7608565  89.8175144  72.3248625
  14.1195560  45.7182932  22.9582214  14.2656946  45.1184607  22.2267318
  14.6953142  46.4612865  22.7774024  19.7172141  18.9347708  86.4653111
  18.9450788  18.9455438  85.8996964  20.4398465  18.7083542  85.8798504
  42.8202388   3.4841956  57.8148699  43.6083350   4.0271605  57.7969742
  42.4801412   3.5261382  56.9211102 102.8828936  75.4878378  75.4098415
 103.2064539  75.8726454  74.5953083 103.2584804  74.6075296  75.4246187
  18.6782885  62.3537779  74.8576975  19.4373190  62.2295523  74.2878962
  18.6906767  63.2863140  75.0732422 116.4329530  73.9991999  10.7686543
 117.1270359  73.6070871  11.2984908 116.6528546  74.9302578  10.7369304
   7.7001107  70.8877707  50.9379292   7.2473973  70.5166531  50.1805973
   6.9987041  71.2292385  51.4926004  87.8616601  85.6408787  46.4491892
  87.1406036  85.0936699  46.7604399  88.6396270  85.2732182  46.8685007
  17.6373911  28.9387727  37.1566010  17.1747887  29.5219135  36.5547895
  17.9325044  28.2126737  36.6071272  97.8309720  60.9127665  69.2608023
  97.9128032  61.2412357  68.3654594  97.2963649  61.5684652  69.7085524
  43.1199741  65.4037714  60.1151848  42.7211475  66.2228489  60.4089212
  43.5006905  65.0250816  60.9075785 106.8444782  67.8772736  46.1875868
 106.2259560  68.5786915  45.9834576 106.3128334  67.0812893  46.1864901
  40.5384874  48.8340235  36.0489511  40.9033775  49.4980192  35.4639697
  41.3004160  48.3482695  36.3647580 105.9783011  65.1739979  52.3042059
 106.0061615  64.4554806  51.6723919 106.8485647  65.5696058  52.2555494
   8.3224243  57.8380442  67.8086996   7.5006229  57.4208593  68.0672073
   8.4645206  57.5491095  66.9072771 111.5950471  45.2389860  64.6197796
 111.6339403  44.4531441  65.1649141 112.1454519  45.0337124  63.8640356
   3.0730999  34.9981189  74.6109867   3.2725495  34.8674870  75.5380154
   3.8829607  35.3469467  74.2385912 107.8380173  32.5835800  55.1498747
 108.2110989  32.5135040  56.0285807 107.1360045  31.9330478  55.1351452
   8.3494675  46.3608265  44.5326328   7.8921527  46.5684795  43.7177896
   8.3855891  47.1922302  45.0055933   3.5105491  51.9279099  71.8854618
   4.4527441  51.9930649  72.0412016   3.3953902  51.0747671  71.4669943
  37.3285294  75.4295492  75.4304504  38.0911398  75.9679127  75.2187300
  37.4622107  75.1731873  76.3429403  33.8226032  87.1701431  92.7829266
  33.2302380  87.5139999  93.4515762  33.8047671  86.2218380  92.9119205
  97.6619821  57.5794649  28.9672732  97.2687739  58.3983660  29.2689729
  97.3827916  57.5015402  28.0550170   6.7357159  33.3283591  33.8023567
   7.6836878  33.4506464  33.8536072   6.6196096  32.6181746  33.1711769
  22.4509508  13.0326308  24.2984414  23.2710809  12.5821722  24.0966845
  22.7141148  13.9307726  24.4992495  17.0951843  39.8264217  31.8482304
  16.3513446  39.2570496  32.0450807  16.7424202  40.7136106  31.9166994
 113.0410660  27.2733735   6.9399027 113.5014141  27.1224832   7.7654604
 112.4138892  26.5527391   6.8802123 110.4858845  61.4986229  37.6131248
 110.8760738  61.5603399  38.4850049 109.5510703  61.6445971  37.7581954
   6.1045545  22.9296184  69.3035603   5.4106331  22.2807264  69.1867590
   6.7727768  22.4758768  69.8172045  92.7544933  63.5230684  70.9628677
  92.1471363  63.8418007  70.2952147  92.7965742  64.2308807  71.6058731
  44.3855840 102.1863328  13.6947970  43.6444408 102.7564059  13.8996272
  44.0936583 101.3119756  13.9526896 115.4903162  65.7196856  40.4555750
 116.4123297  65.9766054  40.4662991 115.4533605  64.9370146  41.0053825
 108.4815186  75.3676128  68.2464075 109.0965330  75.8468246  68.8016939
 107.8208839  76.0168362  68.0049515  66.1628008  54.5761299  19.3654668
  65.3697681  54.9246740  18.9582276  66.8405867  55.2198982  19.1595364
  47.7885294  56.4485741  45.8816433  46.9057655  56.8006420  45.7675791
  47.7418375  55.5633307  45.5205393   9.5687693  73.0299759  40.4603624
   9.7538805  72.5933075  39.6289253   8.7746358  72.6039839  40.7830238
  16.6545594  90.2877903  51.0142374  15.7918763  90.0110245  50.7053518
  17.2692060  89.8843098  50.4013395  62.7901090   3.8608932   8.5959105
  62.2299826   3.4873294   7.9155116  62.2532988   3.8367318   9.3880419
  17.6235735 107.9092121  43.5694504  16.9253969 108.0544472  44.2079544
  17.4258912 107.0534515  43.1888819  90.5282384  48.1448936  35.2588868
  90.3444796  47.5055504  35.9471488  90.1101165  47.7827168  34.4777131
  16.7232108  59.3344402  39.3186426  16.0570109  58.9767599  38.7317228
  16.9596243  60.1757956  38.9281726 104.2621177  85.0860119  86.0595798
 104.3042558  84.7300625  85.1720238 104.0477985  84.3326664  86.6098309
   5.6566131  40.6509113  60.6007528   5.1017326  40.2550316  61.2727737
   5.7166266  41.5725708  60.8520937 101.2174385  76.3907290  44.6248150
 101.4993137  77.1425962  45.1458502 101.6234308  76.5268564  43.7687349
   5.8517569  58.2583952  62.0541763   6.6151005  57.6956844  61.9241953
   5.5658555  58.4825468  61.1685991  92.3735862  80.7066345  90.2799702
  93.0543571  80.1167297  89.9562550  92.5946885  81.5578175  89.9020290
  92.1193481  29.1067266   2.5169234  91.3098681  28.8005113   2.1080164
  91.9059790  29.1769361   3.4473948   7.0925075  79.9281311  59.5230627
   7.1326876  80.0124741  60.4756927   6.9693136  78.9912271  59.3705511
   5.2433729  45.2438068  25.4217577   4.4010592  45.0003052  25.0377703
   5.7999414  45.4460001  24.6697068 110.7748818  74.1830873  70.7534599
 110.4651242  75.0247288  70.4189110 110.8089607  74.3005896  71.7028046
   8.4947044  54.3980694  54.6487999   8.9377332  53.5663891  54.8169041
   8.1887197  54.3279552  53.7445354 111.1338746  53.2579851  67.4065351
 111.4169281  52.4335337  67.8020096 111.8830049  53.8442659  67.5128794
  12.6154256  33.3793831  31.8987107  13.0421698  32.5225759  31.8965340
  13.1668544  33.9201689  32.4641395 101.9260209  80.7158279  79.1304922
 101.4617055  80.2191830  78.4567022 101.2750405  80.8521175  79.8188829
   1.9581984  66.3045359  78.5645342   1.7417772  67.0709181  78.0334520
   1.1163188  65.8775425  78.7231207  44.7825003  83.2790184  75.3539562
  43.8435936  83.1206512  75.2559185  45.1448870  82.4272633  75.5977154
  16.9479644  43.8694715  50.0013018  16.9602859  43.2492638  49.2723131
  17.7888727  44.3231535  49.9440241  15.6408000  56.1389256  51.7061090
  15.1827037  55.5462980  52.3020697  14.9847913  56.7944098  51.4689827
  24.1740561  66.9981527  55.2098703  23.4759164  66.9233561  54.5593023
  23.7302327  67.2945833  56.0044670  17.2002888  38.0033374  16.7367578
  17.2009790  37.1204734  16.3669193  17.4811542  38.5656500  16.0148489
 105.6176298  51.7142868  69.5692539 104.9701648  52.1714592  70.1059246
 106.1737459  52.4106073  69.2198181 103.6279410  76.1309958  78.0838776
 104.4756513  75.6887484  78.1290340 103.3186036  75.9655142  77.1932793
  26.6683722  44.6631956  59.8956299  26.1213899  44.0876627  60.4302406
  26.6275525  45.5111313  60.3378677  41.6190147  65.8650208  67.2581100
  41.3762283  66.3528967  68.0450487  41.0501337  66.2166214  66.5732861
  15.5098236  51.0582733  62.9948139  15.0770366  50.3342772  63.4473085
  15.9848356  51.5219879  63.6844254  15.0196755  53.9842796  58.0951452
  15.3312492  53.2514477  58.6262846  15.7697201  54.5764685  58.0405855
  21.9234490  63.5640430  43.0321360  21.1329436  63.8637781  43.4810162
  22.0187783  62.6499462  43.2996559 114.6512697  38.8756895  92.7839851
 115.5145749  38.7521315  93.1785393 114.0379652  38.7668490  93.5107899
 102.0309752  74.3439007   7.3333704 102.1215444  74.7428179   6.4679837
 101.9853872  73.4036207   7.1600819 104.5390063  57.2069168  62.7188492
 104.3346601  58.0196857  62.2563791 105.4545992  57.0314932  62.5017166
   1.2562558  66.3587523  41.9785357   0.8751402  67.2367954  41.9733572
   1.8753468  66.3620615  41.2485027  15.3493214  63.1986427  89.3301105
  15.9460425  63.3393764  88.5950279  14.6324337  63.8143873  89.1779327
 113.9547276  68.1678772  51.0103989 114.4775961  68.2956696  51.8019199
 113.0568861  68.3565140  51.2833977   1.0713449  46.6810942  65.8710861
   1.8107784  46.5062618  65.2889347   0.3530409  46.1628628  65.5081701
  56.4497870 102.3798238   7.2671465  55.7421285 101.7672311   7.0667033
  56.0448522 103.0364190   7.8338389  20.4693419   7.6031817  15.5323029
  20.8389002   6.9976462  14.8896599  21.2100643   8.1448496  15.8046174
   7.1886879  44.4954395  64.2497778   8.1443965  44.4548845  64.2845345
   6.9970244  45.3896666  63.9671898  14.7262156  69.6539211  90.5448437
  14.6995389  69.8616600  89.6108437  15.6317258  69.3883848  90.7053852
  41.6580057  74.3093109  72.6946497  40.8187485  74.3416214  72.2354841
  41.7424536  75.1721716  73.1003189  32.9007870  17.8964079  46.0862494
  33.3139491  18.6144484  45.6067371  31.9682574  18.1123103  46.0841799
  98.7810093  62.3274899  54.5971251  97.9349547  61.9062471  54.4455385
  98.5595065  63.1927538  54.9413443  21.7375350  48.5690928  88.1948185
  20.9938097  47.9907513  88.3640289  22.0809269  48.2768726  87.3504734
  27.7218747  46.9060421  78.6035538  26.8433332  46.5386105  78.7004566
  27.5744772  47.8045750  78.3083582  14.6998239  66.3555145  31.0988212
  14.7986352  65.9949589  31.9799972  14.4610250  65.6030416  30.5575299
 114.2831367  44.0397453  57.6403046 113.9249661  44.0923071  58.5264063
 115.2108009  43.8415337  57.7683020  35.2920681  88.0894552   0.5773501
  35.5616272  87.6364218   1.3763098  36.1138123  88.3230506   0.1456122
  74.0679068  66.1475454   0.7904486  73.3537215  65.5548988   0.5560450
  74.8309869  65.7963155   0.3315596   7.6835686  30.2056980  68.2588911
   8.2490444  30.0539517  67.5016308   6.9018656  30.6210566  67.8946781
   1.0120549  26.9460869  75.4927015   1.3746476  26.8985796  74.6081066
   1.1380886  26.0673571  75.8507252 115.6705285  80.1434040  68.7277174
 115.2174536  80.9774303  68.8515806 115.3072851  79.7919130  67.9148579
  55.5383116  66.7054199   8.3975462  55.7639557  66.0304259   9.0376238
  56.0677415  67.4617539   8.6503272  99.7878039  16.2084483  34.6153407
  99.2498505  16.6730880  33.9742903  99.5945108  16.6396856  35.4477458
  20.1679063  69.2569113  34.6574759  20.4367208  68.5455322  34.0761757
  20.6914878  69.1304541  35.4487443  45.5293608  62.1810007  60.2489233
  44.9134207  62.6679420  60.7964039  45.8917999  62.8374863  59.6540308
 106.3348287  69.3401384  55.1719856 105.6482320  69.9626446  54.9326086
 105.8657318  68.6091614  55.5742979  39.8137379  84.8217106  40.7144403
  39.9458528  84.5404720  39.8090792  39.1154742  84.2547607  41.0418892
 100.0830972 107.3516788  55.0216150  99.2364108 107.6621964  54.7007895
 100.1471197 106.4532380  54.6976757  31.7864895  46.0735512  18.4824204
  31.2761950  45.5273867  17.8844774  31.6091895  45.7094383  19.3497264
   7.0272291  54.1450071  67.2124529   6.5871775  54.9669504  67.4292231
   6.4892316  53.4692621  67.6249599  57.1836174  13.2757043  13.7603812
  56.7899359  12.8577184  12.9945330  56.5400255  13.9293527  14.0338187
  21.9126558  64.6692228  57.5301456  21.0588861  64.5178413  57.1246958
  22.5405765  64.2910910  56.9145536   7.4543750  60.8666277  35.5352879
   7.2844166  61.7803574  35.3062749   7.1037698  60.7724953  36.4209771
  21.3700151  60.9377575  74.1227102  21.6026020  61.1109352  73.2104921
  22.1497774  61.1849928  74.6197796  10.5798304  43.4147692  93.8885689
  11.2248850  42.7104425  93.8248348   9.9526030  43.1066370  94.5426846
  23.5507846  49.7307920  54.9921608  24.3840957  50.0118017  55.3701305
  23.1163502  49.2529440  55.6986761 111.2997984  31.0110950  53.1848049
 111.5303963  31.9256830  53.3478498 110.9363442  31.0099244  52.2992945
   0.5295033  31.0090208  24.2073464   0.7205996  31.2920499  25.1015544
   0.7433562  30.0760412  24.2005610   8.8070601  33.3136582  62.4682856
   9.5282370  33.6453128  61.9333649   8.3129418  34.0953445  62.7153587
  12.9029846  43.5179758  84.8254681  13.1053829  42.5827837  84.8515701
  12.3347139  43.6612606  85.5822849   3.4681544  97.3008919  90.8195019
   2.7038139  96.7364311  90.9352493   3.9782479  96.8750477  90.1305199
   1.3323319  25.7947803  28.6111641   0.6584792  25.5625701  29.2500973
   0.9495015  26.5151262  28.1103897   5.7073921  66.2191343  56.2488842
   6.1653477  65.9630871  57.0494795   5.4181397  67.1163464  56.4149237
  98.4349805  45.7101393  52.1409035  99.0965932  45.1874876  51.6877651
  98.1492382  45.1568222  52.8678322  19.6545196  33.9421701  42.0118856
  20.1989746  33.2016993  41.7444754  19.7471082  34.5765519  41.3010979
  26.4455390  61.1913681  61.3498211  26.6678953  61.3402367  60.4307842
  26.3499331  62.0695734  61.7183971   6.7979038  59.8401403  76.4703941
   6.7576897  59.6687889  77.4112749   7.3058212  59.1105223  76.1155605
  19.8806977  88.4572029  82.0348263  19.9418294  88.5874176  81.0884953
  20.7842183  88.3118534  82.3154545  94.9128466  86.8900394  32.6963019
  94.5067864  86.4645195  33.4514689  94.3213778  86.7006207  31.9679379
   1.8635045  57.7831030  61.5394211   1.8578576  56.9788265  61.0204411
   1.4931187  57.5259256  62.3837614  41.5523672  37.4945641  35.8981752
  42.4562836  37.6134562  36.1897779  41.0349703  38.0345201  36.4956522
  51.6033554  94.6488094  36.4315510  51.1086702  93.8569832  36.2205338
  51.2560606  94.9296951  37.2781467  35.6240404  10.5743312   0.5507903
  35.9930837  11.3934421   0.2204947  35.0433100  10.2741432  -0.1484056
  39.4440579  87.0444012  30.6640244  38.5552883  87.2615147  30.3826356
  39.4955635  86.0921669  30.5813622 106.5231066  27.3939800  59.1196823
 106.0637074  26.6414309  59.4923115 105.8965712  28.1144929  59.1871214
  32.2471023  46.8096161  86.4819145  32.5177956  46.8064308  87.4000359
  32.7525520  47.5193548  86.0856533 108.7783485  51.1807013  92.8778744
 107.8444218  51.2622881  92.6845932 108.8490658  51.3877487  93.8097382
  16.5688431  50.8568573  74.3917370  15.6730998  50.8070707  74.0579748
  16.7164898  51.7904091  74.5431232  93.4175115  75.7886696  82.8491783
  92.9643398  76.6134882  82.6744080  92.9369837  75.1382017  82.3371029
  88.9231158  19.8092937   1.2428050  88.6388088  18.9496803   1.5533976
  88.2418025  20.4102611   1.5442709  99.3618184  82.1919060  95.5758095
  98.8406246  82.6242065  94.8992634  99.7406905  81.4306164  95.1363564
 104.1732782  51.8905020  55.7847404 104.2288953  51.3320351  56.5601444
 104.9375647  52.4634218  55.8468866 113.3593791  89.8816299  73.7630463
 112.5697120  90.3979301  73.6014986 113.7360531  89.7418499  72.8942490
  38.8287950  73.9047241  68.4191132  39.5546150  73.5746670  67.8895092
  38.3217406  73.1244469  68.6433744  17.7120602  69.3136168  55.8811665
  17.5456560  69.6902895  55.0170708  17.8230846  68.3771801  55.7168961
  62.1701592  28.9697588  62.1700716  62.0023531  28.2323969  62.7568960
  61.3826698  29.5102156  62.2333002  27.0981550  63.9395094  62.1163225
  27.7830911  64.4754744  62.5161171  27.2680020  63.9961100  61.1760139
  40.5476427  57.0520210  64.8341370  39.7256851  56.6784811  64.5161963
  40.5209255  57.9658794  64.5506239  27.7083492  45.4313850  47.9455805
  28.4210181  44.9221325  47.5595808  26.9531798  45.2484798  47.3865652
  70.5882687  20.7683420   2.4186759  70.9655738  21.6472434   2.4561362
  70.1824260  20.7186078   1.5531973  12.9839182  65.9478378  85.2443027
  13.7849617  65.4266739  85.2985859  12.6739204  66.0054016  86.1480904
   5.4648751  85.8111477  70.8689499   5.9090376  86.3438892  70.2092981
   6.1572897  85.2657890  71.2422895  33.0591846  80.3314781  56.8463802
  33.4880161  80.9944344  57.3875141  33.5230660  79.5193434  57.0500660
  49.8264170  95.3840733  57.1842527  49.1992760  96.1063385  57.2197914
  50.2380753  95.4664326  56.3240290  25.1861715  97.1108246  56.1767817
  24.2474103  97.1311569  55.9909201  25.5974293  96.9942474  55.3203297
  40.5163574  69.8799753  71.6500044  39.8303413  69.2232466  71.7696667
  40.3448963  70.2504253  70.7842064  33.5412693  86.0230064  84.9637794
  32.9137969  85.3014755  84.9201775  33.7301636  86.1200809  85.8971214
  47.3507023  47.3992014  85.1336193  47.6530695  46.8619347  85.8658409
  47.7623034  48.2515812  85.2759743  26.0881448  38.6678457  44.8042488
  25.1464009  38.5034990  44.8526573  26.4697957  37.8148317  44.5970249
  37.4483299  65.5172443  70.4962301  36.5952349  65.7438469  70.1259470
  37.5981545  64.6139002  70.2173758  18.9280522  45.2057266  68.6283398
  19.0248156  45.8261299  69.3508148  18.0889606  44.7754955  68.7928438
  39.2108321  56.2928200  61.2711716  39.0449309  56.9154024  60.5632877
  40.1008701  56.4920282  61.5616512   0.9488982  84.9886799  92.0643711
   0.0359061  85.1201820  91.8086624   0.9811193  85.2554321  92.9830837
  16.2857509  66.6335535  70.4357290  16.6096401  66.9803476  69.6044254
  15.4456866  66.2306786  70.2161407  23.9541197  44.1707325  53.8233614
  23.6374974  44.4337940  54.6875238  23.6957598  43.2525778  53.7428999
  55.3872108  72.4663305  82.4348640  54.9475431  72.5037527  81.5854454
  55.0792456  73.2450771  82.8984833  18.6368454  43.8928413  61.4878702
  18.9360404  43.0035734  61.2983561  17.6842082  43.8181877  61.5439320
  40.8454943  59.7517204  64.4294930  41.2570095  59.9014330  63.5783339
  40.4595900  60.5965710  64.6608734 105.8239930  44.0831280  72.2830153
 106.6978448  44.0312767  71.8958139 105.6499129  45.0214863  72.3565817
 106.6455918 102.1498585  71.9897604 107.2821354 101.9290161  72.6696682
 106.1287265 101.3520813  71.8773413  39.1950250  74.5170450  71.3090086
  38.9583015  74.4129467  70.3874016  38.6658525  75.2555847  71.6102743
  42.3303175  57.6693535  57.9349232  42.8580332  57.8880692  58.7029839
  42.8778744  57.9166889  57.1897840  17.7275670  47.9542446  65.7656384
  18.0342555  47.9945803  66.6714811  17.4298048  47.0514679  65.6535578
  39.5926833  95.1327705  74.9929094  38.9071345  95.1985645  74.3281317
  40.3982067  95.3628731  74.5298576   0.4662115  16.8902158   1.7576746
   1.3410217  17.2754049   1.7069201   0.1041014  17.0015859   0.8786444
  29.8171782  57.1754503  46.3912964  30.4833031  57.7922106  46.6948032
  29.0231490  57.4299955  46.8613529  94.4849806  89.8110867  66.2864065
  93.6439710  90.1282024  66.6156149  94.3949061  88.8581753  66.2777901
  21.4226127  75.8405018  55.0568533  21.8735909  75.0049496  54.9355936
  22.0163965  76.3561773  55.6025028  25.8837008  72.1511459  68.1398439
  26.8040633  72.1321869  67.8775358  25.4367495  71.6156244  67.4843454
  14.4452477  67.8561068  57.3285389  13.8703191  68.3559799  56.7490482
  14.2032349  66.9426060  57.1762800  40.7791107   3.5705985  69.2875671
  41.2590945   4.2972029  68.8901901  39.8607921   3.8367690  69.2419529
  20.6285191  87.5998020  70.3567839  19.6747267  87.6077557  70.2764797
  20.8616138  86.6714287  70.3511810  17.9576457  61.9565868  68.1244993
  17.1102321  62.1968937  67.7498341  18.5989225  62.4071264  67.5749493
   5.9022260  23.0341363  51.0634851   5.9131813  22.4518514  51.8231297
   6.0669118  23.9044237  51.4264059  52.2299051  67.5889444  79.0427876
  52.9803371  67.0075321  79.1654253  51.5293646  67.1875143  79.5569134
  44.7420740 105.2047253  49.2887259  44.9678040 105.5198479  48.4135246
  44.4173908 105.9803200  49.7461843  29.3655634  91.0996628  74.7368240
  29.4908023  92.0272255  74.5364237  29.6292329  90.6441593  73.9373016
   7.7969080  70.3690863  70.0554419   7.3926288  70.3484344  70.9228277
   7.1958691  70.8905554  69.5234108   8.5031652  61.2123823  27.6760268
   8.9672351  61.4751196  28.4709096   7.6472908  60.9156847  27.9853511
  37.6012087  76.3671160  72.3313141  37.2746515  76.3348627  73.2305098
  36.8118572  76.3732290  71.7899036  17.6596880  40.5039263  28.2347798
  17.3603201  41.0530090  27.5101256  17.1859133  39.6798229  28.1224442
  12.7940083  63.0831671  80.1077461  11.8479300  63.2143021  80.0447178
  13.0242670  63.4134817  80.9761429  24.6334481  89.2541218  83.7934875
  24.2132664  89.5430851  84.6035290  24.3645573  89.9002838  83.1404877
  25.7546496  56.3824415  48.5583353  25.3642368  55.9944820  47.7752066
  25.1863432  56.0993338  49.2746544  13.5043931  97.2765732  45.0365305
  13.5709560  98.0972862  45.5246210  13.0608749  96.6765881  45.6361532
  66.0980701  80.7678509  32.4500942  66.8322992  80.3800964  32.9263139
  65.3684759  80.7376480  33.0689716   8.6014730  63.8948298  46.9656086
   7.6657152  63.7342119  47.0872259   9.0077722  63.5606003  47.7652597
 104.6020752  98.8065910  50.1474714 104.9394339  99.7023392  50.1545620
 105.0576239  98.3733654  50.8692932   7.3325425  63.9671612  60.2233982
   7.2300512  63.6598110  61.1241007   8.2480377  64.2407465  60.1663923
  29.6668363  63.6098814  17.1018827  29.0575099  64.2884541  17.3925662
  30.2065897  63.4272289  17.8709960  19.4014418  52.8925753  45.5774307
  18.4821594  52.9857492  45.3274965  19.8865366  53.3122778  44.8669672
  63.8467074   3.6862087   2.9049162  64.0824890   4.4180393   3.4750514
  63.0273831   3.9587449   2.4918036  45.4307604  58.1359005  74.2616940
  44.8250198  57.4538803  74.5517969  45.3013945  58.1840515  73.3144999
  41.6225815  78.3662128  64.0509748  41.6647005  77.9543114  63.1879568
  42.2826862  79.0586233  64.0183640  95.4113227  65.6847048  51.4778805
  95.7005792  66.5420914  51.1657238  95.8656436  65.0587320  50.9139824
  15.9215939  95.4025650  69.7473907  15.1879847  95.8529663  70.1659536
  16.6190732  96.0574436  69.7174454  25.5631685  69.1811848  60.3822994
  26.0470963  69.8495483  60.8674145  26.2186909  68.5160923  60.1721144
  18.9663565  30.1896477  61.7734051  19.6827114  30.8245087  61.7780256
  19.0159583  29.7663260  62.6304770  98.8280636  64.6194839  39.1438890
  99.2628854  64.6237612  39.9966168  99.4606441  65.0243187  38.5504365
   7.6963168  67.9088783  39.0805936   8.5493970  68.0530691  38.6710882
   7.2652352  67.2669554  38.5163808  13.8564086  63.9232731  63.5190010
  13.9985597  63.4797621  62.6827431  13.9164436  63.2267094  64.1727781
 112.4573847  84.6309185  22.4905157 112.8497791  83.7616444  22.5718951
 111.7685878  84.6459389  23.1550193   3.3466396  79.0558386  54.6947050
   2.7434108  79.2928123  55.3991127   3.6934793  78.2020426  54.9534893
  33.1117845  66.5613365  58.8794374  33.2282829  67.3581696  58.3620310
  32.8095269  65.9080935  58.2484484   8.0523872  70.7569981  60.1824808
   7.1747136  70.6492662  60.5489683   8.0430138  70.2341223  59.3807697
  29.6599197  98.1170654  61.1006832  29.1593766  97.3345757  60.8696127
  29.0010810  98.8061047  61.1866999  18.5277438  60.0378895  72.3232603
  19.3385851  59.7732782  71.8888092  18.2913244  60.8659601  71.9053650
  48.0588388  84.2933178  57.2859001  47.7459860  83.4630299  57.6450443
  48.9218855  84.4153500  57.6814795  67.9020119  57.0641518  93.5992908
  67.3539686  57.2479391  94.3622494  68.1938314  56.1613512  93.7258911
  30.1247382  82.1194553  58.0716324  29.1813946  82.2812366  58.0842781
  30.3783417  82.1089840  58.9945698  40.7801676  71.6245270  31.2450957
  40.9062529  71.0808897  32.0227814  41.5819311  71.5042591  30.7362342
  38.9455758  10.6238307  47.1039486  39.5927232  10.8090914  46.4234257
  39.2113926  11.1714018  47.8426838   8.6350083  77.2077560  29.5565796
   7.9247701  77.6631641  30.0086784   9.2952186  77.0614433  30.2340364
  72.0305342   0.4607428  55.9996653  71.4574665   0.2408923  56.7341661
  71.6986770  -0.0643884  55.2714252 112.8118988  68.4293795  46.7747068
 112.8940296  68.4792757  47.7270699 111.9682046  68.8398790  46.5852308
   0.4733182  42.7268457  93.3100700   1.1312818  42.4043512  92.6941872
   0.6366622  43.6684752  93.3637524  27.3793340  70.1929474  80.7319069
  27.4255562  71.0821342  80.3805637  27.0322990  69.6681309  80.0105381
  58.9925432  54.8677921  44.3517351  59.4569826  54.7888994  43.5184860
  59.5371723  54.3881226  44.9758577   7.4756974  81.9197655  52.2031975
   8.3109832  82.3600292  52.3603296   7.7129686  81.1104679  51.7504501
  29.0652370  86.3724709  66.4258099  29.8881626  86.8549347  66.3467264
  29.1924953  85.8048153  67.1859407  20.0692153  64.6201992  68.9523554
  20.6478500  65.3358316  68.6891413  20.5940175  63.8295126  68.8273239
  23.3474183  53.8050508  79.7294235  23.2999110  54.4409990  80.4432487
  22.4360371  53.5662508  79.5603418  47.1157312  76.9812202  47.3292017
  47.3404264  76.0681629  47.5082922  46.5169096  76.9387102  46.5836620
  30.8978629  91.2983418  54.8013115  30.5625176  92.1418095  54.4974422
  30.8068776  91.3334084  55.7535315  21.0505843  74.4715643  68.7746334
  20.2210021  74.3998384  69.2467356  21.4608097  75.2601624  69.1296816
  93.6294937   5.7045936   9.6087412  93.1220377   5.6154966  10.4154543
  93.7694192   4.8049783   9.3132166  20.6847024  91.6266632  56.8408012
  21.1303663  91.5790462  57.6865816  20.7806420  92.5399113  56.5706015
  41.8894958  84.0659428  30.2922559  41.7657280  84.4565964  29.4272065
  42.7469730  84.3817902  30.5772281  18.0481148  76.1113787  11.4876628
  18.2076740  76.7335939  10.7780039  17.7662921  76.6546202  12.2236621
  60.2884960  60.8878565  90.2178288  60.4458427  60.7944727  89.2782784
  59.8800516  61.7488480  90.3078651 104.0036052  62.5895071  68.6228800
 103.2111519  63.0967522  68.7988138 103.9070099  62.3014593  67.7151728
  49.8499584  56.8531942   9.5098901  49.9757195  57.8001928   9.5699304
  48.9343548  56.7491150   9.2509133   4.3463540  39.6169043  62.8477144
   3.8342401  39.7997928  63.6354494   4.4383428  38.6641884  62.8376770
  26.5018010  94.8740768  75.3310585  26.9389677  95.7015896  75.1302385
  26.9571280  94.5445156  76.1058474  48.9471674  56.9149637  73.4635305
  48.5245562  57.1320486  72.6325655  49.6259499  56.2821627  73.2288980
   6.5553570  93.3696461  63.3005953   7.4598992  93.4672070  63.5981083
   6.6311550  93.1451321  62.3731899   3.5005471  64.4524574  51.2646246
   2.8784725  64.4049215  50.5386782   2.9524222  64.5410490  52.0443296
  19.0540528  59.6135378  47.2009802  19.3431377  60.5162954  47.0679522
  18.5046721  59.6508837  47.9839325  50.0917322   6.7346800  79.0004826
  50.2765340   5.9037531  78.5627174  49.1780323   6.6620291  79.2763567
  47.3306561  69.0400267  49.6918535  47.7640581  68.6509800  50.4514837
  46.4447880  68.6778927  49.7100067  39.2232966  58.8352013  42.5488663
  39.4730377  59.7406483  42.3643970  38.7941122  58.8745022  43.4035540
  14.4653010  68.4401846  48.4852362  14.1379404  68.1437111  47.6360226
  13.8765419  69.1529608  48.7333202  55.9051132  80.5049229  41.4344692
  55.5242777  79.8204803  40.8842564  56.0629988  80.0759506  42.2754765
  30.6358409  99.7770691  52.6599169  31.4799428 100.1648521  52.4289560
  30.4465270  99.1712189  51.9434452  20.4132891  46.3903570  66.6097784
  19.7025728  45.8569241  66.9655418  20.3735709  47.2060537  67.1090698
  19.8997307  79.8336506  20.9673381  19.4078779  80.1137924  21.7392397
  20.8106494  80.0414944  21.1753321  22.7002978  52.4713230  56.0536051
  22.8083777  51.9815254  55.2383423  23.2502961  52.0085764  56.6857433
  97.6759261   1.7970313  53.2010365  97.5607842   1.0864581  53.8319540
  97.0867795   1.5749682  52.4800444 116.2406089  75.3216124  36.9698548
 115.6153596  74.7431087  37.4064636 115.8303052  75.5274439  36.1299038
 116.7323400  99.7752380  59.0340567 116.0746499 100.4126644  59.3121958
 117.5469890 100.0826263  59.4316673  16.2647319  87.1805477  37.3355412
  16.4202130  88.1240845  37.3779798  17.0128989  86.7938232  37.7904248
  56.0829210  68.5286999  46.7600346  55.4016352  68.9811039  46.2626219
  55.6783772  67.7020693  47.0231915   3.3071345  79.3540716  57.9173708
   3.9143497  80.0226116  57.6002359   2.7500269  79.8147678  58.5447645
  55.7352018  87.2406578  41.7725134  56.0505152  87.3211861  40.8723354
  55.8692169  86.3185596  41.9916439 103.0642050  77.8671455  46.5958118
 103.6294442  77.3518944  47.1713638 102.7502506  78.5837364  47.1473217
   6.7212427  90.2190971  56.9355488   7.0829386  89.7322845  56.1949921
   7.2413504  89.9337387  57.6867390  41.7509699  67.5904226  73.2020998
  42.5393438  67.7500248  73.7209702  41.4623260  68.4618092  72.9307938
  17.3861182  99.8003960  70.7904625  17.2572732  99.5088577  71.6930342
  18.0259871 100.5092049  70.8567524  13.7922525  70.1138735  81.3920784
  13.4273827  69.9486208  82.2614479  14.7378838  70.1581955  81.5336704
  53.5887087  42.6947831   9.1924147  53.8322008  42.9071569   8.2913928
  54.4240439  42.5871324   9.6472220  56.3562018   3.4299220  82.8502560
  56.3902933   3.3810366  83.8055992  56.9141716   2.7109755  82.5535774
  15.5489588  84.6726036  83.2428837  14.8765743  84.6949387  82.5619793
  15.5343866  85.5510521  83.6227894 106.5216428  52.9965448  57.1562719
 105.9305185  53.3273220  57.8325796 107.3926347  53.0580997  57.5484657
  11.1094201  85.2869129  67.9271793  11.2138140  84.9344826  67.0433664
  10.1654029  85.2647209  68.0839252 112.1519905  59.8187447  85.1647568
 111.8605399  60.0270939  84.2771244 112.6225417  60.6011677  85.4521942
  19.2306221  84.4864845  75.1916027  18.4772420  84.0034389  74.8520279
  19.1883266  84.3606758  76.1395550  99.7781914  49.8714399  69.3148327
  99.3645828  50.1203871  68.4882832 100.6585353  50.2437592  69.2638159
   9.1112220  52.6553535  44.2877626   9.2274475  51.8282366  43.8202095
   9.9968749  53.0079556  44.3744993  69.2379230  -0.0815355  13.5332000
  68.5233158  -0.1544630  14.1658533  69.6748179   0.7396639  13.7589741
  22.0551848  66.8854904  63.1835508  21.8600130  65.9488678  63.1539869
  22.8752804  66.9439030  63.6737204  22.9390264  78.0356216  47.3551178
  23.6857438  77.6150990  46.9287300  23.3286595  78.7163210  47.9038143
  23.2168198  47.1116638  70.3746176  22.8782988  47.6100206  71.1184454
  23.1190562  47.7012300  69.6268988  25.5538249  51.0615158  56.2807608
  26.1990571  51.6694689  55.9197950  26.0701966  50.3113556  56.5754604
 113.9219531  54.8385382  55.7516289 114.4201612  55.0164652  56.5493488
 113.1533792  55.4052353  55.8178377  26.3241839  39.4120407  55.9881783
  26.3702774  39.4846845  55.0348520  27.1995354  39.6553063  56.2895250
  93.5110391  20.7982778  18.1801943  92.8481150  21.3922738  18.5322337
  94.1760719  20.7476043  18.8667731  22.9273486  56.4176559  73.8626766
  23.8805795  56.3587761  73.9268351  22.7276182  57.3257160  74.0901947
  20.2337694  58.3374977  24.7581410  19.2782497  58.3043957  24.8041701
  20.4202151  59.0767622  24.1793871  46.2269258  86.9551373  51.0488224
  45.6908464  86.2972546  51.4915991  47.1020126  86.8397999  51.4191628
  90.9275592  16.5720557  10.2336077  91.6186917  15.9654521   9.9679045
  90.2596867  16.4870929   9.5531992  10.3489900  68.3194304  62.0296717
  11.1584175  67.9920483  62.4219465  10.6217599  68.6866188  61.1888409
  12.8835082  51.2954235  88.6944294  12.4459243  50.8973503  87.9419041
  13.8134849  51.2759638  88.4686089  39.2028499  84.0435886  44.9775887
  38.2562470  83.9318657  45.0653076  39.5373249  83.9630222  45.8708239
  35.1724410  77.8272200  63.0964279  35.6530142  78.5658550  63.4701920
  34.4717503  77.6545191  63.7252712  37.5726032 100.9911537  75.5624771
  37.7815986 100.6627750  74.6879959  37.0490670 100.2957439  75.9606600
  17.0084918  69.7441912  67.0166159  17.4521291  70.5500841  66.7521286
  16.6144753  69.4119024  66.2100410 116.5512601  73.7116671  95.3680229
 117.3797797  74.1899586  95.3360653 115.8799611  74.3935871  95.3441334
  82.0941076  31.7530679   1.0710005  83.0263132  31.6113710   0.9062342
  81.9041640  32.5972699   0.6617693 111.6938292  76.8236160  66.5501928
 111.1769598  76.0198879  66.6058493 111.0473030  77.5146818  66.4064550
  96.3020211  61.4840603  54.1696835  95.8417254  62.3230505  54.1910172
  95.8160048  60.9603596  53.5326910 116.5494032  68.3628941  82.6620388
 116.5385457  68.1330490  81.7329121 115.6662580  68.1587267  82.9696178
  22.0812297  66.0755014  67.9413891  22.5318193  66.1584330  67.1009541
  22.7624893  65.7929707  68.5515451 115.1932343  45.2825117  85.7779408
 115.3412586  44.5909834  85.1328659 115.3769740  46.0943174  85.3052330
  79.5782812  26.7806482   9.6777873  79.7599966  26.0399961   9.0993075
  80.2336756  27.4365663   9.4401793  17.3151290  83.1858921  39.3180585
  16.4571583  83.3652687  38.9334249  17.1860433  82.3871994  39.8295784
  64.9402106  14.4317054   6.5397982  65.0146509  15.0156450   5.7850031
  64.6847153  13.5883951   6.1659102  14.7998989  60.1610804  69.6524763
  15.2732086  59.4926929  70.1479197  14.0625739  59.6922350  69.2616177
  19.3839824  60.3149986  76.5169764  20.0107646  60.5793285  77.1904039
  19.2878377  61.0890770  75.9621859  31.8321633  59.7829676  69.8996353
  32.0117712  59.0618610  69.2963266  32.0384693  60.5717945  69.3982124
  31.6555381  69.2175531  73.2174206  31.6873574  70.1472044  73.4431839
  32.5725794  68.9437532  73.2001495   8.0034959  76.3363218  54.8009491
   7.5209802  77.0497704  55.2185631   8.9177221  76.6188335  54.8256397
  36.1223459  61.0753489  63.2322311  37.0003104  61.4505196  63.1640244
  35.7290101  61.2285471  62.3731327  13.0999351  38.7300992  89.1594028
  13.7512088  39.4067597  89.3443489  12.7509093  38.9624095  88.2989120
  47.0289898  54.1288900  44.3377638  46.2392330  54.2805815  43.8186264
  46.8504143  53.3180809  44.8141289  25.5146527  68.9185667  37.6198006
  24.8174071  68.6610365  37.0166755  26.1755919  69.3276262  37.0611739
  45.3285027  71.0582209  68.7016201  45.8084679  71.7984056  68.3301497
  45.5510330  71.0713673  69.6325016  22.3502612  65.4595232  39.4970274
  22.7632093  65.4036236  38.6352968  22.1973062  64.5487976  39.7488546
   7.1011329  73.9426756  83.1841564   7.8370166  73.3308840  83.2045174
   7.5036818  74.8050261  83.2868099   0.2734352  88.4941196  47.5422192
   0.6971566  88.1571579  48.3316135  -0.4188598  87.8607464  47.3530245
 116.8213626 104.1492462  83.8889313 116.3138585 104.0145397  83.0885983
 116.2929605 103.7468338  84.5781898 107.1819454  88.5753250  79.7173500
 106.5942817  89.2446041  80.0679874 107.5136989  88.9512539  78.9019680
  17.0231247  77.1561146  48.3744431  17.9330921  76.8592691  48.3830595
  16.6464174  76.7969704  49.1777706  18.5093486  54.1584206  63.4112263
  18.9916015  53.7715530  62.6804733  19.1817558  54.5831966  63.9438295
  38.1983209  72.2192526  47.9477406  38.6006999  71.7723513  48.6924553
  38.5915637  71.8057060  47.1792507  25.6350827 107.1642017  88.1832409
  25.0690842 107.3826599  88.9236164  26.2262201 107.9129314  88.1045723
  92.4933439  93.5489750  64.3836308  92.3297077  93.0492783  63.5837793
  93.3953529  93.8564110  64.2936563  66.7398024  85.6819439  14.4733989
  66.3740396  85.3839016  15.3062356  67.4217796  85.0422382  14.2686939
   7.0242262  45.6087160  29.1125345   6.1547780  45.8696365  28.8088679
   7.6154602  46.2591553  28.7335873  38.7711072  69.8815775  52.6650906
  38.5088658  68.9926577  52.4257517  37.9687691  70.3975296  52.5858259
  15.4365396  33.7806726  24.5942855  16.3894773  33.6904740  24.5915008
  15.1554525  33.3281922  25.3895736  16.5991616  56.7986202  74.8520517
  16.5984225  57.7540016  74.7930431  16.8374658  56.5045357  73.9728737
  16.3402665  62.2001553  79.0822315  15.7803655  61.4288139  78.9940310
  16.2384009  62.6662111  78.2523823 110.2509289  23.9197707  63.4673119
 110.8956450  24.6200800  63.5680056 109.4581902  24.3651986  63.1683302
  99.1420966  52.2562456  59.9889231 100.0104743  52.3531532  59.5980740
  99.2492777  52.5623226  60.8895111  17.7609289  76.3026714  44.9935150
  17.1093118  75.7138062  45.3741217  18.5520709  76.1506653  45.5104494
   7.5976920  32.7926159  91.8154335   7.1602118  32.0206523  91.4563847
   7.2664708  33.5213923  91.2906361 116.0306783  97.6886654  26.6744804
 115.7209227  96.7917728  26.5485168 116.2062382  97.7517891  27.6133227
 114.2986264  66.1279869  74.5345211 113.6001354  66.4303350  75.1149750
 114.7764731  65.4799318  75.0521326  26.6281962  68.9672232  45.9887218
  27.2768497  68.2720566  45.8781624  26.8602037  69.3812990  46.8199492
 104.4697529  73.5444355  51.7768431 105.0562685  73.1626129  51.1238146
 104.8279970  74.4170427  51.9394636  17.1457493  60.4719925  49.1316891
  16.3812780  59.9718714  49.4175100  16.7803156  61.2659836  48.7414742
  33.3389878  51.4002609  93.3587742  33.1896091  52.3252583  93.1630707
  32.4610376  51.0249805  93.4265900  28.1344843  67.6227951  70.6583357
  28.6445069  68.2415533  70.1356030  27.4032402  67.3764849  70.0919056
  72.5652760  17.4513663  94.3783665  72.6142663  17.3275221  93.4304810
  73.0253381  16.6952170  94.7428036  34.7702503  64.6969461  56.7660284
  35.7051206  64.5823193  56.5954161  34.5437717  65.5132294  56.3203621
   6.8622954  26.6845845   2.5608401   7.6668913  26.4481591   3.0223135
   7.1586258  26.9874715   1.7025427  11.8864882  49.0529585  26.8004060
  11.5301597  48.6126328  27.5720119  11.4265573  49.8918533  26.7696118
  24.9732876  53.9940596  36.3462925  25.6518841  54.5895290  36.6643405
  24.1656446  54.5059299  36.3903093   2.8860110 109.6850300  40.1137972
   2.5350189 110.0347042  39.2948008   2.7800220 108.7370300  40.0343895
  30.8689260  77.2593689  82.1505642  29.9868846  77.4340153  81.8223381
  31.3903236  78.0005312  81.8422604 113.9576277  57.9883099  68.3748722
 113.6745884  58.8383532  68.0378962 114.5555201  58.2016802  69.0912724
 110.3890264  71.3806438  87.5417519 110.3343492  72.1878862  87.0302773
 109.6081536  71.3944054  88.0951786  16.2640393  71.0359049  80.7732868
  16.6708732  70.6097984  80.0188637  16.8891561  70.9076262  81.4867306
 112.5944831  75.0305128  44.0410519 113.2906150  75.6382990  43.7915945
 112.0334315  74.9783278  43.2672739  17.0593441  97.2950459  58.1451273
  17.5674748  96.5744877  57.7725220  16.5637219  96.8943977  58.8593197
  75.3168506   8.4640635  81.0331249  76.0003799   8.4141577  80.3648949
  75.1603788   9.4016016  81.1461449 114.4269639  40.5135202  50.7922935
 114.7157184  39.7766376  50.2539110 113.5890445  40.7751513  50.4106283
   3.9528790  64.4016552  79.7648144   4.2992386  63.9978313  78.9690781
   3.8411081  65.3243637  79.5360136  47.6379585  91.3566399  46.8629313
  47.0280266  90.8277893  47.3772573  47.8981972  90.7864380  46.1394882
  51.0349941  98.6903954  50.5664110  50.6932449  97.9063988  50.9962749
  51.8389320  98.8943672  51.0442305  57.1887356   3.8519515  32.8656864
  56.7000622   3.9449824  32.0479012  57.1250338   2.9208125  33.0781746
  34.1891289  68.4280586  60.8149338  35.0078154  68.0533266  61.1398315
  33.7909508  67.7249956  60.3017235  25.8844376  41.6298342  76.0417271
  26.7019844  42.0744896  75.8178282  25.4782891  42.1928215  76.7007542
  24.8193526 108.4864616  41.0793591  24.3306303 108.2857037  41.8775272
  25.6250072 107.9754353  41.1568975  17.2224760 109.7760201  50.8979702
  16.7275274 108.9672756  51.0290813  18.0808365 109.4843769  50.5907393
  32.0205832 102.6174068  82.9652023  31.5628958 102.9561329  83.7346268
  32.7884269 102.1700668  83.3209133  13.2629037 102.6880074  46.4441347
  12.8921342 101.8945694  46.0578537  13.7736964 102.3748398  47.1906233
  33.0876231  55.2444124  57.6270342  32.9548025  55.0789595  58.5604239
  32.2521448  55.0126696  57.2214413  19.4726253  81.0306740  45.8673525
  19.6846211  80.1051998  45.9889555  20.2833343  81.4212322  45.5410957
  32.8018475  81.3332558  50.6827879  33.3180690  81.9138336  51.2419701
  32.2176766  81.9201946  50.2026987  23.6384749  94.1110420  77.6290751
  24.4280005  93.5747623  77.5563097  22.9170179  93.4858418  77.5594234
  76.1344451   2.1164359  89.8851967  75.6216592   1.5709437  89.2887783
  77.0427245   1.8634928  89.7200203  35.8831072  76.3503981  49.2498302
  36.7425084  75.9926701  49.0269089  35.7692790  77.0898724  48.6527967
   3.2579222  74.1959190  35.1999784   4.0246415  74.1560316  35.7716274
   2.8389218  75.0282097  35.4189873   6.3277435  85.5406284  22.8653693
   6.5720016  84.6483898  23.1113219   5.7709086  85.8429146  23.5828543
  22.6252151 108.7456512  57.1645832  21.9254971 108.0992699  57.0706892
  22.8141880 108.7594700  58.1028461  50.5413818 101.9718075  37.9101086
  49.9410534 102.3375893  37.2604632  50.0838661 102.0759296  38.7444186
  12.2125721  47.5106955  65.5125713  12.8817320  47.6351023  64.8395348
  11.3856363  47.6857758  65.0634003  32.0499992  81.2056541  54.5637846
  32.8712249  81.6143799  54.2903519  32.3113227  80.5567551  55.2171373
  42.3538589  54.8645449  49.1037846  41.4890242  54.9187756  48.6971474
  42.8851032  54.3786955  48.4729433   5.6072557  75.7721710  61.7939425
   4.8908746  76.3574457  61.5480185   5.3287977  74.9099398  61.4853096
  35.6788421  72.2612619  44.0396833  35.6457567  73.2091188  43.9104557
  36.4337349  72.1237612  44.6119308  57.3605728  56.2239408  41.3250589
  58.2373524  55.8962059  41.1248779  56.9096279  56.2327576  40.4807758
  98.5166282  26.0682715  35.7244372  97.6182670  26.0718001  35.3940344
  98.9458341  25.3604830  35.2437592  17.2580123  60.3846788  19.3953228
  17.3174894  60.8213663  18.5456169  16.6762245  60.9428453  19.9112701
  75.9318513   3.7545050  75.2908421  75.7736391   3.3184374  74.4535589
  75.1937932   3.4919108  75.8408833  34.9772167  76.8185663  60.3763628
  34.8644304  77.4390125  61.0964775  34.0904331  76.6676092  60.0491667
  35.4698348  69.7130871  58.7485886  35.2474070  69.8020792  59.6753216
  34.6251822  69.6252966  58.3069038  39.2713499 107.4673367  77.4529648
  39.5864534 108.3377075  77.2092438  38.3742547 107.6128483  77.7534342
  14.1553807  55.3086185  75.6507921  13.7326300  54.8327637  74.9358988
  14.8704576  55.7864380  75.2305746  44.6754551  84.6148586  68.8213825
  45.2829456  84.9465656  69.4825649  44.9058485  83.6906433  68.7266302
  45.2646255  75.0356627  73.5490942  45.4718828  74.8318148  72.6371050
  45.2138233  74.1822910  73.9796829  98.2824886  16.6678619   2.5278620
  99.1106904  16.2570524   2.7759509  98.5344613  17.5221013   2.1771292
  68.1507510  11.7680968  56.3132000  68.4532398  11.0572947  55.7479715
  67.4587029  12.1966303  55.8095551   8.7316233 104.9620819  53.0386496
   8.0017179 104.3456936  52.9791498   9.4998074 104.4484615  52.7890110
  41.3249063  94.7378254  64.4124556  41.4380312  94.2661095  65.2376366
  40.4829836  94.4318676  64.0751362  28.4216881  81.4856911  65.6130648
  27.8527045  81.4245701  66.3803673  28.3512115  82.3988247  65.3347588
 101.3590354   4.8404730  76.2618303 102.2250527   5.0756014  75.9287214
 101.3908166   5.0656260  77.1916294   0.7865290  93.6939430  61.6981697
   0.0107518  93.4627342  61.1873436   1.1735332  92.8525543  61.9400692
  18.4847784  50.4498959  42.5094318  18.8500643  49.7347689  41.9884777
  19.2309904  51.0226440  42.6865196  23.6019397  94.4567966  54.5462084
  23.1283426  95.0597954  53.9732075  23.0759144  94.4226837  55.3451872
  30.2131057   5.7180060  88.9794064  29.9665046   5.8077467  88.0588818
  29.8126191   4.8935832  89.2553806  51.7211866  91.9011593  85.3516102
  52.2745752  92.1685505  84.6177864  51.2272024  91.1519814  85.0185299
  86.7933113  39.2546605  33.1697421  86.4650452  39.0680646  34.0493159
  87.1241796  38.4137201  32.8541808  15.4448497 104.8027515  68.3264017
  14.5108390 104.6302605  68.4451675  15.8030593 104.8033810  69.2140484
  25.4460621  91.9821739  77.2812557  25.9635162  91.3738823  77.8089428
  25.0953150  91.4446640  76.5711212  40.6519127  93.1209850  77.5726891
  40.0053215  93.7474537  77.2475958  40.7894659  93.3711147  78.4863329
  98.6059207   1.9545687  37.8677845  99.5039958   1.6234148  37.8623843
  98.3195657   1.8851508  36.9570637  51.9312954  79.9917459  87.8962135
  51.4610529  80.5298615  87.2593975  52.4897528  80.6105709  88.3667564
  29.6622086  65.6233454  19.6275091  30.5814552  65.7717466  19.4057083
  29.6059084  64.6832895  19.7988415  74.1365165   5.4682291  73.5866308
  75.0514645   5.3603304  73.8463545  74.1779727   5.7318057  72.6673698
  37.5725722  80.2482128  84.2732239  38.5245800  80.3424072  84.3054867
  37.3595023  79.7072887  85.0336361  53.9467955  76.7719030  23.1485462
  54.8727417  77.0026541  23.0736446  53.7064219  76.4597559  22.2761846
  20.6903744  58.4470272  61.4121532  20.0880408  58.4631824  60.6684065
  20.7073712  57.5302076  61.6867256  34.7560525  70.4432249  42.3649502
  35.4029489  69.7685814  42.1585131  35.2358699  71.0816860  42.8925657
  87.7084226   5.6639613  59.9641991  88.4811324   5.4821623  60.4990768
  86.9965762   5.7605971  60.5967855  41.8696642  86.1088657  61.8524933
  41.5564966  85.7582664  62.6863050  42.6346684  85.5741978  61.6400480
  28.0103707  68.6877251  40.4631329  27.4713278  69.1606760  41.0971546
  27.3806405  68.2996464  39.8556280  56.8697977  95.8274937  43.3187866
  57.6864243  95.4412651  43.6353016  56.9406033  95.7891369  42.3649788
  39.9898219  65.9991121  44.0468931  40.6203556  66.6362000  44.3827057
  40.4216146  65.1523399  44.1598940  63.1919402   1.2967719  67.3749256
  62.7278894   1.6799201  68.1192970  64.0065926   1.7960776  67.3177910
  59.2797870   4.0569342  35.5786371  60.1939982   3.8024844  35.4533219
  59.0708608   4.5863188  34.8090100  33.4741402  52.7566957  73.4277964
  32.5877213  53.1177616  73.4389591  33.7699795  52.8759289  72.5253057
  53.0125284  89.2998981  49.0906048  52.1318483  88.9385891  48.9901495
  52.9306602  90.2116966  48.8110542  94.7845512 108.1907558  51.9122791
  94.7719722 107.3725891  51.4156103  95.3436881 108.7739563  51.3989878
  46.1180925  64.6390533  39.1434884  46.5087366  63.7795925  39.3014550
  45.3964806  64.4666529  38.5386872  23.1879306  48.7911320  38.3203745
  24.1160893  49.0018129  38.4221911  23.1023526  48.5219479  37.4058008
  30.7433009  76.3417006  47.2359037  31.1599231  76.7018318  48.0188274
  30.7525587  77.0627832  46.6064692 114.0594324 105.2224541  47.3222017
 113.4105855 105.4401875  46.6530037 114.7259524 104.7190094  46.8547344
  33.7896490  52.8036022  76.4090300  33.6148095  52.4499321  75.5369186
  33.4450769  53.6961269  76.3790417  45.4867601  92.0528412  57.3532772
  45.0093317  91.2308311  57.2410870  45.6144714  92.1285057  58.2988977
 104.6112842  13.0797423  69.7490406 104.9419898  12.8148592  70.6073523
 104.1406602  12.3113192  69.4261265 112.0638957  89.9378109  59.0738249
 111.4202737  90.3814793  58.5214329 111.9549077  90.3373814  59.9367809
  31.9023705  90.7849884  48.7763214  32.5121236  90.4683399  49.4427729
  31.3096237  91.3674164  49.2513657  20.2314854  68.2386923  28.4431863
  19.6294785  67.4945927  28.4550166  20.9649682  67.9447842  27.9029512
   1.9031201  91.2542343  34.1718531   1.8377322  91.6259766  35.0514913
   2.7873483  90.8899593  34.1308999  17.0136023  75.4507113  57.0440626
  17.5115454  76.0723114  56.5131283  17.6590252  75.0777483  57.6445341
  23.7782598  58.3532858  47.2471046  24.7138643  58.3094931  47.0497274
  23.7208772  58.9304161  48.0085897   8.4182906  65.4339647  65.2329206
   7.4910951  65.6717396  65.2310896   8.6966193  65.5481148  64.3242216
 101.0777444   8.1787241  84.6005440 101.4534301   8.0149687  83.7355232
 100.1627892   7.9095210  84.5191669   4.8974681  70.8220673  45.5185652
   4.9062195  69.8663187  45.5705357   4.1543463  71.0846758  46.0617399
  12.0606279  55.6153822  32.3349738  12.6182055  54.8436165  32.2363997
  12.4974501  56.1425924  33.0039048  15.8269477  73.3507633  61.1735344
  16.1138821  73.7438011  61.9978046  14.8786819  73.4808588  61.1634636
  34.6451831  77.4971581  37.5358939  33.9517856  78.1248617  37.3323727
  34.9414182  77.1822691  36.6818929  37.5269360   0.7574690  89.6758270
  36.7228952   0.2429617  89.7467995  37.4526100   1.2027873  88.8317871
  40.4445744 101.6978073  77.0274067  41.3456726 101.4252949  77.2005892
  40.2364492 102.3031616  77.7390623  84.2278069   1.0708846  71.9966030
  85.0131768   0.5250681  71.9577169  83.5310286   0.4695834  72.2596025
  28.7012720 103.4829617  65.0524807  29.5260739 103.0931377  65.3422689
  28.9645791 104.1929531  64.4669771  11.0572433  84.3409634  75.0171947
  10.6646228  85.2122688  75.0711346  10.5165434  83.7986374  75.5914450
  27.8378630  93.4202957  77.2720814  27.2200274  92.6901150  77.3087835
  28.6907554  93.0212498  77.4440384  56.1434460  84.4406509  34.3313622
  55.9035969  84.3475723  33.4093857  56.4621687  85.3401089  34.4063044
  27.7712488 100.5216885  58.3314514  27.6681614  99.5783615  58.2060385
  28.6937094 100.6895351  58.1387758   8.2317574  33.2762193  25.0410323
   8.5143120  32.6752424  24.3516688   7.6085741  32.7685308  25.5607657
  53.9321184  82.6617241  41.7138958  53.9518499  82.9010487  40.7873106
  54.6691847  82.0606136  41.8217611  36.3040400  99.8723793  62.3426390
  36.0906005  99.6412659  63.2466650  36.0314512  99.1112995  61.8301105
  43.2982492 107.0567131  46.6122150  43.4758949 106.3709641  45.9684610
  44.1632652 107.3858738  46.8564129 116.5950275  99.6270657  51.1978579
 116.7232500 100.5369282  50.9296417 117.3894194  99.1779613  50.9089231
  47.3249435  87.0156860  56.6045332  46.4065218  87.2101021  56.7914486
  47.4243593  86.0904598  56.8288422  64.7398043  89.2057228  19.5828152
  63.9754009  89.4974422  19.0860105  65.1996565  90.0135899  19.8111153
  27.1650362  81.1769772  53.1367254  27.7526283  81.8744087  53.4275293
  27.7285266  80.4075336  53.0551291  33.2688498  75.4582167  33.0402136
  33.6129928  75.3218174  32.1574950  32.3180676  75.4560518  32.9295897
  42.2929287  79.9416399  56.1098862  43.2022476  79.7594690  56.3469219
  42.3180389  80.8140564  55.7168388 111.4379382  84.2461205  27.1294880
 111.4361518  85.1907349  27.2842264 110.7336711  83.9111710  27.6845050
  12.9576814  52.2220278  47.2268009  13.2639170  51.8611431  46.3948059
  12.4919999  53.0222416  46.9838524  32.6624060  67.9031467  52.4081373
  31.9542074  68.2144833  52.9718351  32.4690199  66.9758224  52.2706413
  10.3743887  71.9344187  70.1016617  10.6655085  71.2913895  70.7481861
   9.4856948  71.6605520  69.8748302  21.4469075  80.3322411  56.1145544
  21.8412638  79.4607067  56.1482906  21.7906857  80.7196903  55.3096104
  52.1718311  85.4163265  49.5026112  52.7930212  85.7925701  48.8790703
  51.9011688  84.5901394  49.1021252  74.3207687   7.3157633  71.2842846
  73.4175748   7.0101584  71.2001514  74.4915313   7.7859343  70.4681873
  76.8911785   2.4675025  39.7821474  77.6214379   2.8213824  39.2744827
  76.6709513   1.6454829  39.3439507  91.9431466   6.9157065  43.5778618
  91.3475627   6.1679495  43.5292387  92.8096694   6.5248335  43.6900330
  49.6387815  92.7308655  71.9406986  50.3939104  92.4897194  72.4772263
  49.5909882  92.0465755  71.2730980   8.7770736  92.1704197  55.1762104
   8.3918238  91.4580727  54.6659422   8.0289817  92.7020931  55.4480743
  36.8322539  94.1812038  58.0079412  35.9329438  94.5077419  58.0369806
  36.7728376  93.2858276  58.3411312  49.3554831  88.0799294  71.4878035
  49.0713358  88.0745506  70.5737638  48.5611343  87.8892708  71.9866896
  28.8971448  85.0676632  26.9968843  29.1287684  85.9568691  27.2650123
  27.9590631  85.0004768  27.1749902  83.5647506  22.4416197  67.4353266
  82.8524751  22.6631487  66.8354750  83.9577359  21.6536845  67.0598984
  36.5781641  86.5636063  42.0032167  37.4921966  86.6565609  41.7346334
  36.1462975  86.1633396  41.2485600  32.0942283  73.8264894  58.3906126
  32.2779083  74.7628164  58.3145332  32.7183318  73.5123682  59.0448713
   4.8111153  48.2694149  45.6893206   3.8756853  48.4629393  45.7505703
   5.1509696  48.4501219  46.5657234  55.7645702 108.4471130  93.6964989
  55.7629013 108.1071568  94.5912933  56.6021872 108.9031887  93.6151218
  62.5046873 104.0938663  82.6183891  62.6714087 104.2541218  81.6895485
  63.3320761 104.3061733  83.0503559  49.9711973   0.7379092  68.9435196
  49.1368205   0.6053961  69.3935061  50.6317562   0.6351317  69.6285963
 113.4966203  64.8958158  29.0669227 113.5676813  64.1253948  28.5033321
 113.2355812  64.5460939  29.9188542  38.5006356 105.0521946   2.0380306
  38.7176323 104.3041039   2.5943577  38.0358458 104.6701908   1.2935373
  16.6816413  51.1692190  55.3495264  16.5905035  52.0734644  55.0490952
  16.2829804  51.1646271  56.2197447  41.6028118  92.7531528  53.5621119
  41.8585348  93.3189678  52.8336191  40.6835175  92.9676056  53.7206793
  55.1995707  91.3344765  75.4215240  55.6525803  91.0389996  76.2112713
  54.4693375  90.7237434  75.3215885  51.0046482 108.7113762  75.7104921
  51.4267159 109.3507099  75.1366138  50.3687763 108.2682991  75.1487207
  18.1752670  89.5538521  56.4255810  18.7780023  88.8584995  56.6890478
  17.6423466  89.7165203  57.2038889  67.9418177   5.2379740  82.1444321
  67.3965281   5.1744975  81.3603020  68.8377637   5.2810038  81.8102741
  41.4875555  83.7395000  57.0356083  42.2231340  83.9957809  56.4793015
  41.0471010  84.5631981  57.2447872  52.7495724   6.5123976  64.7055864
  53.0767197   5.7714880  65.2157402  52.6253218   7.2100485  65.3490782
  34.1205072  64.1539526  34.6536660  34.5451188  63.4867239  35.1928711
  33.3429360  64.4054556  35.1520228  16.5374076  67.3774958  91.8523884
  17.0709419  67.7116966  91.1313534  16.2624395  66.5073204  91.5635490
  21.6947556  60.9289122  43.4842014  20.7756400  60.7559824  43.6880493
  22.1688175  60.6643343  44.2725515 114.6359336 108.8844585  66.3138771
 114.9336229 108.4773731  65.5003071 114.8489655 109.8118114  66.2096071
  11.9960356  94.0323925  74.7935915  11.6407430  93.1616592  74.6152067
  12.6761973  93.8835907  75.4504538  54.0351290 108.6076508   1.7120986
  53.3091313 108.3353864   1.1508231  54.5467347 109.2066012   1.1682658
   2.0023012  78.7081099  62.5940180   2.0974892  79.5192957  63.0931616
   1.1370260  78.3780670  62.8360939 105.9224075  76.5891218  56.3136148
 105.5125802  75.7520676  56.5318298 105.3181761  77.2480154  56.6556501
  81.1281604  -0.1331674  69.1464043  81.6382808  -0.1320707  69.9563503
  81.5665597   0.5074633  68.5863733  37.1112514  54.8171425  66.8518686
  37.6738381  55.4667759  67.2734213  37.6867127  54.3673420  66.2332010
  15.9778225  70.8919191  76.8783522  16.5012383  71.5760612  77.2957468
  15.7504880  71.2533903  76.0216808  45.9301150  13.1943453  63.5263205
  46.0036445  12.3728312  63.0405760  46.2101847  12.9733027  64.4145393
  23.5538483  91.3785267  72.5248671  23.9953566  90.8128643  71.8913603
  24.2537117  91.9180012  72.8928137  38.8150001  96.1281395  28.2167864
  39.0027571  95.9481716  29.1379762  39.6286821  96.4981174  27.8743458
  26.6771173  73.7773705  47.0119858  27.0068860  74.3908024  46.3553333
  26.3244128  73.0478334  46.5024710  30.0376749  67.5441790  55.3886271
  30.5053163  68.3443975  55.1494646  30.3839302  66.8779087  54.7949743
  37.7823234 104.9448681  56.1348104  38.0193329 104.1985798  55.5842543
  36.9297433 104.7107220  56.5015793  30.7270455  85.9006119  58.0876446
  30.5986547  86.1195374  59.0105867  31.0187578  86.7188931  57.6857185
  30.7929611  63.2299328  49.3122864  29.8429108  63.2602978  49.4250393
  30.9181714  62.8966618  48.4237528  89.5220947 108.7020874  74.6183014
  90.0432301 109.3035126  75.1502228  89.0723038 108.1471348  75.2554321
  66.7310757  26.4521636  70.4115295  66.0927576  25.9321536  69.9232912
  66.7471188  27.2964800  69.9608660 113.1764162  38.2109403   8.5395388
 112.5018967  37.9118966   7.9297595 112.6896680  38.5071515   9.3086676
  34.6099615  86.9387150  34.4177413  33.7599921  86.5049076  34.4925094
  35.0989175  86.4017200  33.7942147  18.4791970  92.6890182  81.2596416
  18.6500430  92.9203224  82.1726227  17.7558160  93.2593060  80.9994125
  43.4360838  53.3998537  26.9541121  44.0412378  53.3709478  26.2130404
  42.5911283  53.6249065  26.5647125  29.7518396  66.8959904  42.4016523
  30.6298327  67.0327425  42.0457602  29.1632438  67.1361589  41.6860342
 107.7176774  52.4123048   1.4974932 108.5616410  52.1258878   1.1483244
 107.9208100  53.2040548   1.9955973  53.9048338  90.2537441  42.5644302
  52.9950571  90.0184441  42.3822927  53.9013338  90.5328941  43.4800148
  21.6161585  72.1287107  60.8020210  20.8533955  71.6659832  60.4551649
  22.1554089  71.4416599  61.1936903  18.9498741  39.3626546   7.0272212
  19.8263914  39.6512269   7.2815184  18.4203083  39.4819497   7.8156142
  39.0319610  98.0094814  56.4666510  38.7060690  98.4615135  57.2449160
  39.9005985  98.3833694  56.3186455  35.3361917  67.7455187  48.2433891
  35.7875371  67.2657347  47.5488901  35.5666327  68.6618519  48.0902243
 101.2195271   0.8548583  68.3038902 102.0195073   0.7503451  68.8190079
 100.9566420  -0.0392877  68.0856705  25.9612894  75.4180193  58.0612183
  25.9272194  75.2625513  57.1173429  26.8952918  75.4163790  58.2706690
  47.0058680  77.7735472  73.0266809  46.4537907  77.3362589  73.6749268
  47.8882933  77.4484730  73.2052374  53.2842588  84.5734310   0.1378972
  53.5724449  85.3070354   0.6810410  53.6340904  84.7673416  -0.7317282
   2.9796297  17.7072191   1.8413596   3.7495119  17.2436570   1.5117793
   3.1051142  17.7358293   2.7898745  10.6683195  98.2616711  55.3703451
  10.9597385  99.0789413  54.9661589  11.1619020  97.5797939  54.9146605
  20.7477498  76.1960983  71.4858389  20.1286054  76.6056967  72.0900917
  20.2144694  75.5914068  70.9698963  41.3173342  92.8717136  60.4471064
  41.8782854  92.2449303  59.9902439  41.0459328  93.4894657  59.7681713
  19.0188241 100.5438137  50.3391409  19.1599941 101.1363888  49.6007967
  18.3517289  99.9308395  50.0301409  68.0564946  12.3018778  64.2837906
  68.0183000  12.2943343  63.3273792  68.1066531  13.2295741  64.5141792
   0.1255266  61.3032770  49.2794228   1.0115645  61.5214491  48.9903402
  -0.1021582  61.9971180  49.8982716  13.8191104  76.6692781  70.3884029
  14.1241813  76.5587044  71.2889242  13.1214261  76.0212755  70.2906036
  15.1310570  33.0392026   5.4393439  14.7007019  33.6852693   5.9993510
  15.8527453  32.7039480   5.9713225  52.0704985  91.2174416  52.4617958
  52.8114319  90.6846237  52.7505016  51.2987280  90.7049370  52.7025127
  52.2071266  91.5394402  17.4099743  52.7796125  91.3382530  18.1502545
  52.5890398  91.0601521  16.6746771  32.6857543  93.2731247  57.2912502
  33.0884719  92.4242783  57.4742842  33.3430886  93.9136696  57.5630093
  25.2180028  74.5595789  42.6263094  24.8534513  74.4338465  43.5023928
  25.0323749  75.4753923  42.4188089  13.3947992  70.3937721  75.2805805
  13.0648947  69.8445082  75.9917116  14.0412271  69.8461342  74.8350954
 115.9530295  49.9702120  83.9049149 116.4366313  50.7048035  84.2827129
 116.6132274  49.2888832  83.7777615  25.3485203  84.5757103  69.3255424
  24.7735000  84.5820904  70.0907516  25.9376621  83.8362122  69.4748163
   4.4753611  71.6591787  32.6839519   4.5602569  72.5780916  32.9381585
   5.0112599  71.5784454  31.8949485  22.2590685  69.0251446  85.3760433
  23.1381726  69.3516731  85.1842499  22.3636556  68.5121298  86.1773586
  24.6947575  52.3063707  41.6719484  23.9435005  52.2097492  41.0867071
  25.3394866  52.7905989  41.1561155  36.7409635  84.6419525  61.3604689
  37.3961329  85.2147484  60.9618568  35.9046149  84.9650764  61.0252953
  52.7830839 100.3514385  38.4492826  51.9093657 100.7401276  38.4072852
  53.0032492 100.3571510  39.3808031  41.7359018  58.1131077   5.7954037
  41.9298172  57.4631119   6.4707780  41.3764954  57.6038170   5.0689864
  48.1445456  53.1909037  71.4247990  47.2407007  52.9299021  71.2482309
  48.3456469  53.8332701  70.7442427  81.3146275  21.3865317  77.5464964
  81.2086076  20.6117095  76.9945574  80.4342431  21.7565573  77.6115274
  16.5017247  93.3000183  30.1769829  17.0209968  92.7520466  29.5884967
  15.5932689  93.0921173  29.9585366  26.3931060  96.5226650  83.7340164
  25.7508087  96.0168648  84.2318630  27.2100329  96.4188004  84.2219448
  34.8196673  96.8329430  61.1187506  33.9967465  96.3526249  61.0274649
  35.4621577  96.2980938  60.6525183  33.7273383  95.7392406  45.7595634
  34.1200566  96.4381409  46.2825680  33.1651354  95.2673531  46.3739586
  71.6019887   7.7771700  76.2470961  71.1897654   7.4057806  77.0270777
  72.1109551   7.0552004  75.8783865  39.7801113  79.9570227  54.6746874
  40.4212809  80.1072979  55.3693438  39.0828037  79.4552279  55.0968218
  19.7838891 103.4639168  39.6292973  18.8991380 103.2602119  39.3260670
  19.7587180 104.3994331  39.8303223 114.6596829  73.3491135  63.0203676
 115.4107344  73.8052750  63.3999348 114.8459884  72.4211121  63.1629848
  58.9995426   6.3896693  40.4108143  59.7482532   6.6807593  39.8903036
  58.6903876   5.6008185  39.9654150  52.0042753  66.5815306  44.9127197
  52.5716925  66.0406590  45.4620218  51.6217470  65.9675169  44.2859077
  47.3966646 110.3176594  52.8343582  47.9053497 109.6466541  52.3791361
  46.5892887 109.8725891  53.0918264  29.4961715  15.5171240  71.9896269
  28.6993545  15.7470931  72.4675655  29.7694123  16.3341082  71.5723753
   6.4322251  45.2564764  41.5954208   7.1155918  45.6353569  41.0425282
   5.6980187  45.8660078  41.5203047  44.3323660  73.8197279  53.2658482
  44.7036171  74.6160889  53.6456060  44.3855143  73.1719637  53.9685631
  26.3612938  96.7680168  61.5762997  25.7861447  97.5315571  61.5268183
  25.7836413  96.0492706  61.8331051  83.1961793  13.8892210  35.3853536
  83.7116403  14.4473685  35.9675932  82.5740308  14.4863738  34.9699402
  17.0147848  69.8705769  33.4039116  17.1746421  70.3188562  34.2344046
  16.0789227  69.6699762  33.4162760  85.6916636  13.5256232  42.3709965
  85.9494132  12.6128329  42.2420645  84.7422856  13.4921111  42.4884415
  66.6860718  19.6319426  60.8175325  66.2411136  18.8027419  60.9926796
  67.6116842  19.3975295  60.7502842  46.6466188  78.1752157  49.6824265
  47.4059391  77.7584743  50.0898504  46.7066574  77.9316473  48.7586832
  62.7269602  61.8554831  84.8933887  63.1326199  62.6432371  85.2554989
  63.3411264  61.1518431  85.1029682  53.5183239  68.7616634  25.6190634
  52.7259541  69.2890167  25.7204652  53.1966639  67.8760052  25.4506183
  40.5813169  75.5356932  44.4697571  40.0429344  75.9233522  45.1597500
  41.4545488  75.9002161  44.6140528  45.5859613  70.5617809  36.4116812
  45.0999260  69.9429655  36.9567251  46.4716673  70.2010489  36.3713169
  36.3805842  85.7577133  32.5122094  36.3821983  85.3259754  31.6579056
  37.2033477  85.4863930  32.9192400  80.0608081   1.6852034  72.8921175
  80.0894278   1.3502253  73.7883329  79.2974538   1.2597025  72.5016451
  37.7805281  97.7864075  79.0370750  38.1704068  97.1164322  78.4754992
  38.2216787  98.5973454  78.7841225  21.1708975  93.5817814  49.8866844
  21.5721393  94.0276051  50.6326628  21.8861580  93.4722996  49.2600727
   3.7644050 103.7759876  66.9167185   4.5413530 103.2663536  67.1466208
   3.9696124 104.6667767  67.2006655  57.0252419  65.2908802  78.2148838
  56.1654711  65.2302408  78.6312389  57.6242447  64.8860931  78.8422441
  57.2572988  15.3836764  44.9527264  58.0957991  14.9956740  45.2029419
  57.2515696  15.3453959  43.9963102  55.4721069  76.2904215  43.2259178
  55.2312279  76.2402821  44.1509581  55.4253101  77.2232485  43.0164528
  20.5849195  74.9805975  81.6587067  20.6843352  74.0331411  81.7518139
  21.2054563  75.3494549  82.2872829  49.9832582  97.9696369  37.4226546
  50.6332254  97.7891159  36.7435431  49.3996572  98.6183834  37.0292449
  85.0051707   6.1616076  41.3858080  85.6250113   6.3717021  40.6873178
  84.6271867   5.3214873  41.1259127  49.3200493  84.7220993  76.7731762
  49.0689802  83.7985039  76.7860937  50.1397657  84.7405910  76.2792587
  58.0694008  93.1663704  38.1841707  57.6838541  94.0121937  38.4125781
  57.5917721  92.8886890  37.4025083  66.9897747 103.0005646  27.6016140
  67.1830368 103.3010769  28.4896302  67.6862764 102.3745060  27.4037242
  58.6505127 101.1142159  80.7620430  58.4973955 100.6047440  81.5577984
  59.1957903 101.8470860  81.0480690 109.8397988  10.9800280  81.1953449
 110.4552955  10.9721125  80.4623127 110.3857011  10.8345545  81.9680405
  90.8034134 108.5677147  60.1952028  89.9934578 108.6901665  59.7000217
  90.9527302 109.4111252  60.6225204  51.4450073  79.2855358  44.4598961
  51.0614634  78.7964869  43.7319136  51.8194771  80.0667095  44.0527487
  23.2831526 108.7641430  49.4191217  23.8933015 108.5060501  50.1100206
  23.2004762 109.7129536  49.5147467 106.3282079  28.5821475  94.7021961
 106.1800355  28.0388392  95.4762077 106.9749803  29.2290915  94.9839306
 104.1548318  14.4635046  89.8303223 103.5306853  14.6782435  89.1370964
 103.6211699  14.0660227  90.5183983  85.5738640 104.5825386  56.5995169
  85.6489754 104.0842819  55.7856798  84.8010063 105.1328945  56.4729500
  61.1307573 102.5751591  48.1490374  61.1519289 103.4730053  48.4801769
  61.4408875 102.6454830  47.2462034  79.5092916  98.8665962  34.9816942
  80.3172016  98.8866997  35.4946303  79.1653585  97.9827404  35.1110935
  56.3868427 101.9660091  61.7917776  56.4636183 102.5314713  61.0232830
  56.6706324 102.5152302  62.5225687 108.1742442  52.3261689  15.9014945
 109.0783561  52.0632028  16.0737280 108.2382930  53.2429838  15.6339697
  48.2897854 107.6486301  45.6943178  48.8582850 107.0780373  45.1771498
  47.6342773 107.9620934  45.0711966  30.2478010  41.8781518   8.0183272
  29.3644268  41.5316629   8.1441264  30.7966549  41.1013746   7.9105620
  35.4218268  95.4412746  87.7895832  35.9995818  94.8075199  88.2147694
  35.4018378  96.1871052  88.3892250  69.2676920   3.2573451  68.5398722
  68.3629269   3.0006827  68.3616829  69.4761390   2.8366602  69.3740225
  62.3226661  17.4514235  31.0927367  62.5872821  18.3605040  30.9520340
  61.8324512  17.4691523  31.9146895  78.7238783  -0.0969755  77.2449398
  77.7769298   0.0386561  77.2784567  79.0565843   0.6562174  76.7568350
  48.5528284  17.7147330  26.6142821  49.0640694  17.4933661  25.8359098
  48.4062016  16.8757380  27.0511150  44.5337486  80.7681084  81.6513824
  44.8101807  81.6512203  81.4066029  44.7495699  80.6987000  82.5813484
  20.2635455  88.1023121  46.8111849  20.4043579  88.8503551  46.2308121
  19.4260418  88.2842255  47.2374821  56.9770908 107.0118713  68.3902407
  57.2481823 107.7403736  68.9488459  56.0240364 106.9864368  68.4755087
  52.0320749  99.5310783  46.6133642  52.5907326 100.2981186  46.4877510
  51.1409283  99.8804569  46.6086292  84.5543975  11.0662974  64.3279648
  84.4411677  12.0073546  64.1944742  83.8982457  10.8370818  64.9861145
  32.3030424  97.5332355  58.1920671  33.0139565  97.7888298  57.6042747
  32.0014429  98.3568192  58.5754585  80.8658570  12.5721968  47.1860313
  80.3062457  13.3369292  47.0509243  80.3066892  11.9439734  47.6430798
  63.0852217   9.2615546  35.3041768  64.0033239   9.1154135  35.5321217
  63.1056327   9.9894083  34.6828532  86.4358109   7.1699942  45.8225822
  87.3266381   6.8249167  45.7627106  86.5511006   8.1153906  45.9183311
  54.7229892   9.6951045  56.7994165  54.8516554   9.0591277  56.0957050
  53.8272363   9.5417727  57.0999956  81.0196895  15.0800932  61.0031414
  81.9420833  14.8768939  61.1584949  80.6672782  14.2922057  60.5892849
  85.7314873  93.0160522  88.3748055  85.3673649  92.9308987  87.4936771
  85.1182842  92.5395966  88.9344501  89.3051070  29.2823542  39.5684075
  90.2247876  29.4132651  39.3375826  89.2324037  29.6175517  40.4620504
  65.7622546  64.3117369  38.2140136  66.0796589  64.3845404  39.1141176
  66.5549702  64.2036284  37.6885176  80.2909249   3.8629664  84.8200607
  79.4601363   3.5722388  85.1962280  80.3158349   3.4583796  83.9529228
  97.7848309  27.5418509  82.4037266  96.8710202  27.8242053  82.3655605
  98.2781285  28.2772864  82.0403671  47.0010090  95.4280281  54.9986696
  46.4281797  95.5639553  55.7534027  46.9071436  96.2269020  54.4797945
   1.0297263   6.8031634  43.8384962   1.0169042   6.7993296  42.8813887
   1.9141782   7.0906580  44.0650320  12.7013373 106.4540005  85.7041836
  11.9648361 107.0643902  85.6692600  12.4358845 105.7948017  86.3454437
  43.3773708 104.9646282   5.8804381  42.6412725 104.9947071   5.2692980
  43.0777121 104.3943787   6.5884316  49.1362381 100.9578800  71.8369627
  48.4806347 100.2604675  71.8308067  48.6443233 101.7509174  71.6240215
  36.2132621 100.5733967  27.6394868  35.4631996 100.8652592  28.1576157
  36.7428946 100.0624180  28.2515526  35.7370210  84.0483093  55.6458282
  36.3593483  84.6941757  55.9801912  35.7765341  83.3289814  56.2760925
  37.6226044  81.5705776  53.6727142  38.3519363  82.0956802  54.0022135
  38.0121827  80.7200623  53.4700441  46.0666704 104.3590164  66.5526199
  46.9468260 104.5876694  66.2538195  45.7726812 105.1274014  67.0418978
  55.8490747  24.4759310  42.5995350  56.1480040  24.5719946  43.5037756
  55.3651029  23.6501254  42.5937176  96.9535941  21.0337485  55.0644636
  97.4702996  20.4079760  54.5568657  96.2579650  20.5067671  55.4576826
   7.4259741  50.8556222   4.1289668   8.0296547  50.1830816   3.8135294
   7.3311932  50.6729841   5.0637869  37.4541974  86.1503887  47.3578835
  37.7232671  86.6622066  46.5950727  36.8333745  85.5102634  47.0099497
   3.7368450  92.7103996  77.3899746   2.8700000  92.3219013  77.2721577
   4.2443234  92.0327473  77.8366137  31.6656184 108.8949108  22.3608780
  31.1922503 108.0761433  22.5084615  31.1875439 109.3233395  21.6508603
  98.4643859  20.5520476   3.9467755  98.3350104  20.0038756   4.7207245
  98.6938352  19.9350298   3.2518849  61.4928264  10.4639472  28.2915711
  61.2776083  11.1716879  28.8990450  61.2444228   9.6651495  28.7568045
  53.7261152  99.8086262  70.4848862  54.2955494 100.4344177  70.0372601
  52.8423309 100.1513958  70.3519630  41.4927769  86.9354725  40.0456285
  40.6591606  86.4918518  40.2022219  42.0585823  86.2582016  39.6749496
  56.9580364 105.5862713  47.5023317  56.3541698 105.7755566  48.2204866
  57.4535656 106.3969326  47.3861027  43.3925962 104.7306156  76.4804459
  43.1424570 105.4544830  77.0546246  42.7698851 104.7742939  75.7548046
  52.7307081  72.9411125  90.0564289  52.5435019  73.5094881  89.3093491
  52.7385187  73.5310602  90.8101749  38.5333991 101.3621616  41.4458036
  38.3839822 102.2808170  41.6693735  38.8364267 100.9633732  42.2615051
  54.3238783  52.7558374  46.7714882  54.6361160  51.8522358  46.8188906
  53.6373234  52.7373409  46.1047554  36.9927955  60.5813026  25.0702190
  36.0728812  60.3558016  25.2085638  36.9735909  61.4874363  24.7623467
  48.8975573  67.2075558  48.1463003  48.3998489  67.8933239  48.5915327
  49.7218466  67.1572495  48.6302900  85.7306277  51.6510953  84.6910878
  86.2621384  52.3738183  85.0248452  86.3472848  50.9255685  84.5932229
  93.0307692  25.4176081  44.6955442  93.5467023  24.6158350  44.7804117
  93.2891625  25.9495009  45.4482508  80.4754847  13.6259116  80.4103851
  81.3927239  13.8803805  80.3096771  79.9960154  14.4543589  80.4132938
  22.8376389  77.1558237  70.2927446  22.0029163  77.0651007  70.7523537
  23.2203913  77.9582596  70.6474638  27.3354799  75.8513116   1.8321280
  26.8120892  76.6425370   1.9595866  26.9773991  75.2235746   2.4597983
  42.6223326  78.2591867  51.7187977  42.2767591  77.9996490  52.5728750
  43.2927895  77.6047421  51.5227747 112.3561257   0.3939284  51.8458557
 111.8279809  -0.0020086  52.5390530 112.8956050  -0.3245603  51.5157604
  38.8283110  69.2388821  38.8756514  39.2203069  69.6097183  38.0850482
  38.1914377  69.8954010  39.1577983  29.4232273 100.3038120  72.0326996
  29.2850685 100.8342075  72.8174400  28.6188006 100.4125309  71.5254402
   8.4247554   7.5332488  73.8076735   8.4044231   8.2584895  73.1833029
   7.7493823   7.7512015  74.4500113  48.2944345 105.2312469  38.3086610
  48.7636471 106.0584545  38.4172845  47.3696136 105.4709148  38.3678102
  38.1290722  95.5265522  55.8040619  38.3638668  96.4484310  55.9101200
  37.6147962  95.3190899  56.5842581  92.9025954  17.6577509  63.8986540
  93.5704440  17.3981131  63.2639837  93.3376283  17.5834788  64.7480440
  91.4379662   6.7595328  64.6923208  90.5155534   6.9059027  64.4826365
  91.5180129   7.0144404  65.6114769   0.5601037   2.5486029  67.6666880
   0.7072080   3.4857214  67.5386763   1.3395990   2.2451628  68.1320333
  61.5824223 106.4881325  87.0249939  61.1160374 106.9789505  86.3483715
  61.7410374 107.1282196  87.7188015  48.9330912  87.3668957  37.8261089
  49.0912151  86.4245510  37.8827977  48.5923576  87.6048851  38.6883712
  18.4365833  97.3249817  49.9142027  17.5357699  97.6336098  49.8166609
  18.3501625  96.3924599  50.1121235  32.3040748  93.5544014  72.1221066
  32.1428537  92.7139473  72.5509119  31.5663171  94.1037941  72.3868895
  38.7058838  13.8713587  61.7839432  38.6437385  14.0566863  60.8469152
  37.9539932  13.3080042  61.9670534  41.7886740  10.7393111  57.9983234
  42.4582589  11.4091815  58.1367493  41.3300337  11.0192049  57.2061491
  70.9663725 107.4121189  61.4952087  70.5432177 108.2706261  61.4837742
  71.0265255 107.1870899  62.4236345  66.4459914  21.0739172  67.9733467
  66.0761613  20.3620471  68.4955502  66.0752458  21.8691863  68.3558702
  47.9224300 102.4053860  62.0400810  48.2754850 103.2830715  62.1858501
  47.9012346 102.0081043  62.9106855  47.5922585 109.4679928  71.9938469
  47.8703403 109.1149712  71.1486959  48.2432890 110.1390362  72.1990252
  91.6524315 100.7231140  68.2043791  91.5149403 100.7231236  67.2571039
  91.5040302 101.6312599  68.4679461  12.7339864 108.3254337  23.5509634
  12.0960248 107.6601410  23.2928705  13.5079932 107.8265095  23.8121486
  25.5638099  71.4934826  91.3336468  26.1158085  71.9540024  91.9656658
  24.8046374  72.0648289  91.2176514  52.2978067  80.0409317  46.9161320
  52.5743771  79.8400259  46.0220528  53.1046534  80.2922344  47.3656702
  58.6121112   1.5133608  39.3749976  59.4347233   1.9257678  39.1114473
  58.4011120   0.9184683  38.6554050  91.0199231  50.6626929  43.9671803
  91.5953368  51.3226546  43.5804319  91.5914887  50.1540221  44.5423412
  85.9036940  19.2837943  26.7225456  86.3183183  19.5087756  27.5554347
  84.9749583  19.4710101  26.8590522  45.7692766 108.6461353  66.4521790
  44.9648857 109.0723896  66.1563921  45.4696083 107.8622341  66.9125462
  50.7365370  97.0176125  34.9956584  51.1722040  96.4475822  35.6292868
  51.1190510  96.7748833  34.1524553  37.5337338  85.1747322  67.3998022
  37.5721431  85.1671696  68.3562040  38.4388089  85.3213501  67.1249008
  54.5269472   9.2171324  30.3591466  53.6564285   9.3425597  29.9813914
  55.1193613   9.2373503  29.6075678  40.2512980  80.2664185  79.6327448
  40.8710480  80.3461838  80.3578472  39.3908763  80.3592014  80.0417709
  80.9191674  14.9462069  42.1465731  80.3370112  14.4744814  42.7422285
  80.6334084  14.6809901  41.2723684  92.8824014   2.8604830  59.1114473
  92.2239512   2.5409640  59.7283602  92.5826568   3.7381018  58.8744450
  14.9678547  31.8795919  14.1862158  15.4797346  31.1052942  14.4200472
  15.1062948  32.4867296  14.9131541  89.0116042   5.8362139  88.6321259
  89.0143889   6.3460482  87.8219986  88.6919183   4.9727190  88.3705902
  35.3941679 108.9445400  34.0301633  34.5456052 109.1085148  34.4416070
  35.3959036 109.5040703  33.2535338  88.1353921  17.9809988  50.8135319
  88.3077687  18.8185824  51.2436199  88.4339589  18.1082381  49.9130297
 111.3166684  19.7378958  66.0928869 110.4920691  19.9352110  65.6486654
 111.2689275  18.8006342  66.2812948 106.9344252  88.0418301  71.3156414
 106.9683718  88.9600563  71.5838718 106.0017544  87.8265285  71.3160133
  88.2846898   9.6813429  53.6766243  88.9742774   9.0216959  53.7512445
  87.6613778   9.3068732  53.0541372  34.3756938  91.3632393  70.8780289
  34.9984264  90.6661510  71.0841942  34.6780920  92.1135807  71.3896656
   1.2075168  89.5056534  55.4501915   1.0597042  89.6170425  56.3893270
   0.3392384  89.3230057  55.0910711  91.5238732  21.8384303  59.2980099
  92.1747130  21.2813509  58.8710451  91.9963855  22.6454104  59.5023251
  89.1245479  10.4307497  78.8380051  88.2660932  10.1838149  78.4940386
  89.5072144   9.6072329  79.1406870  52.6740646 104.6736622  62.7002048
  52.5227642 104.6370125  63.6446619  52.3024607 105.5135536  62.4305201
 104.9120873  23.6907042  20.4003334 104.2756528  24.3279685  20.7244825
 104.7843522  22.9211939  20.9551001  49.4278860 108.0152893  56.9072819
  48.6984348 107.8388023  56.3131571  49.0744448 107.8395367  57.7793074
  60.1099968  89.8075771  13.1711805  60.1343346  89.1748619  12.4533248
  59.3189907  89.5833588  13.6613548  68.4871477   9.5299471  54.6799278
  69.1774196  10.0657404  54.2891884  68.7031907   8.6343420  54.4202280
  78.0053568 107.2845650  71.6502190  77.2332621 107.1754169  72.2053719
  78.0730581 108.2300663  71.5173054  29.3200064 109.6676540  57.3410177
  29.3783236 110.5769920  57.6341772  28.3816409 109.4789791  57.3309040
  32.7403593 100.7458305  51.2501764  33.0724478 101.4672756  51.7844725
  33.4277630 100.0810051  51.2915325  56.7280477   9.4332827  58.8486385
  57.5710780   9.5260085  58.4048653  56.0782379   9.5929850  58.1641865
  27.2553349  88.9984226  83.0778694  26.3270903  89.0343857  83.3087349
  27.7137518  89.1045094  83.9114285  38.5258007 106.3305473  50.5723333
  38.4446144 105.5421829  51.1091042  39.3923259 106.2594986  50.1719332
  67.0610571 101.2648010  47.3835135  67.6943779 100.5737209  47.5772953
  67.5046921 101.8243694  46.7460918  57.1296549  94.9734974  31.2016654
  57.9590464  95.4489136  31.2497425  57.1156931  94.4355679  31.9932961
  31.2037992  93.2257938  60.2517939  30.3366876  92.8618717  60.4304409
  31.4216661  93.7235165  61.0398531  34.7601485  72.3811436  53.5977936
  34.7354817  72.7594900  54.4766998  34.0087008  72.7686691  53.1490374
  89.1625613   7.2484816  63.5372066  88.5678595   6.5330637  63.7624598
  88.9529294   7.9406394  64.1642666  41.9514656  90.0417233  54.5249605
  42.0584583  90.9388733  54.2088652  41.6649294  89.5493317  53.7557554
  37.5689864 108.4052849  51.9290161  37.7655506 108.1650543  52.8344917
  38.0450249 107.7633667  51.4021778  61.1076069  83.4027290  15.5439341
  61.4995575  83.2499981  14.6841216  60.8626318  84.3280029  15.5345356
  44.7552443  94.9073315  95.2992249  45.1774073  95.3789520  94.5811844
  44.3321800  94.1589832  94.8782444  36.8528056 108.5750771  45.8352327
  36.4585042 108.8715649  45.0149536  37.7763653 108.4411049  45.6223488
  26.5838289 103.9407063  48.7980938  26.2048173 104.4320202  49.5269203
  27.1737003 104.5621395  48.3713627  62.6756620  71.0873747  27.6702952
  63.1900501  70.3413057  27.9785395  63.2952499  71.8168926  27.6582909
 105.3676623   1.7600955  79.5400763 104.7853202   1.0664214  79.2303371
 104.9597329   2.0724333  80.3477097  76.5086049  38.0566634  73.3219481
  76.1598987  37.1689261  73.2409048  77.2465176  37.9699648  73.9254427
  90.3867120   6.5330637  95.1296043  89.9889296   6.0102118  95.8257580
  91.2917537   6.6612376  95.4136944  62.9065275  97.1658993   4.6736401
  63.3764887  96.5581989   5.2446616  63.2007122  96.9412231   3.7909141
  40.4039621 102.0412064  64.3504190  40.1224089 102.4205399  63.5179090
  40.1402235 101.1226463  64.2964554  67.0108604  77.5009632  80.6040859
  66.5606213  78.3043766  80.3432465  66.6015053  77.2555876  81.4338207
  58.0513573 107.3900604  58.5723686  57.5183678 107.0830822  57.8389406
  58.9110756 107.5619698  58.1882381  57.7223682  99.0803146  58.0954933
  58.1765318  99.6634197  58.7037373  58.1030750  99.2821884  57.2407770
  40.3815317  54.9609709  45.0087118  40.4505062  54.1452408  45.5047512
  41.0226870  55.5436897  45.4156446  36.3306689  89.9075127  63.4889889
  35.7452607  89.2467403  63.1189823  36.5497613  89.5733261  64.3587828
  65.9732199 109.5703411  61.3025141  65.7589340 109.7578144  60.3886366
  66.3877821 108.7078857  61.2792444  34.5033486  57.1376466   8.2598738
  33.8824350  57.7801370   7.9165225  34.9521048  57.5946378   8.9712195
  26.5133858  98.5226154  29.3940568  26.0187244  97.9852390  28.7753797
  27.2696304  97.9842854  29.6275640  63.1315517 107.0386600  45.6252956
  62.3368073 106.8956089  45.1113367  63.6243105 106.2228584  45.5364561
  74.2503017  17.9779376  73.6037207  73.7598342  17.4015559  74.1897774
  75.1346916  17.6119269  73.5927010   0.8519585  58.9686822  28.2915549
   0.5922777  59.3717813  29.1199927   0.2682907  59.3598699  27.6415209
  45.7015514  85.8508015  22.4242759  45.6474638  85.9283352  23.3767962
  45.1764250  85.0778961  22.2166800  43.4565258  79.6509218  34.8119593
  42.5082874  79.7629499  34.8792195  43.6024332  78.7244987  35.0034666
  53.4981108 108.7139511  49.4840860  53.0174255 109.2035294  48.8166380
  53.0412436 107.8747463  49.5410442  30.7694483 109.3888283  86.7436218
  30.1472092 110.0551224  86.4519119  30.6575203 109.3561649  87.6936913
  56.3832760  74.4145918  30.7410073  56.7063284  73.8980341  30.0027418
  55.4348898  74.2857695  30.7266855  27.0447183 107.1981525  82.5391579
  27.6964211 107.1390247  83.2377434  27.5129652 106.9231892  81.7508793
  89.6625394  24.8477019  51.8392611  89.4097585  25.4739893  51.1609602
  88.8511342  24.3882025  52.0553780 104.9766511  25.1187647  77.7536726
 105.4692000  24.7009028  78.4600878 104.0588826  24.9670638  77.9793072
  25.7565928  62.8031254  74.5052195  26.4712906  63.4126568  74.3210697
  25.6154370  62.8776503  75.4490185  82.8115815   0.2941168  43.9481115
  82.9263991   0.7493056  44.7822857  81.8695563   0.1346243  43.8899660
  98.8540381   0.1349581  75.9557533  98.5541266   0.9175623  75.4933643
  99.4374198   0.4683531  76.6374731  37.2721601 107.1893215  33.3158755
  36.5397048 107.7676678  33.5286093  36.9199634 106.3061714  33.4265232
  49.1464186  85.1432037  31.3255405  49.6910620  85.1997089  30.5404305
  48.4146500  84.5817852  31.0695028  52.2101021 105.6003571  48.7714720
  51.7024708 104.8504448  49.0815926  51.9622517 105.6934452  47.8516150
  39.8773932  99.0375996  35.5355406  39.6926093  98.1283092  35.7706475
  39.0156341  99.4505882  35.4803586  79.8443908  12.8059329  60.1033735
  79.4280356  13.3014620  59.3981647  80.1372022  11.9956816  59.6862507
  23.3293366  93.8842106  40.8967781  23.5281181  93.5210896  40.0337267
  24.1578913  93.8357925  41.3736248  27.5658941  82.3468876  45.3770590
  26.6930103  82.7121639  45.2325583  28.1286097  82.8221035  44.7657013
  26.7883712  40.2045621  93.7575664  27.4777204  40.6676377  93.2815644
  26.1044913  40.8614911  93.8879065  35.8224034  91.8733978  88.4902096
  36.2599707  91.0221195  88.4807777  36.5352511  92.5097466  88.4341431
  12.7152562  84.6782875  49.3829393  13.6677575  84.5835972  49.3857527
  12.5191057  85.1014900  48.5470819  22.9866576  73.5504293  70.5866480
  23.8191319  74.0166950  70.5103827  22.4509692  73.8985634  69.8738575
  40.6091976  98.1446648  50.4788494  40.5201006  97.2440434  50.1671171
  40.3849840  98.0996799  51.4083290  25.0379324 106.5608120  68.5982704
  25.5979347 106.5373802  69.3742085  24.7334671 107.4670124  68.5499144
  52.1127838   0.5225028  70.8361435  52.7864808   0.9148921  70.2808094
  52.6024753   0.0362433  71.4994574  47.0858634  16.9256724  30.6398892
  46.3835353  17.5345839  30.8683467  47.8910220  17.4005545  30.8459091
  22.7563739 100.7636070  93.3713627  22.8794599 100.1352215  92.6598740
  22.5473380 100.2241039  94.1339111  80.4763144   6.7702998  66.9534969
  81.1465377   7.4030245  67.2117567  79.8228616   7.2908438  66.4863014
  21.8816471  83.6423969  35.8389950  21.5268612  83.8749313  36.6970682
  22.8297496  83.7251472  35.9413981  33.6449575  87.5049496  76.4278316
  33.0058503  86.8161869  76.6105223  34.0644002  87.2321606  75.6118107
  60.8597326  78.4087992  47.9268074  60.5304575  78.6494160  47.0608330
  61.6954041  77.9754305  47.7533817  23.4394336  79.8523426  32.5794506
  23.8159180  80.6584454  32.9325747  22.5108051  80.0528717  32.4625254
 114.9411982   1.8244208  54.8592663 115.7817143   2.1717108  54.5606804
 114.8386163   1.0015238  54.3811989  13.0160678  35.9015215  43.5374117
  13.1520236  35.8653105  42.5906086  12.5233711  35.1060618  43.7392235
  30.9764099  79.2399836  52.9369736  31.3135290  80.0415421  53.3370781
  31.4634800  79.1584063  52.1170139  32.5963593  90.1258850  62.7318573
  32.9499626  91.0148144  62.7634048  33.3657575  89.5655155  62.6306248
  48.9909363 106.4969730  70.8746004  48.7702799 106.5182018  69.9434233
  48.1686783 106.2732029  71.3105488  35.6314945  64.1161060  66.5589809
  35.3442216  64.9028301  66.0955477  36.5179753  64.3228006  66.8550539
  81.0350770   9.7853411  63.2244778  81.0299605  10.4645861  63.8988924
  81.4928550   9.0488566  63.6297703  13.7710035  84.7751617  31.2586284
  13.2781613  83.9546204  31.2506318  14.6167791  84.5428276  31.6419244
  71.9154495   9.6204699  31.2483430  71.9063896  10.3720416  30.6556439
  72.7745527   9.2201651  31.1144209  85.8666247   6.1129225  13.1215835
  86.1764783   6.9391001  13.4926081  84.9137896   6.2019194  13.1012523
  50.8967447  61.0820818  63.2974911  51.6516209  61.1027479  62.7093029
  51.1609888  60.4949236  64.0057659  42.2461874  62.1322297   4.4249300
  42.6325781  63.0011129   4.5343928  42.7335817  61.5751695   5.0318579
  28.1992769  85.0049019  49.0721989  28.9071155  85.4713535  49.5167446
  28.0991340  85.4614544  48.2368803  79.9351138  14.5055045  31.8745399
  79.8659533  14.7740115  30.9583807  79.9552411  13.5490359  31.8429351
  47.7995920 100.1275539  44.5610857  46.8944836 100.3482819  44.7808218
  48.3117819 100.4516602  45.3019285 103.8291711  59.1818846  58.3401489
 104.0988702  59.9721373  57.8721762 102.9559440  58.9880026  57.9993868
  73.2350492 106.2063503  60.3597975  74.0748024 106.4204311  60.7662678
  72.5877094 106.3745785  61.0445452  50.4481554  94.5005226  38.9273572
  50.3338146  95.0627232  39.6935725  49.5578623  94.2561150  38.6746144
  55.9536314 106.1480427  52.7432919  56.0374022 106.9544029  52.2343779
  56.4197350 106.3302708  53.5592413  97.2255010  35.9711874  43.5585356
  97.0473212  36.8059195  43.1253004  96.4557904  35.4343451  43.3699226
 101.7847556   2.2492827  80.1973248 102.1131104   2.5206984  81.0544968
 100.9192342   1.8823851  80.3775883  90.0018948   5.0040091  69.5937490
  90.0752086   4.9322356  68.6420631  89.2641801   4.4378031  69.8205185
 101.1725825  24.3098677  71.5567827 101.8010014  24.9813403  71.8222046
 100.3164357  24.7146834  71.6959524  56.3108426  29.8341692  29.9325013
  56.6241867  28.9394034  29.8004270  57.0643562  30.3854311  29.7214079
  24.6599657  38.4260511  19.0214400  24.6336300  38.2689332  18.0775980
  25.5925591  38.4344339  19.2369227  52.4745321  99.7766685  94.1537476
  51.6163349  99.4948769  94.4704819  52.7607441 100.4328251  94.7891712
  45.4222965 101.9307327   7.5430608  45.9001970 101.7551041   6.7325062
  44.5050907 101.9817543   7.2740662  48.5196733 109.2999363  64.6790361
  48.8472223 108.4054661  64.5848846  48.7629986 109.5515823  65.5699348
  49.9742192   0.6644572  55.3166628  49.6421415   0.8491839  56.1952066
  49.3690223   0.0120009  54.9641418  85.5619639   1.8901480  50.8604193
  85.7440347   1.6484011  51.7685127  86.3787860   1.7081870  50.3957415
 116.8851346  23.0448283  40.8009148 117.1303195  23.9308775  41.0674095
 115.9279555  23.0505026  40.8023834  92.1292991  17.9498995  72.1763039
  92.6654357  17.7609957  71.4061737  91.4164895  17.3124445  72.1341324
  69.7935409  37.4641646  50.6657267  68.8995904  37.8049601  50.6349087
  69.9283689  37.2281016  51.5835094 104.4425678 102.8197479  49.5045424
 104.1757870 102.3211288  48.7322426 104.3647575 103.7355042  49.2370319
  28.7969732  96.1654663  54.9807262  29.2263007  96.0674953  55.8306170
  29.2025805  96.9422626  54.5956230  78.9045572 105.8937263  87.5422382
  78.6895800 105.3152084  88.2738972  78.2853508 105.6499386  86.8542099
  85.3074473   3.0252684  43.8967371  85.8309573   2.6108588  44.5826149
  85.3979081   2.4435748  43.1419659  97.0245713   8.0326212  59.6368837
  97.1235150   8.9609564  59.4255972  96.0853070   7.8672160  59.5553255
 113.2001990  35.0184763  51.7990685 114.1490239  35.0644911  51.9167423
 112.9046124  35.9253348  51.8795395  41.8532276  99.0748501  41.7361259
  42.7486706  98.7693310  41.5909386  41.8958521  99.5580101  42.5613308
  20.3487266  10.4859580  64.3245363  20.1399005  10.3049792  63.4080887
  20.6871761  11.3813151  64.3207741  46.8852758 101.5739155  55.7331228
  46.3080168 102.0979786  56.2884188  47.1425152 102.1674156  55.0275612
  75.0407642  16.3533629  29.9935293  74.4103879  17.0571459  29.8400807
  75.8934254  16.7880858  29.9786210  82.7823085  33.4628428  90.9461689
  82.6691121  32.7562655  91.5819073  82.1333951  33.2799185  90.2666950
  82.9601955  97.9035950  57.3887730  82.7011871  97.3588276  56.6455603
  83.3339214  97.2873592  58.0187035   9.6302474  25.3594435  48.2517910
   9.8052181  25.5596102  49.1713333   8.8578761  25.8819235  48.0357075
  95.3711814  19.7262228  85.5579567  96.2322062  20.0398005  85.2812958
  95.3937549  19.7762526  86.5135765  90.1427764   0.9668578  64.4480467
  90.0347823   1.9023264  64.2763567  90.3497571   0.9169520  65.3812695
  85.5061054 104.0863323  53.8601303  84.8550510 104.5693398  53.3511543
  85.1317883 103.2108784  53.9585829  57.8137255 102.7563286  47.9958248
  57.7519560 103.6316967  48.3781147  58.5331392 102.8195477  47.3675919
  69.7054690  25.1639212  55.5086756  70.2620191  25.2617587  56.2812757
  69.7093171  24.2239035  55.3281975  98.6929006   6.1702479  66.1261797
  99.4446105   5.8686293  65.6160975  99.0338487   6.2786044  67.0140123
  43.9647865 105.2166080  44.4978523  43.4209585 104.5245647  44.1216135
  44.7564650 104.7659588  44.7917938  19.8768783 106.2734604  39.6393371
  19.5038867 106.0467815  40.4912329  20.8186865 106.3348293  39.7989106
  95.2241820  15.9116496  47.3383188  94.6593493  15.2981318  46.8684340
  95.9888572  16.0151232  46.7719269  84.4854611  -0.0237333  47.0537376
  85.3174514   0.3354968  47.3619127  84.0194005   0.7292212  46.6903210
  14.7708685   9.1527652   4.3434290  14.0153677   9.3667173   4.8908572
  15.3331549   8.6223172   4.9079661  48.9804029  98.4139156  53.1824541
  49.6806479  97.7634239  53.1300306  49.2144442  98.9576721  53.9346457
  81.7015666   5.8641280  70.4592466  80.9765262   6.0682238  69.8685694
  81.5501803   4.9554385  70.7192278   6.0004009  12.0262469  62.6675081
   6.2343658  11.5286864  63.4510422   5.1211227  11.7212142  62.4437618
  73.5615868  14.7792090  57.1788454  74.2511934  14.2515028  56.7760992
  73.3045620  14.2841185  57.9566956  63.3946127   2.2211970  83.7402821
  63.1751341   2.3615588  82.8192139  64.0502614   2.8908480  83.9350033
 106.6748303  20.9390105  49.7983456 106.0422009  21.6517581  49.8878336
 107.1326512  20.9182013  50.6386995  35.4666829 106.8905067  64.6018600
  35.1163459 107.6376152  64.1167545  34.6970296 106.4757538  64.9915266
 105.2882451   3.7630499  68.2006025 104.3475646   3.6477316  68.0662584
 105.5002278   3.1762541  68.9265203  15.5839617  52.5257921   0.8488421
  15.2996332  53.2886743   1.3522200  14.7721750  52.1398877   0.5197196
 100.1630515  21.6662444  66.6368818 100.1618976  22.5402201  67.0272684
  99.3765325  21.2469710  66.9859266  71.3262033 105.2022552  79.5067644
  70.4389429 104.9286079  79.7393894  71.8827200 104.8051262  80.1766968
  93.3595389   6.1098040  79.4556189  94.0860003   5.5227507  79.6650457
  92.6478547   5.8239497  80.0283623  23.5049033  84.9183178  82.6378632
  23.7736964  85.3867722  81.8475914  22.5585079  84.8111534  82.5425529
  25.7246113  67.9223204  80.9349346  25.2246118  68.6105871  81.3737202
  25.1426458  67.6073742  80.2433014  76.0668534  56.0355605  85.2928162
  76.3879746  56.9299544  85.4076004  76.8063516  55.4816283  85.5428886
  48.0438805  82.3751831  88.9124775  48.6412096  82.3066425  88.1676674
  47.8890848  81.4691067  89.1795158  41.9244337  99.0427208  37.4743462
  41.3771963  98.9027309  36.7015815  41.3010740  99.1844559  38.1867838
 107.7620715   8.1708849  50.6454086 108.1569117   8.2162512  51.5161991
 108.0116767   8.9943255  50.2260542  50.5449390  98.0239105  90.1252460
  51.4729786  97.8048515  90.2088356  50.5207062  98.7154770  89.4638920
  63.5207433  31.2750567  31.1317945  63.6233396  30.7944239  31.9531918
  63.5509175  32.1967734  31.3882518  91.2147015  47.9712809  56.5529203
  91.7589110  47.9633273  57.3403168  91.8051022  48.2590331  55.8566046
  38.0748820 107.2780037  29.3844557  37.6039433 106.5185356  29.7274685
  38.5003877 107.6622200  30.1509762  96.6057271   7.9735602  62.8583765
  96.9724721   7.1198500  63.0883789  97.3016757   8.4082926  62.3655367
  89.1873235  20.3090800  67.7114534  90.1349801  20.4431571  67.6974010
  89.0752286  19.3736971  67.5419664  39.6208072  79.5807457  41.8730974
  40.2098513  80.1352596  41.3614559  39.6124935  79.9791527  42.7434015
  65.2952051 102.4211884  62.9139519  65.9943581 102.9769516  63.2582426
  65.7531643 101.7141151  62.4594641  97.0646447   1.2089957  63.0470085
  97.0941323   2.1179808  62.7485037  97.6492661   0.7418192  62.4501848
  49.4442940  98.0526066  69.5339966  48.5629034  97.8816891  69.2020845
  49.3038797  98.4422302  70.3969622  82.7367896  26.5090979  84.9280357
  82.9659671  26.4596404  83.9999962  81.7860812  26.6201914  84.9343777
  91.9655055  12.7857150  41.7082787  91.6365212  13.1236685  40.8753395
  92.8056067  13.2277525  41.8310547  74.7935677 102.2975063  79.6833181
  74.8270893 102.6199532  80.5839443  75.6691980 101.9461250  79.5219755
  35.1152832  77.9885911   1.6426329  35.9616453  78.3741426   1.8690066
  35.2569801  77.5859689   0.7858614  97.9002494   2.0294035  40.6862879
  98.0801696   1.9159544  39.7530222  97.6801127   2.9565371  40.7768011
  21.3943768  72.8061914  85.3817272  22.0508575  72.9746199  86.0576725
  21.7189121  72.0330620  84.9200153  77.9814786   7.3745955  37.8196740
  78.2441062   7.2874678  36.9033408  78.7130302   7.8301848  38.2362127
  50.0950003  77.5658321  42.3476267  49.8875666  76.6568184  42.1310520
  49.2458773  78.0072498  42.3667574  99.7563189   8.7157191  43.4802580
 100.3858203   8.2516707  42.9283381  99.1160172   8.0482138  43.7265825
  33.5520012  75.7519197  12.3847441  33.3482105  75.4530668  11.4985232
  34.3837864  75.3275918  12.5952582  39.6585631 109.0174580  48.3216667
  40.1707840 109.0708160  49.1285181  38.8415575 109.4723606  48.5261106
  40.9941483 105.0200653  42.8676176  41.4740276 104.2931461  43.2645178
  41.3925457 105.8044243  43.2448435  65.0667256   5.5768908  58.4989595
  65.9936875   5.7884730  58.3884859  64.9215502   4.8276747  57.9211807
  37.0623827 110.0060177  35.8523989  37.6630640 110.1690102  35.1251817
  36.2952209 109.6048260  35.4440594 112.7769298  34.6672667  64.0542221
 113.5147685  34.1078795  63.8115120 112.3347205  34.1893996  64.7558784
  24.7213615  12.6947440  41.7838049  24.3783248  12.0129336  42.3614645
  23.9666427  12.9695357  41.2630939  49.7268295 100.5901527  55.1775599
  48.7997246 100.7826805  55.3176975  50.1583910 100.8971405  55.9748936
  17.7837336 109.3548870  41.3059092  17.6867795 108.6402321  41.9352674
  17.5342882 108.9697456  40.4658651  74.1033620  13.3008517  86.0654545
  74.8028845  13.1914080  86.7095947  74.4127578  12.8275527  85.2931213
  34.5631433 104.8213482  75.0520992  35.3967786 105.0985241  74.6720171
  33.9016747 105.3043175  74.5566845  14.8852074  92.0947075  34.7943258
  15.4809892  92.8437328  34.8097181  14.2030859  92.3181820  35.4275727
   3.0911488 110.0499630  64.7736454   2.4379963 110.4506969  64.2000294
   2.5844044 109.7025299  65.5076218  85.1896495  18.6393298  76.1393881
  85.0154942  18.8668383  77.0527029  85.8256120  19.2922438  75.8469963
  64.0803051 109.2311478  46.8301105  63.4344578 109.7351933  46.3350821
  63.9483595 108.3270264  46.5447950  79.6372861   7.9168547  56.4711094
  80.5266160   7.6223982  56.6676426  79.4743937   7.6084937  55.5797005
  26.2369502   8.4917963  36.1313701  26.8589557   7.8106822  35.8755946
  25.7192958   8.0930079  36.8308258 105.1946038  14.4560565  49.9552870
 105.6699294  14.0394724  50.6741428 105.2585429  13.8319052  49.2323875
 110.2815217   3.0268801  14.4033980 110.7655209   3.8523901  14.4260323
 109.4689721   3.2126559  14.8740137 106.7214364  22.6789034  26.2987375
 106.6057795  21.7606104  26.0546303 105.9198684  22.9039706  26.7710352
  80.4128361  95.9022808  46.4596081  80.0167942  95.6624031  47.2973680
  79.6937799  96.2822437  45.9548140  50.9006214  94.7172546  48.1631184
  51.5046167  95.4504585  48.2807255  50.1497173  95.0964165  47.7063751
  52.6965809 106.4219570  67.7571726  51.9501066 106.6453552  67.2012043
  52.6138115 105.4793930  67.9019213  83.3217114  33.5920847  41.0749817
  83.4066981  33.9676512  40.1986504  82.5245112  33.9867724  41.4284325
  97.7543038  26.3920725  63.1190491  97.5324315  25.4611910  63.0974483
  97.6951569  26.6736353  62.2061110  10.6016315  29.2297686  57.0636940
  10.6547130  28.3324660  56.7346573  11.4363921  29.3708552  57.5103664
 104.2703456  12.8686083  55.7195425 104.4525737  12.9060496  56.6584873
 104.9163932  13.4554995  55.3265858 107.4852120  21.7533875  35.3187585
 107.0157617  21.4129448  36.0803008 106.9859272  22.5264692  35.0555277
 109.5319676  29.2683554  36.9971371 108.7013083  28.7931466  37.0174408
 109.3509703  30.0869155  37.4591255   5.4445368  48.9029980  38.9845610
   6.2324899  49.2179728  39.4274521   4.8107275  48.7696648  39.6893597
 108.0355334   5.2193040  66.9219351 108.6986213   5.9019804  67.0244026
 108.1225067   4.6809262  67.7085829  88.6878162  26.1611724  35.0681686
  88.7583023  25.4030633  35.6482863  88.3597499  25.8021903  34.2437077
 105.4059541 102.6200693  42.7844334 106.2797748 102.2741180  42.6028109
 105.2525484 102.4115001  43.7059498  98.9747267  41.6032934  43.3777571
  98.7005871  40.9791279  44.0496874  98.2582849  42.2364521  43.3324099
  13.2292795   2.4535480  53.2183504  13.4109509   3.3806983  53.0646610
  13.0574381   2.3957403  54.1582203  19.9023652  29.6869159  51.6929626
  20.5344296  28.9874268  51.8586206  20.4146504  30.3782701  51.2736464
  16.0465944   2.5307181  19.8426855  15.9728491   2.6666325  20.7873130
  16.7741919   1.9164509  19.7451699  26.8433738  15.1089239  85.5838299
  26.5585804  15.8760405  86.0804749  27.1576333  15.4648304  84.7526836
 113.7018260   4.4188857  24.4369364 113.4953755   4.3686074  25.3702521
 114.4239443   5.0450277  24.3847585  23.5394096  34.1687799  42.2144175
  23.7239027  33.3518291  41.7509699  22.6742887  34.0344977  42.6014137
  12.3226047   6.9077927  32.7138615  12.3952198   6.4845681  31.8583870
  12.6118207   6.2407094  33.3364248 116.3961255  94.5567154  49.3081522
 115.7442891  95.1472198  48.9304686 116.0082280  94.2688262  50.1345205
 113.7535393  97.7495681  34.5751500 114.6440064  97.8462373  34.2375803
 113.4469997  98.6473309  34.7027779  35.4224634   5.5907160  75.6668282
  35.5513191   6.0763592  74.8520994  35.1677823   6.2570184  76.3051128
 110.9029835  22.4947095  44.9434996 110.7941937  23.4407687  45.0402689
 111.7453688  22.3069024  45.3574419 114.8262098  18.2498419  81.9916534
 114.0240859  18.0763209  81.4989853 115.3217297  17.4326408  81.9380569
  91.3521408 105.7563435   2.0077430  91.8537127 104.9664234   2.2094443
  91.4463484 106.3051902   2.7862823   2.1956381  34.9916816  36.4666939
   2.5363135  35.2509189  37.3228288   2.9764402  34.8250437  35.9386683
  76.3997907 100.7068812  24.1748500  76.1471436 100.7437973  25.0973678
  77.3564819 100.6793003  24.1894436 113.3780899  25.7749772  51.6168642
 112.8473335  25.7895327  52.4133015 112.7396661  25.7593679  50.9038401
  24.5259976  25.5933166  36.4513159  24.0138483  26.2700272  36.0085988
  24.5482850  24.8651767  35.8303928  38.3072615  26.5134668  83.7706184
  38.4227252  25.8802676  83.0621338  38.3911419  27.3668265  83.3452129
  24.2916083  14.6267903  46.5842199  23.7258267  13.9702094  46.1779881
  25.1537013  14.2121994  46.6179848   5.8254325  23.0064559  29.8598766
   4.8864374  22.9075289  30.0171447   5.8810633  23.5755897  29.0922666
  15.8217156   9.0119195  38.0575371  15.4109788   9.7992086  38.4148932
  15.8959436   9.1853970  37.1191192  17.7850354  18.2292545  59.2623043
  18.5204732  18.3631945  59.8601532  17.0655680  17.9470909  59.8270941
   7.2723901  25.7911348  69.3078232   6.7300344  26.5747452  69.3974733
   6.9454616  25.1951885  69.9817657 110.1486152   9.6342361  65.0900412
 109.5352297   8.9988434  64.7208977 110.7330191   9.1117668  65.6393385
   4.3553987   3.4820303  76.2114239   4.7729927   3.3944243  77.0682621
   4.6359435   4.3407241  75.8949232 101.7084914  42.5765181  52.0970058
 101.3658446  43.2704401  51.5337181 100.9313768  42.1902895  52.5009251
  95.7108765  13.2905555  61.8024588  96.2431055  13.9351118  61.3360786
  94.8348528  13.6755753  61.8264341  97.9633659  50.0970078  67.1633244
  97.8411024  49.7999239  66.2616444  97.9773420  51.0520744  67.1010113
  30.6695390  43.2108641  31.0824776  31.5842295  43.2776308  31.3565469
  30.6440568  43.6389637  30.2267265  13.4729862  24.0933990  46.2093067
  13.0082965  23.4319448  46.7219257  13.3472943  24.9068975  46.6978312
 101.8393361  99.9174487  83.5172272 101.1186969  99.3163787  83.3284760
 102.0218741  99.7877740  84.4478607 111.2988108  28.8918209  48.9770651
 112.0929491  29.3265486  48.6662817 111.4134412  28.8331294  49.9255610
  69.1512209  56.2178373  11.7026687  69.3880039  57.0066500  11.2148857
  69.2732912  55.5037069  11.0770857  92.6268488   6.7570353  32.1177268
  93.4663444   7.1852970  32.2852755  91.9782406   7.4537444  32.2184014
  98.0758654 110.0607528  30.8803892  97.1202540 110.0056645  30.8786678
  98.2891380 110.5477371  30.0844026  26.9907784  27.7749777  53.4767914
  26.0554504  27.9596853  53.5621023  27.3337889  28.5072780  52.9646254
   3.0470908  49.8786163  76.6019154   3.5209134  49.0614271  76.7566013
   2.1235186  49.6365976  76.6702700   8.3958143  35.4919195  53.7223196
   7.6784772  34.9136066  53.4630680   8.1726247  36.3385773  53.3355522
 103.0302411  38.3312440  74.9288273 103.3098357  39.1335034  74.4878769
 102.4601381  38.6328959  75.6360865 110.2591794  15.1554430  28.5199618
 110.0736594  14.7024965  27.6973724 109.4344836  15.1193631  29.0045309
  86.8390250 105.0236516  33.6168122  86.4867842 105.8784198  33.3687615
  86.1655598 104.3994658  33.3465004 104.1681367   9.7596282  61.3637877
 104.2647987  10.4281962  62.0419502 103.2242304   9.7043902  61.2147236
  20.0723100  25.7890916  20.0935245  20.6241107  25.9321189  20.8624792
  20.5460644  25.1374841  19.5766127  23.5027909  14.7619307  50.5921793
  22.6751733  14.7808659  51.0727215  23.5947537  13.8521135  50.3093243
  80.8292111 108.9090136  68.9524412  80.0038325 108.4407767  68.8269949
  80.5739310 109.8284706  69.0276909  21.2553668  40.4821444  77.4690914
  21.2350702  41.2403870  78.0529499  22.1813631  40.3700924  77.2541332
 112.9007053  47.8531599  55.3925180 112.0591777  47.8087568  54.9385452
 113.3620920  48.5783815  54.9713230   1.6073641  29.7093368  76.2454033
   1.6128495  28.8640308  75.7963371   0.9861343  29.5944977  76.9645119
  95.7806760  81.1372471   9.1493559  95.2898365  80.5409336   8.5839194
  95.1923423  81.8806267   9.2815506  93.2883214 107.5074964  67.6703358
  93.1414234 106.7961909  67.0468807  93.4152877 107.0670559  68.5106468
  12.9434478  16.7703021  10.7275498  13.8700938  16.8901145  10.9354055
  12.5055742  16.7667353  11.5787172  68.4336620  34.6151090  47.5206041
  67.6821666  34.8935175  48.0440283  68.9349609  34.0462899  48.1048822
  39.4664073  24.1039515  29.4198775  38.6194968  24.5493054  29.3947387
  40.0680304  24.7087407  28.9856958 109.8916417  32.4742150  42.6339579
 110.1181620  33.1760216  42.0237207 109.6242868  32.9285479  43.4329128
   8.6723602  47.8638792  31.3721418   8.1446487  47.3256636  31.9621229
   8.0611473  48.5182190  31.0337758  20.8879590  43.5312986  65.1795912
  21.1290526  43.0793047  64.3710041  21.0233831  44.4586945  64.9850941
  74.0987891  93.9960371   6.8978171  74.3995828  94.0173875   7.8062682
  74.7851890  94.4485007   6.4075427  20.4053974  65.2579355  30.6873512
  21.0240388  65.6835032  31.2809896  19.6056771  65.1606750  31.2042832
  29.4107938  26.7699075  43.8741016  29.8671389  26.3518119  43.1439114
  29.0596890  27.5801587  43.5047102 102.9815667  10.1060069  37.0992684
 102.6220685  10.3127408  36.2365675 103.6511462  10.7740927  37.2460914
  17.2462618  29.4926357  32.8822875  17.5782347  30.3774977  33.0340981
  16.3937759  29.4787216  33.3173776   7.8164774  34.6690750  28.2379580
   8.0581778  33.7560558  28.3935452   7.7457225  34.7392178  27.2859573
  84.9872952  33.5890841   6.1779004  84.7211033  33.0016351   6.8852025
  85.1394611  33.0106282   5.4305953  18.8847971  24.5891833  70.4428959
  18.7243605  24.3529987  69.5292711  18.3829880  23.9489913  70.9474468
   6.8546104  23.1790066  44.5633507   6.2224352  23.3191204  43.8583994
   6.3791698  22.6595187  45.2116728   5.2148867  24.6452713  84.1129303
   5.4521096  24.3601751  84.9953556   5.7840371  25.3957963  83.9426041
  14.2189467  15.3191030  18.4278452  14.4271624  14.5775414  18.9961445
  14.4745016  16.0891914  18.9356709  33.8160682  64.3254995  24.1434002
  33.1309152  64.6284580  23.5475683  34.0966177  65.1146507  24.6068239
  33.6502814  62.9518700  68.4950018  33.9764500  62.0553589  68.5732079
  34.3085623  63.4008217  67.9645872   2.4626634   2.8724796  49.7428799
   3.0835927   2.8183967  50.4693460   1.6122265   2.6851448  50.1402426
 110.3486466  18.8671064  57.4690342 110.3257703  18.2641387  56.7259741
 110.2447557  18.3050597  58.2368469  98.3454716 107.5820919   0.8405633
  97.7630519 107.0732375   0.2765705  98.0388009 108.4842785   0.7497633
 100.5571514  30.6662965  19.5041788 100.9751743  29.8056126  19.4775081
 101.2309175  31.2490535  19.8544121  40.1377583   5.6716573  35.8757329
  40.7404137   4.9332255  35.7876778  40.6386709   6.3342071  36.3514900
 100.2104288  31.7699957  39.4609737  99.3168073  31.6758490  39.1311121
 100.1223438  31.7086411  40.4121351  64.5006143  89.7523080  39.9027562
  63.7488496  90.2236568  40.2617979  64.1206526  89.1393124  39.2733932
   8.7764871   2.7175671  21.5161562   9.6330374   2.4207601  21.2088132
   8.5283303   3.4091270  20.9026456  14.8858035  17.7030849  19.7084689
  14.2230940  18.3936024  19.6932065  15.1435077  17.6387239  20.6280756
  28.6071014  39.3053150  22.7548814  29.0530276  39.8839498  22.1363640
  28.6589432  38.4385562  22.3520470  16.7049026  25.2079821  36.0822058
  17.5606954  25.6366563  36.0727906  16.0756564  25.9287858  36.0552979
   4.9627739  26.4953899  55.0381422   4.2329079  25.8832812  55.1322269
   5.6187946  26.1835241  55.6615257 104.0941351  42.8635359  36.6901922
 104.2573398  42.0040226  37.0785666 103.1564313  42.8653765  36.4979982
  24.4858313  28.6123538  57.9705334  25.1572657  29.2483687  58.2172918
  23.6573696  29.0633559  58.1332541  22.9619586 103.7604677  53.8129663
  22.6081311 103.3259230  54.5889854  22.3038661 103.6114620  53.1340361
  23.6921167  15.9384263  43.4419870  22.9497194  15.3556955  43.2822847
  23.3381224  16.6293979  44.0018749   6.9719326   8.3473653  15.8447170
   7.8960651   8.5707778  15.7338178   6.9695199   7.6637405  16.5147042
  31.3042045  44.3408012  47.9745388  31.5791488  43.4286356  48.0672169
  30.5574298  44.3063021  47.3767328   7.5269610  73.9950132  19.0985942
   7.1019542  73.2501316  19.5237446   8.3892059  73.6659145  18.8447058
  30.4098725   5.4726148  37.4466515  30.0147486   5.2140939  38.2792830
  31.3409901   5.5732948  37.6444268  15.7062757  33.1048489  47.1316385
  14.9796855  32.6225185  46.7371082  16.2149775  32.4373341  47.5919437
  21.7401528  61.2468433  48.5616875  21.5319133  62.1811152  48.5600519
  21.0666180  60.8522987  49.1156864 104.2891961  16.7685282  48.3993578
 104.8712009  16.1299527  48.8113356 103.6973947  16.2416875  47.8622913
  36.5251946  55.9439135  48.6100483  37.4129653  55.8275270  48.9485025
  36.2980151  56.8452549  48.8385201  18.6992633  32.9016614  38.1256199
  18.3418989  33.5249686  38.7580824  18.0349219  32.2152877  38.0641937
   4.6911338  18.4049034  34.8797584   3.9832890  17.8508651  35.2087402
   5.3106534  17.7920461  34.4837379   0.6619082  42.2626925  37.0888209
   0.0014815  42.9273081  36.8929768   0.8096727  41.8185377  36.2538815
   2.7800557  42.9536009  72.6686049   2.8242573  43.1276226  71.7283964
   2.7598298  41.9989014  72.7347898 105.0786656  20.4032850  42.7776670
 104.1617447  20.3886485  43.0520248 105.5691844  20.5377603  43.5885572
  26.4330935  56.5794897  64.8290396  27.3154187  56.3452864  65.1169348
  26.3615322  57.5159550  65.0138235 111.4279383  69.8073196  50.5693197
 112.1125817  70.2584600  51.0632467 110.7911044  69.5400000  51.2320471
  51.0836506  66.8073606  50.0413465  51.2281513  67.2958851  50.8517170
  51.1909771  65.8899164  50.2923727  12.7804315  46.2408400  44.9607897
  13.2782674  45.8760929  44.2291117  11.9962978  45.6943607  45.0130224
  12.9050744  47.8744030  58.9349699  12.0158064  48.2268476  58.9698458
  12.7983999  46.9381332  59.1030502  91.0315185   5.5461437  17.9605293
  91.0780554   5.3971422  18.9049149  91.8770319   5.9355193  17.7375364
  28.1108046  45.1232576  51.9849396  27.4074531  45.5770206  51.5205812
  27.7051044  44.8205328  52.7973413  26.9077992  32.8367639  58.5332727
  26.7854214  31.9507003  58.8740730  27.8201604  33.0463362  58.7330532
  12.6163983  48.8213587  44.7236586  12.2394025  48.9585400  45.5927277
  12.8134036  47.8851461  44.6930933  94.4681411  31.0029078  52.5801706
  93.6438757  30.9581685  52.0955896  94.7416335  31.9170117  52.5036764
  55.8442861 109.0642367   6.3227896  55.5279678 108.6431418   5.5235056
  55.4751867 109.9468289   6.2907080  15.7773101  64.2217159  40.1119375
  15.3963315  63.4638166  39.6684527  15.0267851  64.6809340  40.4888487
  11.3216090   4.4847813  63.4210300  11.6421211   3.5828447  63.4172487
  10.6479323   4.4967183  64.1009188   4.8128060  43.0078983  43.2051945
   5.4306418  43.6715984  42.8985786   4.2081431  43.4870911  43.7717533
  32.2037268  20.2039456  52.2199965  32.1390438  20.3351951  53.1659460
  32.9183722  19.5760965  52.1136141  98.8958674  24.8108768  41.6323662
  99.6248692  24.6634150  41.0298347  99.3126052  25.0772595  42.4518776
 113.9234229  33.3576250  55.7958412 114.6110175  33.9811134  56.0297441
 113.3866134  33.2858372  56.5850925 101.6974240  37.0859981  41.8371344
 101.0244244  37.5120521  42.3679686 101.3290709  36.2278676  41.6269875
   8.6212385  10.0431359  47.9780483   8.7396663  10.8541799  47.4836636
   8.3149815   9.4096220  47.3291302   9.4760948  50.2694368  22.8597403
  10.3714800  50.3194189  23.1944346   8.9723444  50.8435678  23.4366632
  26.3206720  49.4057131  35.3263307  26.1591148  48.7154531  35.9695077
  27.2684813  49.5374680  35.3493547  15.7130110  18.3359659  47.8095055
  16.0541797  19.2302084  47.8223801  14.9807346  18.3500946  48.4257889
   9.5476353  47.0615816  81.1199284   8.6423689  47.2996664  81.3200283
   9.5035613  46.6606426  80.2518654 112.6442882  26.5332580  78.3636427
 112.9206028  27.4424434  78.2484770 111.7176336  26.5323353  78.1237650
  24.3918729  45.9236431  82.0241928  25.1747465  46.3271523  82.3990536
  23.8448167  46.6630602  81.7591858   9.1051078  52.5484228  63.6492205
   8.5028881  53.1914473  63.2749462   9.1762400  52.7952194  64.5713186
   7.4334639  19.4245982  56.0354424   6.6882443  19.5862281  56.6140223
   7.9326230  18.7359095  56.4745092   6.8647701  55.2564907  57.0968199
   7.5073379  54.7646856  56.5854788   6.0392165  55.1303434  56.6290808
  37.3698664   5.6618011  93.5529518  36.5776587   5.2102232  93.2618904
  37.4913859   5.3732735  94.4575024 105.4037439 102.1583538  83.7858295
 105.7542168 102.5452476  84.5881462 105.5645072 102.8184496  83.1115437
  28.7426925  23.7519121  33.3677649  28.8567519  22.9197001  32.9088044
  29.6015954  24.1716743  33.3196068   3.3854228  49.2549896  62.4356413
   2.8742683  49.8113108  63.0234003   2.7358451  48.8618231  61.8528080
  43.8434362  33.1336546  84.7539520  44.0805721  34.0361667  84.5407104
  42.8973627  33.0950594  84.6136475   7.0946622  43.0431414  28.3875585
   7.2582000  42.9626083  27.4478769   7.1789664  43.9797878  28.5659337
  90.6153184   6.3911378  56.4224958  90.1145392   6.6876984  55.6625605
  90.0591808   5.7283950  56.8320274 114.0081107  69.5139837  41.9761038
 113.1274080  69.8538017  42.1345949 114.3120732  69.2256975  42.8367615
  23.9089227  55.8954334  31.3762784  24.6474290  55.2954149  31.4802790
  24.2820716  56.7634201  31.5298772  17.4842119  53.5283566  32.2837758
  17.9489243  53.6794424  33.1068492  18.1744492  53.4965372  31.6213608
  36.5964866   7.9728973  19.1355121  36.8178034   8.8716865  18.8917303
  36.5595436   7.5012243  18.3034110  86.1049872 110.5115507  71.8403101
  86.9801044 110.3612644  72.1978235  85.9463524 109.7586844  71.2708712
 114.0151771  26.4644742  41.1180210 113.3655470  26.7929053  41.7395830
 114.1280201  27.1780419  40.4900694  12.5202835  12.0575142  41.0350180
  12.7736986  11.7990303  41.9211292  13.0582559  12.8265250  40.8467627
  29.3624043  56.5869808  64.4811010  29.9459457  56.7483902  63.7397099
  29.8808336  56.0516453  65.0818300  24.9892592  29.1786480  51.0509682
  25.9209180  28.9755416  50.9673548  24.9685645  30.0462246  51.4548397
  36.7089176  62.2791719  58.7825632  35.9460902  62.8568840  58.8065720
  37.1141315  62.3815966  59.6436882  16.5352499  38.6007404  24.9363017
  16.2217021  39.1306806  25.6691623  15.7481039  38.4055614  24.4278359
  42.3455048   6.4103615  57.3814535  41.7752647   5.8052802  57.8557205
  43.2309341   6.0906541  57.5547695  16.6440320  38.3975482  65.0742149
  15.8799386  37.8276706  64.9868345  16.5090716  39.0813947  64.4181871
   5.1254874 108.9829957  26.1305356   4.6278983 109.0994142  25.3211617
   4.4612390 108.8065802  26.7967820  38.1578064  58.5118580  13.9037335
  37.9831100  58.8303757  14.7893190  37.3355818  58.1063652  13.6284971
  21.5659285  31.3479900  50.3563881  21.9812846  31.0377407  49.5517445
  22.2289705  31.9002724  50.7706261   9.0815830   2.6033854  47.6088810
   8.4424704   3.2696921  47.8614712   9.4103038   2.8967547  46.7591095
 104.5992451  20.3838873  34.1843963 105.4028874  20.8984590  34.2592740
 104.8984163  19.5050359  33.9512706  20.1877213  21.6657853  18.0099165
  20.7178545  20.8705759  17.9567409  19.6825027  21.6716433  17.1969259
  19.6453357  29.4163823  78.1541204  20.1925707  28.7966204  77.6717758
  20.2004814  30.1877832  78.2680893 112.0897704  25.1151681  45.5438375
 112.3812437  25.6509876  46.2815189 111.1837679  25.3855824  45.3946161
  33.0324149   2.8841576  39.4887662  33.9306045   2.8364807  39.8162007
  33.1202126   3.2196972  38.5966134 114.1372305  20.8995581  35.1798296
 113.9133429  20.7540751  34.2606235 113.4500986  21.4815140  35.5044961
  11.0931170  32.3359227  15.9597766  11.6025901  32.5256634  16.7476010
  10.4928255  31.6390443  16.2248075  16.7551208  25.7213855  22.5053573
  16.5370774  25.0819135  21.8272972  16.2729442  25.4255581  23.2775140
  14.9473667  58.4051275  86.0218906  15.7751060  58.7735987  85.7131767
  14.8375547  58.7665272  86.9014168 110.2600246  48.5800314  46.4205790
 110.4758715  47.8322935  46.9778347 109.7003328  48.2144976  45.7354784
  24.9643016  59.3884945  55.0782394  24.8465562  59.6563673  54.1668653
  24.1026592  59.5103598  55.4769325  23.9668059  47.5655317  45.0011301
  23.2685280  47.9851866  44.4986057  23.6051846  46.7147350  45.2493382
 112.0107835  76.6934490  36.4454818 112.0933777  76.2915325  37.3102784
 112.7201634  77.3351765  36.4108729   0.2142402  32.4682188  15.5484378
   0.0786071  31.5422249  15.7493687   0.8004940  32.4657440  14.7917795
  13.5384738  48.8584614  81.6398621  12.9048884  49.3715096  81.1382866
  13.4486949  47.9682350  81.2997627  21.5425420  40.7498693  52.5035286
  20.7470918  40.2297831  52.3894835  21.3181400  41.3847160  53.1838560
 100.4054135  28.3435178  28.2644558 100.0490659  28.6877847  27.4454737
 101.3174754  28.6339450  28.2696247  31.4664698  56.4301252  81.3672543
  32.3680973  56.5525436  81.0700798  30.9379530  56.9193697  80.7367516
 110.2065211  68.0964899  29.1726661 110.4717534  67.4299765  28.5389137
 110.9186184  68.1159067  29.8120189  35.2400064  52.7003717  52.5610399
  34.4093657  52.8476286  53.0133486  35.2949715  53.4121370  51.9233847
 115.4854567  34.8843527  57.7617741 114.9065086  34.8230410  58.5215759
 115.8510376  35.7676792  57.8098822 115.2727483  42.1630812  67.7632332
 114.6008285  42.7466154  68.1157160 115.0950965  41.3172007  68.1745195
  14.3206024  22.2103524  41.8881226  15.0334287  21.6775060  42.2405195
  13.8771224  21.6350603  41.2647438 105.4613977  12.7996612  72.4437189
 105.9069079  12.0751965  72.8829288 105.8412557  13.5865951  72.8344584
  27.1214962  67.8938913  25.2131915  27.1459246  68.5091305  24.4803095
  27.3138976  67.0433712  24.8184323  32.6367545  12.1006668  70.6319094
  31.9058847  12.1481144  71.2482023  32.8612351  13.0143511  70.4557848
   6.9433933  13.0246639  74.7112465   7.3975480  12.1820688  74.7081995
   7.1370137  13.3980060  75.5711031 112.2586786   5.4136743  88.5657884
 112.8970777   5.5415906  87.8641363 112.0641767   6.2978162  88.8767518
  20.8697152  39.5554376  48.7475252  21.4174485  39.2749429  49.4806957
  21.3777614  40.2441120  48.3187485  24.6397972  36.4380550  27.3870111
  24.3844557  37.0811749  26.7256260  24.2313910  35.6220698  27.0978713
  14.3008208  37.1138954  64.7535658  14.0601432  36.8447709  63.8670683
  14.1725349  36.3284779  65.2854443 114.7569645   6.6600746  31.7082667
 114.6732574   6.1886269  30.8794355 114.1330075   7.3824525  31.6369939
  18.6533487  70.0371695  52.4582863  19.0315568  69.2033386  52.7374220
  19.3944311  70.6427813  52.4419165  26.0259700  29.4828606  64.6761131
  26.7527461  30.1033211  64.7314024  26.3363242  28.7080741  65.1447487
  15.3216994  18.3158231  33.4092259  14.9324429  17.6605892  32.8301072
  14.5857739  18.6492276  33.9225364   5.9324676  45.2915335  71.8076801
   6.5324301  45.3483391  71.0640097   6.1106002  44.4341421  72.1941757
 109.8345017  58.0138588  49.5544529 110.2934437  57.2044992  49.3296432
 110.5328458  58.6483431  49.7156382   3.5366914  52.8763914  25.9224081
   4.2315951  53.4790754  26.1871934   3.5914496  52.1566582  26.5510678
  38.2301617  23.5693502  44.4797659  38.1328654  22.8955293  43.8069153
  38.9835691  23.2844162  44.9968958  25.0983405  42.2699261  56.2322426
  24.6026468  42.0077324  55.4565001  25.8988476  41.7465782  56.1931467
  12.3023057  58.9369392  83.1036472  12.0522511  59.4624376  83.8636208
  13.1985199  59.2102575  82.9078674  28.2127380  19.0889490  41.2356949
  29.1656399  19.0983760  41.3257980  28.0145836  18.2237399  40.8773947
  43.7829018  16.3039637  29.6633387  43.8943052  16.7226744  30.5168629
  43.5945129  15.3882003  29.8685670  20.0367379  38.7394667  44.5390606
  20.4039860  39.5882344  44.7859573  20.0031710  38.2455730  45.3583145
   2.9761046  38.5269332  17.5946379   3.6587012  38.6002159  16.9276130
   2.2928268  37.9993057  17.1811473  11.8008435  48.3254528  37.1792555
  11.8842494  49.2602205  36.9908738  11.4836478  47.9435682  36.3608527
 105.7909756  56.9881487  24.7499180 105.0340932  57.2527695  25.2727342
 106.5223294  56.9935989  25.3674316  99.2857748  27.9716086   4.1295198
  98.5749334  27.6039696   3.6043751  98.9958387  28.8600302   4.3365887
   3.6803603  41.5929842  41.1226606   2.7358407  41.4817619  41.2310314
   3.9644441  42.0261002  41.9276047  67.0228666  97.7101384   6.2390284
  67.7721256  98.0989562   6.6903262  67.4086398  97.2193013   5.5134348
   6.5354985  59.5120764  47.4945402   6.1050606  60.3606510  47.5988483
   5.9009695  58.9789057  47.0156527 113.0339196  32.5914621  47.7184200
 113.2546561  31.7250443  48.0602264 112.4600195  32.9721236  48.3832264
   6.0686278  38.2306933  41.2511444   6.9740939  38.0297112  41.0145617
   6.0545957  39.1817427  41.3585567  16.0537028   2.6061305  40.9079885
  16.5322232   1.9344887  40.4220390  15.4942334   2.1140848  41.5089178
 113.4063196  75.5914593  24.0831065 113.5632646  74.6479607  24.0455127
 114.1401928  75.9756374  23.6034513 116.3228537  11.7862201  50.2091169
 116.4466319  11.6764510  49.2663193 115.6197297  12.4312866  50.2848673
   4.4421238  41.2152338  57.2754049   5.2873456  40.8437157  57.5279999
   4.0201300  40.5247068  56.7642069  20.1767230  47.4274302  38.8329387
  20.9159231  46.8230009  38.8998413  20.5697823  48.2964230  38.9141369
  99.4199937  33.3431053  60.1215696 100.1951938  33.8910103  60.2444410
  99.4046109  33.1569743  59.1827631   5.5399859  67.9511070  52.7698135
   5.9303033  67.4639559  53.4954643   5.7774115  68.8629532  52.9383183
 110.4398971  40.9728622  92.6605701 109.8494559  40.5114222  92.0650196
 110.7229024  41.7432785  92.1680260 108.6242395  39.1296172  39.7060084
 109.0901339  39.8599339  40.1132059 108.1389838  38.7244964  40.4247808
  -0.2921198  58.4858370  51.2773895   0.4239902  59.0643835  51.5394926
   0.0367722  58.0347300  50.4998493   3.9791298  15.1961935  46.6780090
   3.1548268  15.1739562  47.1640778   4.1146252  14.2919588  46.3947582
  18.5105014  47.0551777  36.8132710  19.1605961  47.2968769  36.1535811
  18.9759409  47.1288061  37.6464438  10.7319379  64.7731447  25.7518291
  10.1561069  65.3599930  25.2616644  11.5293467  65.2833176  25.8935809
  20.4534316  16.0778451  64.3617773  19.9083006  16.8518734  64.2205572
  20.6682014  16.1030316  65.2942324   0.7756523  37.2865176  16.3506293
   0.3720907  36.4795375  16.0310113   0.0376651  37.8314829  16.6237962
  32.4543858  19.5714974  33.0785036  33.0474710  20.3128386  33.2005572
  31.7510533  19.7208977  33.7103510   4.3838796  60.6058407  76.1480904
   5.2868730  60.3196573  76.0104942   4.0868765  60.1046515  76.9075823
  23.5129690  35.8282447  51.0946846  22.7705622  36.2865043  50.7009029
  24.1393089  36.5215087  51.3028049  96.1796218  53.8317490  41.8145418
  96.8229275  54.0586853  42.4860239  96.7008072  53.4809971  41.0923433
 109.6502852  34.1343307  40.6227732 110.3001838  34.1027689  39.9207282
 108.8130760  34.2349219  40.1697874 105.5613809  25.9819365  22.6883125
 104.9699944  25.6081200  23.3415771 106.3683980  25.4750514  22.7778864
  17.1216738  13.3456695  13.8046014  16.9082916  13.9664233  14.5012820
  17.4943984  12.5916576  14.2615211  99.0463906  34.9115539  47.1752262
  99.6592777  34.5278263  47.8024054  98.2010108  34.8918700  47.6237583
  30.9721184  56.5038347  41.9934797  31.4842200  56.5626240  42.8000307
  31.3968801  57.1181202  41.3947630  41.7731953  25.3234649  75.6232500
  41.7233562  26.1916161  75.2231741  41.6119480  24.7170258  74.9004316
  98.7397104  43.3271885  67.1100283  98.8098734  42.9840040  66.2192249
  98.2691210  42.6473093  67.5922537  30.5871677  20.7377553  44.2263508
  31.3364673  21.3325572  44.2578697  30.5683184  20.4239678  43.3222437
 107.3631668  50.2917528  58.0795479 107.3533093  49.9846411  57.1730042
 106.7015761  49.7585583  58.5202694  94.4936710  91.4169788  76.0999775
  94.6581345  91.1247730  76.9965267  94.6256691  90.6343174  75.5649567
 101.9333380  13.4312475  76.7569399 102.4942415  13.9398658  77.3425388
 102.4802643  13.2600665  75.9902573  87.8087717  48.7890291  52.7574539
  87.1202975  48.4805918  52.1683025  87.6968461  48.2659388  53.5512352
  15.6239927  43.5584927   9.2630619  15.1515639  42.7880669   8.9476395
  16.3320374  43.2021904   9.7996771  17.6023841  43.1709099  86.3450050
  17.9525256  42.6907492  87.0953941  16.8321061  43.6235523  86.6885376
  23.5223460  40.7649231  39.5043778  24.1364717  40.4132509  38.8598561
  23.9798760  41.5132046  39.8877525 103.8807076  35.8586502  58.3946562
 104.5290142  36.2031293  57.7804375 103.5158389  35.0919318  57.9527903
   6.2751681  40.6358385  40.0515890   6.1759591  40.4805994  39.1122890
   5.4178751  40.9549332  40.3334761   6.2974137  15.1382840  71.0146284
   5.7246822  14.4474602  71.3477564   5.8350217  15.9514201  71.2176943
   3.6833674  33.0342579  40.1556683   2.8074586  33.4153819  40.2169943
   3.8195544  32.6094413  41.0025549  18.8044405  40.1913309  53.3967209
  18.0516064  40.7038879  53.1021738  18.6845934  40.1118374  54.3430567
  11.3603413  33.7830710  50.3068829  12.0633149  34.4258714  50.2127218
  10.6543827  34.1174150  49.7536516  20.3501129  39.6062875  65.6233072
  21.2981701  39.6068478  65.4913330  20.1659727  40.4475069  66.0412502
  11.4293301  32.2279072  60.0442410  12.3005581  31.9796920  60.3534079
  11.5786242  33.0053306  59.5061398 107.2909444  21.9874263  55.5439329
 107.9732477  21.3630438  55.2972698 106.6432422  21.9241166  54.8420000
   8.9581347  26.4555359  18.5982907   9.5470387  26.8940306  17.9841673
   9.2472053  25.5430293  18.5972607 108.4974235  33.6479020  52.7401638
 109.3883663  33.3161688  52.8515387 108.0077856  33.2690811  53.4702206
  18.7848973  58.2955647  44.9638796  18.8563120  58.7241077  45.8168030
  18.2054973  57.5494862  45.1184559 116.1722445  45.7450581  49.9825621
 116.5759364  46.6079998  49.8898220 116.5546890  45.3865480  50.7834578
 101.8500548  64.0947342  30.7501626 101.2116688  64.0505123  31.4620185
 102.3301619  63.2686234  30.8073401  21.1861110  54.6654177  55.0959301
  21.3465428  54.0630007  55.8222818  20.4727530  54.2608356  54.6023083
  14.1104674  28.6943650  67.5704241  14.8927903  28.2524920  67.2403526
  13.7793636  29.1876292  66.8198967 112.2938290  17.7447152  29.3693161
 112.4964940  18.1506860  30.2121377 111.4373403  18.1001794  29.1320324
  36.0876918 105.8089362   2.3506503  35.9102288 105.2264796   1.6120772
  37.0400211 105.7919989   2.4455885   3.7713751  26.0986233  78.0566740
   4.1055611  26.6107082  78.7931013   4.5534873  25.7263756  77.6492882
   9.6838921  13.1296885  55.4779100   9.3439710  12.2388303  55.5619192
  10.5608821  13.0883682  55.8592415 115.1306556  58.8618135  45.9833527
 115.9075868  59.3159103  45.6571579 115.2423775  58.8486242  46.9339180
 116.4650506  56.2170172  66.8773746 116.0796306  56.8264627  66.2478828
 117.1823644  56.7081976  67.2779226  21.9129038  34.9582267  61.1945009
  22.5306344  34.7188997  60.5035877  21.7232609  34.1337872  61.6423464
  30.6144571  37.2148705  18.6392963  30.0185418  37.7990675  18.1704330
  31.4876413  37.5509143  18.4371746   6.4152139  26.4517665  13.5621822
   6.4399076  27.3600221  13.2610250   5.7595813  26.4484143  14.2595816
   4.4558343  32.1148467  59.8502779   5.3594995  31.8085122  59.9263048
   4.1969609  32.3224211  60.7481241  35.9209609  17.3273790  23.0101418
  36.7506957  17.2719228  22.5361228  36.1752295  17.4605918  23.9232874
  27.5526953  18.6145985  61.0218430  27.8496242  17.7164221  61.1679459
  26.5975642  18.5588193  61.0509109  93.6200833  92.9874562  21.9002247
  93.2313477  92.1732592  21.5805387  93.1822597  93.1500100  22.7357578
 106.9219320  26.8639255  65.3361654 106.8325585  26.8353868  64.3835735
 106.6824167  25.9835601  65.6256819   1.6291752  30.9719753  56.8038559
   1.3444823  31.8707299  56.6382599   1.2262125  30.4600358  56.1025953
  26.9396830  44.0605307  57.1860600  26.2700605  43.4342527  56.9110727
  26.8760777  44.0752983  58.1410313  11.2419248  65.4589081  45.3432369
  10.6108570  64.8577309  45.7389307  10.9033215  66.3304853  45.5480099
 115.2456746  27.2724319  75.9165907 115.0810003  26.4178133  76.3150167
 116.1657688  27.2412229  75.6545162   5.4404831  11.6729677  59.5042086
   5.0870097  11.6443264  60.3932905   5.1552361  12.5194502  59.1602087
  18.4576035  34.2990017  73.4830570  19.1653681  33.6564994  73.4331608
  18.6122167  34.8837614  72.7411795  25.2792358  83.3809471  52.2327614
  25.8502889  84.0142632  52.6675510  25.6549120  82.5286674  52.4534893
  16.7780590  53.1767273  44.6985483  15.9587872  52.8302193  45.0520372
  16.6447210  53.1867123  43.7507343  11.8071210  28.4741330  48.8746643
  11.0032487  27.9547191  48.8897657  11.6630924  29.1574526  49.5293140
  26.3591456  21.6529846  51.0453415  26.8174076  21.9413900  50.2560043
  25.8911681  22.4310565  51.3483858  17.0773089  37.2732186  47.1966314
  17.9979396  37.3279524  47.4529028  17.0313907  36.5018439  46.6317415
   2.3357032  50.4172516  35.7695842   2.4394135  51.2657976  36.2002158
   2.7549860  49.7944832  36.3633776   5.2692801  73.0007887  15.3615892
   5.7929289  73.7331295  15.6866992   5.3431511  73.0578232  14.4089496
   7.3108906  49.2461681  66.8069553   7.0351297  49.5073366  67.6855803
   7.8663731  48.4795475  66.9482470  86.1024075  17.3403382  57.7443027
  86.3096648  16.9217706  58.5798120  86.6393738  18.1326663  57.7336359
   6.2211984  71.4896870  74.6161747   5.5587697  71.4701986  75.3068590
   6.7426419  72.2695303  74.8063564   2.1843879  14.0616655  34.7739458
   1.3254112  13.6400211  34.7493100   2.7890360  13.3595681  35.0141382
  20.8285427  22.8104568  56.4663887  21.0049438  22.3238659  57.2715902
  21.5769362  22.6181006  55.9014702 106.2754946  35.8340383  64.8030472
 105.8011847  35.0324535  64.5823145 106.7518907  36.0582829  64.0036774
   0.0976594  60.7072592  72.2967577  -0.1627086  60.6630754  73.2168055
   0.9765813  60.3286028  72.2781229  14.8981357  41.6691971  33.3292961
  15.4447556  40.9534693  33.6536026  15.2749741  42.4558973  33.7234116
  18.0018175  66.7383957  55.1714897  17.5675809  65.8902216  55.2624655
  18.2892978  66.7636204  54.2588282  25.9370375  72.8731203  34.5011425
  25.2216744  72.3363686  34.1599894  25.5664635  73.7533379  34.5653272
  21.2160373  20.4674220  14.8224235  20.9991908  20.6854653  13.9159656
  20.4808283  20.8067751  15.3328526  22.9930806  37.0768189  83.1175423
  23.0258346  36.5512800  83.9169025  23.8226247  36.8937993  82.6764202
  22.9049063  55.2180386  77.0821857  23.7083387  55.5099106  76.6514492
  23.0418205  54.2833233  77.2364426 116.1112338  30.1796818  16.5419257
 115.9496302  30.4783416  17.4368656 116.9927286  29.8075795  16.5691054
  16.1656225   3.2840809   7.5782824  16.9564486   3.7086803   7.9107630
  15.5696130   3.2678521   8.3271080   9.5672888  61.9660616  80.0824833
   9.4748509  62.8938150  80.2991772   9.3454623  61.9139910  79.1528034
  69.0664148  56.4766455   5.2037448  68.6221075  56.6877794   4.3826190
  69.8145914  57.0730543   5.2314633  15.6573820  53.5977268  35.4538202
  16.5440965  53.3262062  35.6909800  15.0867152  53.0427551  35.9853983
  19.1143870  12.1539140  54.1383791  18.7912488  11.6503215  53.3912468
  19.7671211  12.7455997  53.7641096  50.0435036  98.3775664  85.7878180
  50.2034490  98.7688876  84.9290307  50.7752817  97.7740002  85.9160413
  23.5631609  53.7400818  44.4381428  24.0423870  53.7851715  43.6107731
  24.1123676  54.2182398  45.0594044 112.0258411  59.4561720  25.8572793
 111.8133479  60.3486538  25.5842352 111.1753863  59.0363550  25.9865499
  38.3845234  77.7294731  22.4096107  38.2792807  76.8866730  22.8510237
  38.0613422  77.5767899  21.5216517  23.2624722  51.6785717  61.2995911
  22.3739266  51.3233995  61.3234758  23.4926701  51.6856861  60.3705120
  33.2790613  71.0482168  17.9867363  32.9409027  70.6268501  18.7768805
  32.5077105  71.4357471  17.5731325  23.7212205  54.7388792  57.4366760
  24.6330762  54.7657299  57.1467972  23.3135676  54.0725040  56.8835115
  37.8495145  49.4463634  91.2434673  37.6210189  49.6142578  90.3292274
  37.0747900  49.7151470  91.7372131  33.4717870  70.5590725  45.2764606
  34.1924453  70.9092665  44.7527742  32.7259278  71.1196375  45.0627041
   5.3360170  47.7452135  43.1422997   5.5731970  48.5991192  42.7805996
   5.0364858  47.9364061  44.0310955  26.0084605  42.1083260  66.9700432
  26.9320798  42.3549700  66.9218636  25.7456613  41.9847441  66.0579586
  32.7025819  36.5200853  52.0292521  32.4179792  37.4339700  52.0223761
  32.1985388  36.1069775  51.3281727 103.5325568  24.1009307  54.3567610
 102.5819998  24.2130923  54.3470716 103.7745410  24.1873479  55.2788258
  26.4217544  56.4796448  45.0507164  25.9530210  56.7736483  44.2696333
  27.3347592  56.4126778  44.7711229  19.3485308  47.6702642  58.7140942
  19.8848939  47.9448271  59.4578409  19.6952844  46.8113041  58.4728765
  22.7229190  20.6325746  70.9644365  22.3269963  21.4224696  71.3325977
  22.1659613  20.4110026  70.2181530  21.4636898  52.6431417  33.5038757
  21.7179704  52.8155184  32.5973129  22.2903204  52.4772644  33.9570880
  24.5324254  38.9356756  78.7884235  25.2199817  38.2874584  78.9411068
  24.4818473  39.0112638  77.8355503  25.9267139  40.9352827  26.9803476
  25.3869820  41.5608501  27.4636555  26.6588211  40.7468319  27.5674915
  27.8767157  63.0373430  59.5805693  27.4783874  63.2592821  58.7389612
  28.7986016  63.2741213  59.4790936  95.6890779  54.8098660  18.6012685
  95.6882983  53.8674116  18.4339201  96.5247637  55.1151323  18.2481742
  24.0723658  40.2549839  67.9597664  23.4633446  40.4610682  67.2506428
  24.9179506  40.5809259  67.6515722  18.1493354  49.7156191  53.2384014
  17.6908243  48.9425087  52.9093122  17.5850332  50.0501156  53.9354706
 100.8954864  46.8415260  12.2252715 100.1863759  47.4104452  12.5248146
 101.6871815  47.2285891  12.5989461   5.9625649  19.2351174  85.6218052
   5.2760476  19.8867965  85.4795361   6.7796105  19.7290015  85.5529022
  17.2902775  89.5338345  82.9555321  18.1182432  89.6176338  82.4825859
  17.4679387  88.8848019  83.6362934  20.3907800  69.3258905  68.6575127
  20.2825689  70.2476311  68.4231663  20.5801439  68.8883638  67.8274870
  33.3079553  69.0560484  57.4231052  33.4669542  68.4581709  56.6927004
  32.8188825  69.7821951  57.0361328  99.6423476  66.8214130  46.5865707
  99.2112785  66.6835594  45.7431221  98.9232093  66.9534063  47.2043467
  24.3197680  90.1210785  25.8325243  25.2115417  90.4363537  25.6856322
  23.9295077  90.7703781  26.4176154 116.7521810  22.6227355  90.7647705
 116.1341184  22.9742050  90.1239109 116.3302183  21.8292689  91.0942936
 115.1647995  58.9719677  70.7407951 115.0521305  58.4954548  71.5632725
 116.0321674  59.3705463  70.8117914  19.7672081  68.0571413  62.2417641
  20.4886484  67.4673891  62.4607372  19.7966361  68.1276083  61.2876177
  23.3990097  51.6703081  52.5561380  22.5032949  51.3977528  52.3570299
  23.8382339  50.8660269  52.8326273 114.7669319  57.6896429  60.9027290
 114.6303836  57.4414110  59.9884176 114.4478964  56.9396830  61.4047337
  36.1285686  23.7905335  77.6654911  35.2612925  23.4200907  77.5016642
  36.7074728  23.3189678  77.0665503 108.4354358  43.1759596  61.5650129
 108.7528800  43.7135410  62.2905922 107.9504471  43.7860012  61.0092545
  14.8463511  78.0304050  67.6524734  14.5396554  77.3998117  67.0009184
  14.1097581  78.1288624  68.2557726  50.6256628  65.9422684  92.5057030
  50.8325481  65.0127077  92.4090290  50.1245403  65.9927177  93.3196831
 103.3412235  77.8913212  53.4859610 102.6107591  78.3165836  53.9351892
 102.9894179  77.0474911  53.2023764  43.3399296  32.3745418   2.8164017
  44.0337849  31.7207909   2.7303469  43.7947798  33.2150507   2.7626505
  11.7720366  80.3015232  82.4627209  11.8864679  81.1617947  82.8665543
  10.8244336  80.2059746  82.3670673 102.3420482  31.8019843  66.8459415
 102.0908945  30.8840275  66.7434168 101.5488630  32.2332382  67.1639204
  26.7259312  58.7093067  28.4964085  27.5603342  58.3676434  28.8177633
  26.1574507  57.9411030  28.4423137 108.3007848   3.5347594  89.7008379
 107.7549063   2.9888143  90.2666934 109.1116440   3.0367221  89.5973988
  53.4654379  67.9427671  33.9686894  52.8183079  67.3336077  34.3241858
  53.5786963  68.5996866  34.6556139  24.2777014  44.4795990  63.5148573
  24.6459246  45.2938461  63.1718588  23.4538102  44.7432470  63.9246464
  30.6339240  40.6176090  25.8540130  29.8999357  40.0072193  25.9241343
  31.3842964  40.0656080  25.6338692  28.9510131  51.3403177  59.0407896
  28.3248997  52.0255327  58.8069153  29.8084497  51.7499161  58.9256334
  13.4299576  58.0822754  26.9086552  13.3869052  58.6245203  27.6962757
  12.9430699  58.5775614  26.2499738  19.2580366  53.8256121  34.5951939
  20.1721144  53.5445690  34.5538402  18.8628256  53.2585239  35.2573514
  43.9401960  57.0716047  81.6271400  44.6546364  56.5299749  81.2918091
  43.6305285  56.6055918  82.4037743  32.6845074  39.4798446  49.8709631
  31.9548893  39.3190384  50.4693174  33.0103731  38.6072040  49.6506453
  17.7518559  27.1307707  19.8928845  18.6159694  26.7291570  19.8020899
  17.4463224  26.8492818  20.7552338  26.4128470  64.0974188  28.3777165
  27.3533368  63.9203691  28.3967757  26.0064220  63.2310534  28.3562064
   3.2641363  74.0569973  12.9795694   3.4436351  74.4747066  12.1372318
   2.7850640  73.2595444  12.7542019  22.8583598  44.9765205  45.7820415
  22.4481821  44.4182968  45.1214504  22.1419239  45.2198267  46.3683462
  41.3248348  55.0164890  66.6518927  40.7089663  54.3063736  66.4711285
  41.1087847  55.6907034  66.0077000  25.6595087  59.9031973  42.5636816
  24.7842026  59.7072506  42.2295046  25.6025100  60.8089685  42.8679276
 112.9675120  49.1137123  52.2614813 112.2413670  48.6713600  52.7011013
 112.5920855  49.4326067  51.4407539  19.5316350  35.5147338  59.7926188
  20.3572464  35.5728459  60.2734756  19.7854495  35.2311611  58.9143276
  48.9256620  77.9440308  34.2260671  48.2525539  77.8082848  33.5591817
  49.3028164  77.0754623  34.3659687  57.2977161  59.1589975  25.4325938
  57.4018288  59.5584822  26.2961912  57.0630169  59.8878813  24.8582458
  38.9414835  53.5667467  85.0621605  38.7520814  54.4901991  84.8960495
  39.6817183  53.5794401  85.6688881  20.7639670  22.5730777  52.8293085
  20.8761168  21.8042779  52.2701979  19.9834311  22.3797870  53.3485699
  38.2279611  54.0677595  59.8388958  39.0286636  53.5736513  60.0148726
  38.4160566  54.9502945  60.1582432   5.6426907  53.7898350  50.0520802
   6.3101202  54.2363739  50.5730152   4.9504641  53.5797882  50.6789255
  26.7202187  49.3780470  60.1190186  27.2118473  49.4202042  59.2988014
  26.1768985  50.1660872  60.1133776  28.0068016  42.1302986  46.7420816
  28.8044143  42.0104837  47.2575378  28.0666232  43.0272388  46.4132309
  12.6929021  58.4654713  60.7822800  11.8312073  58.8762188  60.8529902
  12.5555587  57.7197647  60.1980782   3.3096302  45.3988504  57.8384781
   2.4987757  45.2909374  57.3413849   3.4041673  46.3459635  57.9398584
   8.5798305  39.8476839  24.1112733   9.3216717  39.9107480  23.5096693
   7.8863293  39.4378567  23.5942340  61.5383768  51.3462114  85.4856968
  62.1996689  50.8362961  85.0178146  61.9959307  52.1429968  85.7540226
   8.5068798  39.1720343  94.4811153   8.8444895  38.2988834  94.6807671
   9.2793447  39.7370601  94.4976425  26.2471700  92.1251965  32.4533725
  26.5959716  92.9492664  32.7931976  25.3373432  92.1096134  32.7503633
  22.6108670  36.9491553  47.9519081  22.5506759  36.1909938  48.5331106
  23.4684086  37.3294234  48.1423044  41.9583941  60.1238441  61.7699242
  41.7560244  61.0520983  61.8866587  42.2364855  60.0523233  60.8568096
 114.7525252  44.0895796  16.7135799 114.5968711  45.0026798  16.9549322
 115.6281039  44.0899897  16.3268065  22.0205450  52.6424074  40.4135942
  21.8183160  53.5192204  40.0871992  21.2596583  52.4022865  40.9423923
  25.2958870  36.9467378  29.8544359  25.7993960  37.7606940  29.8680115
  25.1811242  36.7515779  28.9243960  16.6233957  49.8719597  45.6654358
  16.0193193  49.3312216  46.1742830  16.1341023  50.6752014  45.4876041
  15.9982681  30.2535295  54.7756577  16.1002898  30.9483719  54.1252613
  16.5830529  29.5574117  54.4761944  43.4877968  44.7025108  14.1067290
  42.7334929  44.2307615  13.7535870  44.1288853  44.0185595  14.3002534
  21.1300182  58.7605429  37.7530265  20.4879761  58.4799814  38.4051728
  21.9770885  58.5409832  38.1409669  99.3987196  43.1311607  48.6105061
  99.4888883  42.2152472  48.8735723  98.4587889  43.3041954  48.6636353
   5.0259209  36.9846892  62.8401470   5.2221996  36.5947628  61.9882870
   4.4107759  36.3744402  63.2468748 115.3117477  80.7928276  66.1081171
 115.4730109  80.8457565  65.1660824 115.5997695  81.6398811  66.4483786
 111.8228858  41.9093895  48.5832357 111.2256199  42.4628448  48.0800533
 111.7321968  42.2171831  49.4850492  44.9398232  33.5771990  42.4632502
  45.6478310  33.0489540  42.0945883  45.0356388  34.4322968  42.0438957
  94.9657344   0.5432119  82.3993249  94.1499018   0.0425662  82.4014266
  95.6545936  -0.1213990  82.3998006 107.2207176  50.5363226  71.6100311
 106.5815907  50.5411577  72.3225784 106.7837947  50.9962940  70.8932638
   5.7188076  69.5452547  72.7000666   6.1406285  70.1695681  73.2904339
   5.6135720  68.7521791  73.2256031  22.6368332  74.3900728  40.6205940
  22.1114922  74.8561192  41.2710142  23.3232474  75.0113010  40.3773975
 103.9061981  65.1236629  54.2123270 104.3704432  64.9981165  53.3847141
 103.0025202  64.8731136  54.0204382  34.3968415  83.8435268  51.1193275
  34.8502326  83.5003662  50.3493214  35.0987172  84.0688133  51.7299366
  16.1942458  44.0302324  69.9970531  16.1235845  44.4569254  70.8509684
  15.7290292  43.2006311  70.1046181  21.5982223  76.0636473  65.7318354
  21.9474554  75.2136993  65.9998941  21.5880942  76.5828228  66.5359449
  30.0173593  59.3757582  32.3772097  30.6783962  59.6579599  31.7450523
  29.4529986  60.1404524  32.4911022 115.8065669  14.3771899  89.5886993
 116.1131191  15.1795876  90.0110912 115.1144188  14.6683848  88.9950943
  24.2390108  65.5407619  41.7714357  25.0234389  65.0683975  41.4925385
  23.7937450  65.7685518  40.9552956  22.7139449  56.7601395  42.0944738
  22.3073745  56.7077637  42.9594517  22.2858167  56.0710382  41.5864611
 109.7382384  29.1396165  75.4201889 109.5317929  30.0622320  75.5698395
 109.5850181  29.0086198  74.4844580  31.5791965  68.5348892  85.5967808
  31.6676068  67.7421236  86.1258698  30.6505656  68.7595272  85.6552315
 113.9893001  21.6731238  32.5980473 114.0673238  22.5976491  32.8334141
 113.1825420  21.6237736  32.0852733  26.6976452  44.4147062  54.2215395
  27.0970964  43.9349890  54.9471712  25.7824254  44.5221996  54.4804716
 115.4765599   9.3507826  62.9773188 115.2918265   8.5397136  62.5037432
 114.6184851   9.7564042  63.1014585  25.0426507  60.3151369  21.0839319
  24.4615531  59.9200153  21.7338824  24.5033145  60.3942871  20.2971125
  20.3229594  32.5045991  71.6465425  20.8139563  33.0819798  72.2311687
  19.9357414  33.0930400  70.9984446  24.8752570  68.7808371  53.1873703
  25.7065105  69.2378616  53.3153486  24.7986698  68.2053804  53.9484310
  60.2430201  70.6691742  53.6985970  60.1632500  69.7951555  53.3165503
  61.0157251  70.6151438  54.2609501  55.4379034  66.6848993  18.0694759
  56.3314104  66.6264391  17.7311540  55.2870703  65.8406734  18.4946394
  45.0068617  64.2856503  15.6492579  45.1898193  64.5505857  16.5506816
  45.3918362  63.4125662  15.5733943  25.5987453  77.3140240  37.0446396
  26.1066675  77.7562428  36.3644266  24.8940158  77.9270220  37.2539759
   4.6764615   5.8470559  29.1417098   4.2816836   6.7096174  29.2696548
   4.2065623   5.4770583  28.3943605  37.5074005  16.9206369  25.4331684
  38.1120062  16.5666354  26.0853696  37.4232697  17.8462541  25.6620479
   5.0172943  40.3907061  44.5704222   5.4057193  41.0654688  44.0136003
   5.2362305  39.5663738  44.1359377   3.7058625  52.0026398  53.5299635
   4.3461567  51.3155270  53.3452129   3.2372308  51.6913700  54.3043852
  14.5301652  26.1609530  49.8728466  13.8229084  26.5350485  50.3982735
  14.1739178  26.1211824  48.9853001   6.0369128  47.9432440  19.1439211
   6.0591608  47.7831554  18.2004666   5.1068270  48.0394268  19.3486691
   4.4878364  21.8648314  82.0002842   4.3345180  22.2276378  81.1278725
   4.8534521  22.5935173  82.5018597  13.2178676  33.0784416  94.8319340
  13.9481497  33.6971855  94.8234081  13.5479307  32.3118925  94.3632221
  18.6380577  34.9046278  64.5472908  18.1528592  34.1324258  64.2565727
  19.5534849  34.6967912  64.3601322  71.2997532  50.3399038  25.3321958
  71.5518093  50.8411169  24.5566416  72.1266079  50.0080299  25.6820536
 115.1605048  60.8715296  13.1457770 115.1815389  61.7963028  12.8996432
 116.0800982  60.6347895  13.2663369  30.7576108  66.0968161  35.1649737
  30.1662898  65.5458784  34.6520972  30.8212423  66.9103813  34.6646786
  35.5989456  56.7227650  69.9585772  35.3908992  57.4286270  69.3464422
  36.4936662  56.4671040  69.7342062  31.5434694  69.8178673  66.7229462
  32.0112419  69.0241098  66.4633894  30.9215999  69.9727154  66.0119343
   8.6786324  23.5443258  62.4019527   9.4787723  23.3821201  62.9016495
   7.9921186  23.6146665  63.0652666  53.3033991  80.7982731  18.4642720
  52.7355242  81.4450359  18.8831341  52.9077530  80.6529903  17.6048577
 114.3875682  35.4520893  25.0840926 113.5696056  34.9567676  25.0413823
 115.0575751  34.7928977  25.2651668   0.7028209  92.8306484  45.5737305
   0.6131294  92.7149868  44.6277857  -0.1397494  93.1895638  45.8520985
  19.3703735  71.2820625  59.6260595  19.0632391  70.3867579  59.4834566
  18.5758865  71.8151855  59.5977736   5.8062035  33.1732059  52.4089766
   6.6392827  33.2592368  51.9455051   5.1521933  33.0979729  51.7141104
  91.7459446  55.4729986  76.3329458  92.6328188  55.4983282  75.9737206
  91.6071611  56.3500547  76.6903639  34.7639203  49.6824837  58.4415531
  34.5247293  50.5928230  58.2674789  34.5193744  49.2138004  57.6435804
  52.6602697  69.5107651   2.5749901  53.1205320  70.0078630   1.8987611
  53.3349609  69.3051863   3.2221100  31.7996144  51.1769724  55.4720831
  31.4245749  51.1142063  54.5936537  32.4404812  51.8851566  55.4088593
  20.3498507  59.0256929  21.1564541  19.6107829  58.7673092  20.6057715
  19.9982035  59.7131014  21.7221808  17.3872828  36.0768652  66.6756964
  17.2338939  36.9907689  66.4359331  17.8401971  35.7036400  65.9195185
  37.4188685  50.2289581  64.7738647  36.5978718  50.6842422  64.5870304
  37.3607278  49.4151449  64.2733002  33.8813257  62.7608919  64.6820116
  34.5465398  62.2116232  64.2672539  34.2876458  63.0546856  65.4973745
  28.9191341  69.5486021  85.7604599  29.0478230  70.4924536  85.8543491
  28.5814333  69.4401884  84.8713875  85.6935959   7.8828372  94.5453931
  84.8084610   7.8300227  94.1848667  86.1241924   8.5609235  94.0248002
 103.2199460  35.7567239  90.5767345 104.1113251  36.0842872  90.4568386
 103.2488518  34.8580217  90.2485180 116.1550351  17.3821723  41.1422873
 116.0440173  17.9562044  41.9001770 115.3251999  17.4464369  40.6695557
   9.5219970  47.6990795  20.2881908   8.7901825  47.1405220  20.0260997
   9.4873750  47.7060509  21.2447381  41.2837029  49.9699211  62.4595976
  40.3563118  49.7757483  62.3236847  41.6669035  49.9338675  61.5831900
  31.7112994  45.4131746  70.3897953  30.7830429  45.2400970  70.2329016
  31.9454837  46.0732365  69.7373343  39.3215132  94.9900341  51.4320755
  40.2658844  95.1267147  51.5076876  39.1838455  94.0939617  51.7392063
 114.7168973  55.6053114  74.8191500 114.1809228  55.8674240  75.5676603
 115.4776027  55.1741314  75.2085590   5.6367564  29.2374396  20.5045128
   5.3361833  29.3035078  21.4108920   4.8407671  29.3294287  19.9809003
  24.5735216  41.5009069  31.3337469  24.0104795  40.8156967  31.6938877
  24.0118527  42.2748470  31.2915611  91.3463145  68.9565086  77.7957296
  90.4928404  68.5805464  77.5801659  91.2355858  69.8971272  77.6571608
  51.6148949  47.2281361  33.9220786  51.4180326  47.3194408  34.8543549
  52.4126768  46.6998243  33.8963652   3.3619997  69.0050220  76.1676550
   3.9419651  69.5742226  76.6735029   2.4949256  69.3984270  76.2658787
  23.6072135  66.2930632  65.5632162  23.8803005  65.3757572  65.5488682
  24.4133735  66.7803288  65.7332468   8.1725204  60.0162315  42.7602625
   8.1281501  60.6628036  43.4646845   8.3225161  59.1837883  43.2083368
  22.8212094  96.9116592  45.8863974  23.4538960  96.3405800  45.4507303
  22.3884201  97.3788166  45.1717710  19.8446369  24.1123581  59.4299746
  20.2264571  23.3941841  59.9346256  20.5714321  24.4503140  58.9067316
   9.6514893  36.7086267  67.6095676   9.9969530  37.6010656  67.6305914
  10.0526023  36.2786698  68.3648682  27.9629827  77.5294590  21.8191957
  28.5346341  77.1783876  22.5019789  27.6141524  78.3392048  22.1918297
  36.3176680  33.4594703   1.7810531  35.3889441  33.3711052   1.5668260
  36.6651082  34.0412641   1.1050126  36.8697286  59.2515802  72.6093388
  37.2560239  59.6908808  71.8516970  37.4697661  59.4444942  73.3297348
  42.5983429  54.8435640  68.9042044  42.2635794  55.0698709  68.0364799
  41.8174410  54.6244001  69.4125223  19.6983123  52.8718519  41.8739939
  18.8547325  53.1027269  41.4850140  19.9281824  53.6281776  42.4137735
  97.0189267  60.9010220  10.6099451  97.1319502  61.6918945  10.0827122
  96.0713368  60.7706404  10.6460702  73.9085489  55.9333134  27.4654841
  73.7931162  54.9856043  27.5344396  74.7042900  56.1146879  27.9656172
  15.1823711  64.5881987  85.0395775  15.1510572  63.6381674  85.1522255
  16.1013126  64.8159552  85.1806641 100.8028918  24.0226674  17.4886835
 101.3108307  23.3164811  17.8880990 101.0642844  24.0145350  16.5679026
  12.2824323  43.8018036  40.7149363  12.4184322  44.0470934  39.7997475
  11.4525557  44.2152023  40.9529209  37.6527359  96.4219189  90.9744068
  37.3460274  96.2134553  91.8568488  38.1465324  97.2352982  91.0783808
  32.1425056  30.2241230  10.1624000  32.8996634  29.7737360  10.5366957
  31.5172029  30.2822876  10.8847892  14.7674596  33.3278537  27.7169442
  13.8864708  33.4971380  28.0507612  14.8345077  32.3733521  27.6911545
  45.1737881  84.2559910  30.8868480  45.4027891  84.4594669  31.7937040
  45.4864311  85.0094318  30.3860354   7.8304785  27.6876497  54.9125147
   8.1860405  26.8180299  55.0957394   7.2970110  27.8948259  55.6797981
 115.4319994  23.8627577  51.9657326 114.7970910  23.1509781  51.8851709
 114.9458913  24.6472192  51.7116642  31.1160111  55.4272366  66.1477470
  30.8943224  54.5078516  66.0000610  32.0728993  55.4428530  66.1665344
  20.2333546  25.6498265  44.6011591  19.9288559  26.5234399  44.8467493
  20.8836603  25.4268289  45.2671957  33.1028557  82.8700352  37.9135919
  32.8202462  82.9178619  38.8268709  34.0159178  82.5864887  37.9599524
   9.3501884  35.9202242  36.9532204   8.8638139  35.1002598  36.8676019
   8.7333703  36.5222216  37.3695946  29.8599505  47.4252605  30.7080102
  29.1238141  47.2606325  31.2972713  30.6337285  47.1891451  31.2196231
  22.5013375  51.9473267  67.2833014  21.9470191  52.1644211  68.0328560
  21.9195819  52.0187330  66.5265369  28.8604760  62.2514057  68.6558151
  28.3386993  62.6874065  69.3295240  29.5837307  62.8547525  68.4852028
  46.8676764   4.8272933  67.6589489  46.7707843   4.0810145  67.0674229
  47.6536304   5.2776469  67.3496103  54.4064617  60.1768589  69.3672371
  53.5177994  60.3170109  69.6941328  54.8679733  59.7643805  70.0973749
 116.9941255  92.3583317  42.5144148 116.1604416  92.4009037  42.0460224
 117.3259374  91.4789295  42.3333740 116.5437477  64.3435287  37.9559898
 116.1206067  64.0836287  37.1376753 115.9744726  63.9939785  38.6415362
  25.3257275  37.1606469  58.2008410  25.1495862  37.6470184  57.3954535
  24.6893501  37.5005126  58.8299227  38.6441803  64.2696524  52.5566435
  39.0514445  65.0321150  52.1455288  38.6610818  63.5943031  51.8785238
  28.9212155  64.1968822  42.9697037  29.2821670  65.0825882  42.9314470
  28.6499357  64.0879583  43.8811684  53.4781694  79.5392084  34.5684910
  53.2462978  80.1244831  33.8474321  53.1491613  78.6823845  34.2967629
  43.5569429  56.8677807  43.9242935  43.1211567  56.8089628  44.7745037
  43.5448122  55.9722614  43.5864687  29.5519733  85.3273010  15.7798398
  29.9020600  86.1430073  15.4216635  30.2899981  84.7182846  15.7543135
  45.1993179  75.5707502  38.9923692  44.6174479  75.1641798  38.3502173
  46.0807657  75.3750706  38.6745787   3.4386650  48.2085705  58.3116293
   4.2924339  48.3897877  58.7046528   3.4497198  48.6880112  57.4832296
  24.1700530  76.3928127  39.7424126  24.1648197  76.1280489  38.8225746
  24.8333144  77.0813465  39.7896934  25.5849504  71.5350103  76.5380716
  25.8986878  72.3767090  76.8687391  26.0760021  71.3978624  75.7279539
  38.6398363  63.9952421  36.7944145  37.9600143  64.5518589  36.4146113
  38.1580019  63.2927561  37.2309732   4.1284966  54.2404032  81.8886662
   3.9413747  55.1582384  81.6917038   4.3798339  54.2400694  82.8122807
  36.4942265  71.7088079  60.7037210  36.9366765  72.4050570  61.1892176
  36.8959665  71.7298841  59.8351622  53.6742401  59.9966955  44.8700237
  54.0890932  59.2073965  45.2180719  53.5164881  59.7973204  43.9472055
  38.9077115  64.9805021  59.0423870  38.1577730  64.6620798  58.5399580
  39.6412039  64.9414206  58.4286308 111.7830967  66.7158747  80.8902931
 111.4569807  67.0779610  80.0664234 111.4617484  65.8142757  80.8995247
  41.9964314  64.6236610  70.5540752  41.5130424  64.6504068  71.3798189
  42.8773832  64.9202538  70.7825327  19.2816758  53.6248446  53.5775375
  19.2121124  54.4047022  53.0268908  19.7432935  52.9873800  53.0327654
  52.7550602  92.3004246  68.0229807  51.8839550  92.6126480  68.2677984
  53.1342983  91.9819355  68.8421059  22.2529244  53.1623602  36.5498137
  22.1416593  54.1016531  36.6967177  23.1547427  53.0733204  36.2415457
  23.2092571  47.3135710  52.4830627  22.4950695  47.4578047  53.1038380
  23.5602212  46.4543533  52.7171564  52.1513653  74.5309544  87.8505325
  51.3730860  74.0181541  87.6324654  51.8716526  75.4417276  87.7584267
  21.7732215  62.1930647  61.0553360  21.2654519  62.1766329  60.2440834
  22.1823215  63.0583906  61.0643482  37.9653049  52.5846863  51.6799259
  38.2289171  53.3978462  52.1106291  37.2710538  52.2327280  52.2370338
  35.5580616  58.6502266  48.0828524  35.1450586  57.9868793  47.5300121
  34.8253584  59.1222858  48.4784985  26.2844443  50.8003521  48.8046598
  25.6122589  50.1199770  48.7660599  26.1301565  51.3339663  48.0251169
  50.2943134  93.8675594  59.3560457  50.5558681  93.0109501  59.0183449
  50.0490570  94.3672943  58.5773611   7.8331727  55.9407473  16.9096911
   8.2210547  56.1022902  16.0496426   7.1560246  56.6116428  16.9968784
  47.4499846  77.7525234  36.6754913  47.5352526  78.3956623  35.9716916
  48.1950474  77.9266596  37.2506332   9.7678828  63.4652901  71.6773462
  10.4987550  63.2079220  71.1153650   8.9888746  63.3102703  71.1431694
  61.7583942  69.7385550  51.1984682  62.4778557  69.5511675  51.8013716
  61.5373516  68.8885784  50.8177996  51.2754059  76.1292934  50.4286671
  51.7680597  76.6250324  51.0827065  51.5576839  75.2230692  50.5524015
 109.5971918  37.7835274  86.7261505 110.1764488  38.3362532  87.2507286
 109.0321254  37.3524237  87.3673058  18.2966113 104.4837570  29.0574336
  19.0722740 104.0365505  29.3959355  17.7272606 103.7775803  28.7518406
 114.1260319  82.2154617  42.4135113 114.8784428  82.7002621  42.0742893
 113.6641275  81.9124699  41.6317987  29.3752456  56.0155964  44.0910149
  29.5135880  56.4889240  44.9114132  29.5021200  56.6755486  43.4094048
  18.1689179  70.7659769  35.6353140  17.7198160  70.4376173  36.4142370
  18.9388156  70.2039623  35.5479646  54.0120840  64.8428679  48.4680176
  54.7768736  64.9769688  47.9082489  54.1139889  65.4849005  49.1706181
  23.7871408  73.5021162  24.7607279  23.9612770  74.3827486  24.4284725
  23.1416225  73.6315775  25.4555511  13.9437795  84.2621231  61.0031700
  13.3234191  83.6658955  60.5837584  14.4978583  84.5735836  60.2874756
  47.0874500  52.5527000  34.5287514  46.6092682  51.9569254  33.9520144
  46.4051485  53.0040646  35.0257111  51.0652399  63.8599205  50.8333254
  51.3606262  63.2175827  50.1880503  51.7270422  63.8272285  51.5241098
   6.4439726  85.6031895  63.3326626   6.9864714  85.9702396  62.6346684
   5.8443755  86.3113976  63.5675240  11.1030662  63.3092785  83.9154816
  10.9039092  62.3812389  83.7917519  10.2517998  63.7448025  83.8719463
  46.5960979  50.2870655  82.7019119  45.9082747  49.8182678  83.1745148
  46.5879488  49.9038458  81.8248081  27.7076626  47.5954771  69.2221069
  27.1931839  48.3874798  69.0662956  27.0940185  46.8771315  69.0683222
  37.7066159  48.6614943  35.7445455  37.4546552  47.8074312  36.0957146
  38.6324978  48.7497997  35.9707713  55.5201006  88.6451817  45.4685926
  56.4314604  88.3661270  45.3803492  55.0112724  87.9188919  45.1082706
  16.8339705  47.2829676  70.8613253  16.7280722  48.2123470  70.6581545
  16.1034799  47.0808506  71.4459324  27.9100132  98.2324123  39.5106459
  28.7240028  98.0102062  39.0586734  28.1417036  98.2239056  40.4393435
  49.9019957  60.3038645   9.0831256  49.1988373  60.6383896   8.5264444
  50.5563068  59.9713659   8.4686732  60.9172440  57.2278595  36.0921955
  61.2848663  57.6108694  35.2957106  60.2637768  57.8634787  36.3840818
  13.3245397  71.5560246  51.1273432  13.4043109  71.3490152  52.0584822
  12.6101172  72.1915722  51.0836267  84.3140477   3.5186518  65.7528067
  84.4024867   3.5671271  64.8009348  83.6941260   2.8042639  65.8996868
  47.8295565  83.5193920  27.7930522  48.1630421  82.7219963  27.3817277
  47.7143812  84.1330051  27.0674896  11.6827261  65.2154779  66.7480850
  10.7750738  64.9143171  66.7893362  12.2035098  64.4303083  66.9169760
  30.9775400  69.0940380  61.8627310  31.4549923  68.2687330  61.7782068
  31.5501523  69.6488476  62.3923922  47.5460768  32.6324081  31.1900640
  48.0511999  31.9613504  30.7309723  47.1281672  32.1647739  31.9131804
  41.2463856  59.5269537  35.5030179  41.3244104  59.3477678  34.5659828
  40.3034782  59.5802259  35.6589818   7.0291346  45.6944847  23.6150479
   7.6585025  45.0964689  24.0181684   7.4518210  46.5521860  23.6587882
  70.4744101  63.7797308  15.5614948  70.0925207  62.9971647  15.1640284
  70.2453184  63.7136459  16.4885235  22.0465446  57.7994680  19.4061947
  21.6077566  57.9468966  18.5683620  21.3854837  58.0151796  20.0639963
  47.6076508  60.4068661  54.4870043  47.5596476  59.7038460  53.8391733
  48.3571291  60.9350538  54.2121744  33.8506293  68.0109024  28.7008286
  34.2940497  67.2900486  28.2536340  32.9389429  67.7269220  28.7672663
  51.8797970  61.9855833  44.8346806  52.3183918  62.8244638  44.9766207
  52.5937843  61.3565254  44.7310686   7.1881062  47.3258829  83.3829212
   6.7094755  46.7442226  82.7923203   7.1035999  48.1927347  82.9858685
  17.0627975  59.5787764   2.2944869  17.8466201  60.1281881   2.2949198
  17.2402585  58.9088392   1.6342410  23.4387994  73.9776516  65.2112770
  23.4721017  73.4494400  64.4137096  24.2738414  74.4453907  65.2238178
  81.3227463  33.8713431  38.8956451  80.8096981  33.9868641  39.6954417
  81.5125656  32.9336143  38.8662076  99.4954098  25.6956052  13.6279253
  99.6279323  24.8747348  14.1021018 100.3667391  25.9317636  13.3097415
   3.3623838 106.3798141  58.1222725   3.4458959 106.5387249  59.0624905
   3.0645639 107.2158146  57.7635956  43.9902353  59.0936089  55.9943008
  44.7109890  59.5912886  56.3803816  43.6951351  59.6307325  55.2590132
 105.8184844  45.3944349  32.4980116 105.2567261  44.9604607  33.1401372
 105.7128077  46.3282824  32.6796579  34.8639584  95.3562832  76.0752439
  35.4530311  95.0607491  76.7694235  34.2128205  94.6586704  76.0005379
   8.3386678  57.5187349  43.6654758   8.1615400  57.5053072  44.6060467
   7.5935584  57.0621252  43.2748938  50.9312105  90.6566620  46.9533253
  51.6271210  91.1297512  47.4095297  50.6637239  89.9730968  47.5676727
  36.1390972  59.0281248  60.1796103  36.8251872  59.5815516  59.8064804
  35.3844523  59.6100616  60.2695751  33.8345790  49.1775703  62.1837902
  33.7272334  48.3023071  61.8114710  34.0750170  49.7272730  61.4379692
  49.2343235  80.9989643  55.5690670  49.2407084  80.7135773  56.4827108
  49.1204071  80.1920700  55.0668907 105.3834003  76.1251736  52.6621962
 106.3178449  76.2592268  52.8205490 104.9681931  76.9233847  52.9888344
  53.5505438  89.9662304  15.2442682  53.0898666  89.2693901  15.7116282
  54.3455458  90.1133251  15.7566762  30.0438285  62.0438814  41.4182949
  29.7572947  62.7941132  41.9391441  29.9395871  61.2928677  42.0025444
  25.1497746  64.3066168  83.7765884  25.0973201  64.3050909  82.8208256
  24.3380666  64.7271538  84.0603352  50.0539160  61.1318398  56.3948298
  49.3104792  60.5505419  56.2347555  49.9251795  61.8586922  55.7854509
  92.5430107  44.7238636  24.2777705  92.5727558  45.6451416  24.0197158
  91.7406178  44.3888235  23.8775849  25.1256871  50.4986238  43.4878683
  24.8066330  51.2393045  42.9722834  24.3796229  50.2464628  44.0319538
 112.3800391  10.3057993  28.9767504 112.3261136  10.6866206  28.1002259
 113.0775279  10.7983149  29.4093800  21.1252499  42.7724075  54.5433664
  20.9472513  43.3075428  53.7699461  20.7108974  43.2473469  55.2637672
  22.4005842  63.5335255  29.3944669  21.7609668  64.0970850  29.8298073
  21.8996072  62.7615833  29.1310906  52.9787350  56.9219160  61.5628147
  53.3925533  57.7763748  61.4408255  53.6435223  56.3949442  62.0061970
  68.4059191  78.4649897   9.1749036  68.5863876  78.4740543  10.1148927
  67.8035593  77.7310181   9.0537316  41.5766478  68.0757236  44.3111753
  42.3116016  68.5315084  43.9008856  41.6542912  68.2853508  45.2419043
  33.2915401  50.9308958  78.4582090  33.5126352  51.6317940  77.8449488
  33.1659389  51.3764668  79.2960167  53.7655878  62.2282314  47.5980520
  53.8693428  63.1033564  47.9717064  53.4779835  62.3844194  46.6985416
  45.7680893  62.4579048  44.7718525  46.3419104  62.8245401  45.4445601
  45.4973841  61.6100311  45.1240683  26.0313630  92.5123692  73.6536884
  26.1657286  93.3277893  73.1707144  26.0976458  92.7656174  74.5743942
  16.0777056  79.9464226  31.0920310  15.7855725  80.6408215  30.5015206
  16.5047657  79.3091202  30.5195832  18.7545013  75.8867884  31.4444947
  19.3741870  75.2537966  31.0818052  19.2091036  76.2618542  32.1987438
  13.7678349  67.6426458  41.6551065  14.1166437  67.2096062  42.4342394
  13.0918050  67.0467997  41.3323355  19.2645335  72.3804903  12.0822656
  20.0835276  72.5276661  11.6091692  19.2899978  73.0067110  12.8057516
  48.6674070  68.1595230  52.0139265  48.6710167  67.2066689  51.9228983
  49.5613909  68.3783960  52.2768354   2.5767246  68.0608034  36.2167859
   2.8857949  67.4962473  35.5082774   1.8605438  67.5696135  36.6193414
  42.7777052  76.8373394  45.5928946  42.8924084  77.6251411  46.1243534
  43.6035824  76.3626575  45.6869030  29.9490571  92.1521950  57.2255135
  30.7089496  92.7252102  57.3277521  29.2017341  92.7005291  57.4644136
  93.3520132  88.8555336  39.2661643  93.2973867  88.8539982  38.3105254
  93.0900698  89.7406197  39.5196152  30.6035757  66.2128735  39.6360612
  30.6705594  65.2654886  39.5168567  29.8311734  66.4639854  39.1295338
  37.4709463  76.3185263  68.9728117  36.8467689  75.7266951  69.3927765
  38.1510711  75.7417631  68.6249495  51.6107798  80.9027195  41.5143871
  52.2034550  81.6469383  41.6197920  50.8420324  81.2688160  41.0770798
  85.2522999  28.9613461  61.5099430  85.3346282  29.3658590  60.6463289
  85.5077511  29.6508789  62.1227360  81.8599319  70.8204222  25.6099463
  82.3430157  71.0449171  26.4052224  81.4703655  69.9668264  25.7992601
  63.0237532  63.4436035  40.5367804  62.7595711  62.8779364  39.8112059
  63.2574129  64.2733955  40.1207542  62.6828289  74.9418592  39.2536259
  63.6245537  74.7757244  39.2113233  62.5994587  75.8850193  39.1131616
  15.2420664  80.9890842  39.0455675  15.1551020  81.9330025  39.1785669
  14.4777751  80.6141281  39.4831705 115.2847656  83.3528805  17.3846340
 114.4858151  83.6594772  17.8134775 115.7335381  84.1537189  17.1135521
  67.3442507 102.0945072  38.1690073  67.3552704 101.5340805  37.3930979
  67.4696493 101.4915371  38.9017701  25.0131059  51.5994358  66.0194016
  24.1512895  51.4091778  66.3899469  25.1676750  52.5196791  66.2326860
  33.5655904  53.6286974  30.7307100  32.8412414  53.7546062  30.1177692
  34.3182230  54.0320301  30.2981615  31.8263531  82.6701641  79.3156290
  32.1850133  82.4357319  80.1715755  31.9306564  81.8787956  78.7873363
  55.5260706  54.1616488  86.9431686  54.6738148  54.0059137  87.3501587
  55.6674290  55.1037550  87.0363617  20.7218289  70.1107025  46.5491343
  21.5557599  70.5544281  46.7037344  20.6014633  69.5525742  47.3174047
   2.2710381  65.6352758  29.8890495   1.9038224  66.4347839  30.2661061
   2.0046642  64.9416065  30.4924560  67.4081659  79.3883419  26.2580109
  67.4740314  79.1936159  27.1928763  67.8388453  78.6492491  25.8284855
 116.3976137  49.1696119  40.3563547 116.1962515  50.1041508  40.4046202
 115.7150386  48.8063622  39.7921109  49.6827078 107.6899719  67.6320934
  50.0373840 108.3082199  68.2710075  50.3065968 107.7111244  66.9064617
  52.3879147  52.2306108  44.7751093  52.7196932  51.8818855  43.9477348
  51.4414072  52.2925043  44.6465635  36.4526129  84.3801594  52.7289200
  36.4694166  85.3266430  52.5870371  36.9632840  84.2486286  53.5277605
  21.3041878  54.1302109  48.4789562  20.4215717  54.1850615  48.8453102
  21.2718177  53.3780813  47.8877878   3.4033388  38.4574103  24.5781827
   3.7663734  39.2761683  24.9159288   4.0232849  37.7855134  24.8618245
  57.3332739  59.8681021  52.4141169  58.2158566  59.6664476  52.7249479
  57.0263958  59.0522432  52.0186043  -0.1392199  65.1681042  57.2361469
   0.7022937  65.3808784  56.8326426  -0.0121203  64.2959213  57.6094770
  58.1688738  70.8968878  50.8559132  58.6750937  71.6989899  50.9847832
  58.6299706  70.2368832  51.3736153   4.3553737  54.3276405  33.4904933
   4.1901621  55.1481247  33.0260110   4.6566710  53.7243223  32.8111839
  33.7516260  47.0406342  27.6185536  33.4632969  47.7600431  28.1802917
  33.8930941  46.3092852  28.2196736   7.9063785  50.6654453  75.5627775
   7.4990517  50.3443003  76.3672543   7.2486520  50.5135489  74.8841381
  38.7429714  89.7570419  29.1352582  38.4821057  90.2158451  29.9338055
  38.0989981  89.0551472  29.0410614  10.2840817  68.3065987  37.9992509
  10.5549324  68.0690193  37.1124434  10.3525996  69.2610455  38.0229974
  40.6287956  51.2292671  23.2782412  39.6787477  51.3377666  23.2350564
  40.7850218  50.8236408  24.1310549  23.6632133  38.5561657  55.6160116
  23.0407262  39.2480755  55.3923988  24.4931459  39.0143037  55.7485008
  17.3202050  80.9439087  36.9499731  18.2046044  80.7895374  37.2819948
  16.7819798  81.0363293  37.7361059   8.1964219  80.8505821  24.8732114
   8.8014585  81.1105919  25.5678701   8.1389880  79.8981667  24.9496961
  31.0005522  79.4897747  46.2348127  30.2483273  80.0812149  46.2591934
  31.6911864  79.9613333  46.7005301  41.8750191  68.5080433  52.3763180
  42.0974970  68.5537863  53.3061790  42.0120049  69.3985796  52.0531845
 110.8170348  95.3771210  61.7790842 110.1268309  94.7619247  61.5313244
 111.6167813  94.8511696  61.7824602  56.3257933  81.7698765  47.5031710
  56.8342590  82.0035744  46.7265892  56.4131403  82.5262928  48.0832052
 114.6403351  85.6488609  58.9942312 115.5447472  85.9233761  59.1455936
 114.4241169  85.1074600  59.7534180  21.9692087  90.5623055  47.2303057
  22.6724887  90.8370304  46.6419601  21.2744689  91.2056255  47.0899105
  19.1264069  80.5728149  67.5997496  19.6169019  79.9819469  68.1711674
  19.1331732  81.4118767  68.0603552  29.2603064  87.2651577  80.6967926
  30.0197864  87.6873589  80.2953339  29.4026971  87.3614025  81.6384411
   8.9505017  89.5282459  40.2317715   9.0302151  89.9437141  39.3731308
   8.4612453  88.7228870  40.0636721  27.4613976  48.3314753  46.6255808
  27.7469301  47.5717497  47.1330452  26.5853167  48.5262871  46.9583988
  52.3750401  64.2575455  20.2219296  51.7854166  64.8671293  19.7781038
  51.8639565  63.9240026  20.9593439  70.0663471  85.4412937   1.8147847
  70.0436211  84.4875813   1.7363873  69.2175293  85.7294941   1.4791057
  47.3710585  74.8108292  52.3110056  46.7112017  74.2053843  51.9729853
  46.9293642  75.2732182  53.0232811  50.2695084  45.1818180  40.9029198
  50.1188469  44.2920685  41.2220907  49.4135761  45.4709911  40.5867052
   5.7638717  39.6782970  76.6715527   6.2471539  38.8665533  76.5174627
   4.8493579  39.4471383  76.5088797  52.2419786  68.5344172  29.5408964
  52.2484398  69.4592619  29.2942262  52.4647999  68.5332537  30.4718018
  56.0714722  59.2020464  55.6362581  55.3207541  58.9095020  56.1530495
  56.3953304  58.4069395  55.2129984  47.7351236  43.4971094  37.8313851
  46.8852520  43.6970091  37.4389648  48.3150625  44.1882658  37.5116920
  21.3822341  28.4676838  68.6444235  22.3080993  28.2307243  68.5910082
  21.3466215  29.1434526  69.3213987   3.8550413  55.4286289  55.8458519
   3.6252606  54.4994402  55.8392000   3.0275631  55.8787727  56.0158014
  25.2210331  36.3215017  41.1483526  24.8887134  35.5138445  41.5401268
  25.6873775  36.7589903  41.8606424  17.8799844  93.5948658  12.3481095
  17.3036325  94.3495846  12.2279131  17.3402441  92.9522324  12.8084755
  30.5493331  45.6477451  51.6238213  29.6085167  45.4715681  51.6162777
  30.6755733  46.2432766  52.3624945  29.8209500  44.2192268  33.7340903
  30.5284405  43.8395023  33.2130361  29.0370440  44.0973902  33.1984830
  21.7471838  28.5983706  47.9145241  22.5716114  28.1183028  47.8365183
  21.9956565  29.5179462  47.8203201  50.9778929  83.0138874   8.5329801
  51.3207293  83.9050102   8.4652263  51.6916609  82.4582100   8.2199383
  13.4929705  73.3551311  30.6599498  14.3146777  73.2911682  30.1731873
  12.8299165  73.0217218  30.0554395  30.5399728  70.8034420  16.9497883
  30.3060961  71.3139343  16.1745906  29.7787499  70.8792782  17.5251329
  42.3558950  52.8595400  47.3184013  42.0869255  51.9410038  47.3051023
  42.6081562  53.0483484  46.4145470  52.6346207  63.1891251  27.4201083
  51.7859888  63.1937599  26.9773483  53.2755089  63.1713724  26.7093492
  40.5317688  70.4720783  33.6966228  39.6563029  70.8392191  33.5741425
  40.4431295  69.8873568  34.4492674  25.2769065  63.4227610  68.5154438
  25.5772710  63.9997721  67.8132534  25.7795858  63.6971426  69.2824268
  42.5176239  93.3795166  27.1815801  42.7944374  92.5290012  26.8406582
  43.2856750  93.9410686  27.0767498  19.2255676  58.1557608  39.6516871
  18.3286405  58.3362293  39.3702912  19.1331148  57.8104353  40.5396271
 109.8538881  44.5740557  40.4472923 108.9148539  44.5603323  40.2621984
 110.2086424  45.2215910  39.8381329   6.9377446  53.7583447  28.7798190
   7.6985085  53.1781292  28.8084507   6.5577501  53.6124802  27.9134703
  19.5907199  71.8426371  67.8015947  19.0755141  71.8402052  66.9948769
  20.1833892  72.5880527  67.7050304 115.5461402  80.1483536  40.4624176
 115.2070222  79.8831940  41.3173580 114.9743896  79.7106886  39.8317242
  44.6511793  66.2850714  63.1758976  44.7415257  67.2052908  62.9283762
  44.3962812  66.3090515  64.0982246 112.1916925  49.0499353  11.6170013
 111.7761141  48.4428310  12.2293341 111.8543869  49.9102497  11.8666375
  44.7572517  71.0371923  80.7720757  44.2444992  70.2333117  80.8562756
  44.1556978  71.7336559  81.0353279   5.6578374  36.6645288  32.2412467
   5.0764918  36.8011928  32.9893041   5.9668773  37.5416851  32.0146918
 102.0960897  36.0821795  66.9510460 102.3627978  35.9274864  67.8572273
 101.8150287  35.2237701  66.6342354  14.3798506  39.2885447  44.1921329
  14.7235370  38.7055159  43.5152340  13.5255301  39.5640421  43.8597631
  23.9248419  42.2791767  28.3555794  23.6807489  42.0173836  29.2433381
  24.2174459  43.1861401  28.4452391  44.5024586  58.6960030  68.1612206
  44.0336704  58.7667274  67.3296738  44.8803473  59.5647860  68.2977772
  27.3106837  77.9671335  34.5577002  27.5064611  78.8768339  34.3333054
  27.1753573  77.5360823  33.7138343  40.6168604  79.4988012  50.3906298
  41.3105536  79.0709209  50.8925629  41.0271645  79.7186708  49.5542431
  43.6344576  62.0625210  73.8324451  43.5408020  63.0024242  73.6773729
  44.3394709  61.7918158  73.2443047  15.1808214  75.8094835  46.6308355
  14.4419980  76.3954258  46.7952728  15.9434772  76.2891197  46.9541597
  26.6084909  73.6408520  40.3968239  26.0148644  73.0174637  39.9782228
  26.1873460  73.8497639  41.2306213  38.9537668  83.2858086  62.9786968
  39.2117333  82.4764347  62.5375700  38.2398748  83.6330223  62.4438715
 105.8909053   1.2833727  55.6509018 105.1947946   1.1002291  55.0199318
 106.3556260   0.4516257  55.7429647  20.4572630  59.4099951  32.1209049
  20.6259036  59.2508745  33.0496001  21.1131287  58.8828516  31.6646242
  44.3850088  63.8377380  56.3290977  44.8032618  62.9945326  56.5031624
  44.9057293  64.2223740  55.6240177  10.5833852  37.2988963  48.0271149
  11.5157247  37.3753905  47.8243303  10.5528247  36.7482018  48.8094425
  45.3772640  49.8549080  67.5862169  45.3976583  49.1950560  68.2793331
  44.9662399  50.6174278  67.9934740  36.6033864  85.9173679  17.7736402
  36.5691185  86.5258503  17.0355237  37.2148132  85.2359962  17.4941528
   5.3349775  72.1988487  69.7149706   4.7323364  72.6805925  69.1484213
   6.0801053  72.7888346  69.8287058  45.2941370  85.0293732  52.6938677
  44.8797989  84.3656921  52.1424198  46.0777950  84.6002197  53.0372906
  31.4553046  65.9356308  61.3917351  32.2124696  65.6205273  61.8853331
  31.7158699  65.8524227  60.4744482  82.5016212  66.1175156  14.0408301
  82.6507282  65.7882643  14.9271655  83.1933498  65.7145309  13.5160995
   3.2762438  68.4603643  51.4797735   4.1238889  68.3063745  51.8969297
   3.4946555  68.7766600  50.6031418 107.0827281  57.7155113   7.0092338
 106.2554520  57.5936747   7.4750686 106.9286113  58.4700155   6.4407235
  36.2122989 103.6891460  49.6961117  35.9680462 103.0410671  49.0353870
  35.9248710 104.5252323  49.3292618   4.5162496  51.7931604  39.5024061
   4.2691812  52.6653147  39.1949415   3.7254146  51.2660789  39.3884158
  65.1636457  66.0979080  10.0468111  64.7285271  65.2518320  10.1519895
  66.0611820  65.8764410   9.7985929  75.3468484  11.8785418  52.9806423
  75.7433790  12.7076186  52.7130127  75.7406229  11.2265433  52.4009228
  21.4009333 109.8703480  53.8321304  21.3039017 110.3437805  53.0058861
  21.1142683 108.9791393  53.6326122  51.2667894  56.5644693  22.7334714
  50.7932568  57.3707008  22.5285602  50.9607935  56.3225508  23.6075854
  44.1662931  88.0691433  48.4134817  43.4581566  87.9943275  47.7738142
  43.9685583  87.4002552  49.0690184  57.3243380  92.4141026  17.4214017
  57.9527903  93.0412292  17.0636296  57.6733637  92.1910667  18.2843447
  50.5459881  59.6822739  35.0341392  50.8304262  60.4684353  35.5002642
  51.0725260  58.9770269  35.4104567 111.5778988  43.2520580  51.3656616
 111.2406057  42.6412773  52.0209599 111.7043584  44.0712261  51.8444157
  22.4548960  71.5372229  67.6743698  23.2938433  71.8673754  67.9959297
  22.0689344  72.2783470  67.2074604  58.4817839  71.8479729  43.1980419
  57.5966024  72.2118998  43.1824017  58.9325285  72.3437309  43.8816214
  67.9264635   5.4210509  17.0441163  67.6969427   4.5631636  17.4012828
  68.4502119   5.2247656  16.2673318  42.4491739  60.8968973  44.2948484
  42.8096962  60.9739017  45.1782084  41.6929722  60.3185463  44.3943596
  82.3103637   2.2290648  86.9040489  82.9890126   1.8847216  87.4846458
  82.6649970   2.1085394  86.0231686  30.9120250  68.5697603  30.8114028
  31.6053391  69.2252302  30.7345605  31.1084318  67.9318190  30.1253343
  30.2541780  62.7191067  52.0595741  30.4898286  63.0013371  51.1758041
  30.9996986  62.1936512  52.3499727  17.9916441  74.3768787  25.0299788
  17.9407895  73.4220648  25.0744534  18.8557661  74.5536423  24.6581221
  33.7475252  88.2060814  56.1957598  34.7027111  88.1501484  56.1688042
  33.4964085  88.4463787  55.3038931  49.3870974  75.4133224   7.8625381
  49.8108530  75.5690908   7.0185000  49.9264860  75.8905602   8.4930408
 103.6894947  68.3302116  39.4119334 103.4005194  68.1468964  40.3058720
 103.1261640  67.7859688  38.8617635  51.6485977  90.6596088  39.5144987
  51.6443729  91.4861965  39.9971557  51.5587473  89.9873734  40.1899719
  54.1144180  59.3959332  61.1870766  53.4692097  60.1021147  61.1517668
  54.9562979  59.8444462  61.2664747  36.2896156  91.8455601  59.5207739
  36.8508148  91.1356354  59.8326874  35.5393624  91.4017010  59.1253757
  54.6883106  83.5198498   9.6934623  53.9059448  83.2294273  10.1622808
  55.2701521  83.8482952  10.3788900  28.0187750  95.3523254  26.2257743
  27.3998904  94.9528027  26.8369985  27.5080752  96.0225582  25.7716775
  28.3248901 105.1812363  43.9996862  28.7589121 104.6394634  43.3406496
  27.4093795 104.9030781  43.9733028   9.8636198  58.6263990  36.0414433
   9.0410179  59.1137457  35.9961390   9.9195743  58.1722593  35.2006936
  53.6830664  81.2835884  44.3636513  54.6005964  81.4484787  44.5808554
  53.5488462  81.7366219  43.5311985 104.3567007  88.0049419  59.3831873
 104.5573335  87.8558064  60.3071690 104.8313766  87.3143864  58.9205360
  11.7346168 101.4710236  38.3432817  11.0412896 101.1308670  38.9088154
  11.2825000 102.0563889  37.7356935  33.6248922 101.0250378  31.5158772
  33.6990929 101.4393997  32.3755455  33.7293863 101.7445946  30.8933449
  61.4624071  60.5075693  53.9170790  61.8503618  60.6390238  54.7822046
  60.7226276  59.9205112  54.0730238  39.5443177  62.7788305  56.2442970
  39.9448013  61.9154167  56.1425257  40.2263260  63.3126545  56.6518831
  32.9356146  92.3632526  86.6937923  33.6843061  92.7888680  87.1115780
  33.2389164  92.1595287  85.8090687  20.3450656  53.1357336  61.3436508
  20.6121612  53.2048082  60.4270697  20.6800866  52.2851229  61.6272974
   9.8590857  81.9703293  39.6481061   9.5684505  81.5160561  38.8572836
   9.0527731  82.2995758  40.0452089  49.3507004  77.3584557  21.1969280
  49.0231466  78.2282066  21.4260149  50.1818895  77.2843838  21.6658282
  30.3866673  90.7022762  72.3620605  31.0026813  89.9815083  72.4934387
  29.9166012  90.4724979  71.5605164  33.5884070  64.6266937  62.7685833
  33.6061120  63.9594555  63.4546661  34.5018721  64.7146893  62.4964285
  45.1596928  94.7102356  38.3332920  44.5408678  94.1572475  38.8102508
  45.1621723  95.5374527  38.8149047  45.6514645  78.1461668  38.4635282
  45.2957773  77.2702026  38.6132073  46.2127733  78.0485392  37.6943493
  39.1362596  82.9868412  55.6448603  40.0165510  83.3406162  55.7719946
  39.0238714  82.3612499  56.3605690  31.8210077  77.0903301  49.5416260
  32.3505878  76.4464951  50.0120020  32.3446274  77.8913736  49.5611477
  27.1935725  67.2948790  51.4288473  26.7751360  68.0901098  51.7586184
  26.5117049  66.8601942  50.9166574  41.7574072  72.9172754  55.4476213
  41.3183498  72.4082422  54.7661972  42.4554300  72.3432827  55.7630968
  61.6020060  95.5451107  32.6318526  62.0008564  96.1383820  31.9953179
  61.3384676  96.1128426  33.3560419  25.5179501  97.9356289  31.6802382
  26.3229156  97.8267479  32.1866059  25.8164334  98.1977081  30.8093452
  32.4529958  89.5872498  53.6818552  31.9623113  88.7895298  53.4841061
  31.7990589  90.1885223  54.0383196  20.7285953  78.9157486  72.4053764
  21.4409041  79.4897890  72.1237326  19.9463248  79.4656324  72.3617077
  55.1445913  86.4609432  29.2313576  54.5208836  85.7589912  29.4170451
  54.6050978  87.1798134  28.9021158  45.2815056  70.8080006  13.3270919
  44.9149942  69.9260855  13.2628953  46.2285519  70.6779671  13.2778215
 106.1009711  85.2242470  53.8017082 106.0667115  85.9511566  53.1798840
 106.4402347  84.4886398  53.2917881  31.2088752 107.7308083  15.5875826
  31.7954469 107.3227978  14.9506438  30.3380418 107.4129391  15.3491795
  33.2705235  88.9226246  39.8581576  33.7864685  88.1295776  39.7128654
  33.3340168  89.4041443  39.0333271  41.8313074  82.7066326  32.8731275
  41.7636061  81.8534374  32.4445152  41.9053984  83.3317184  32.1520162
  30.4425812  89.3066978  90.5666351  30.0398064  89.2182827  91.4304543
  29.8018384  88.9294147  89.9638557  21.9138861  73.6489487  35.2444530
  21.8557382  73.9847231  34.3499660  21.1825347  74.0621328  35.7034039
  33.3452368  88.0768013  43.5872936  33.5082483  88.6704159  44.3202877
  33.3357644  87.2050858  43.9825821  42.7099562  93.5863018  42.9028368
  43.4758520  93.9523125  43.3451843  42.2668743  94.3453503  42.5236750
  19.0602076  89.8550415  60.3407621  18.3246839  89.2642212  60.5025434
  19.8154187  89.2754936  60.2406836  32.1625662  54.7853947  51.0744286
  31.9243145  55.6995726  51.2285185  31.4720511  54.4511414  50.5019808
  24.3038368  60.5396557  74.1794634  24.9962187  59.8898649  74.3003464
  24.7676063  61.3744164  74.1136932  44.8160458  55.2763510  47.0816469
  45.5592108  54.6806908  46.9861460  44.1577673  54.9371862  46.4751196
  36.3322330  61.8047857  49.4451094  36.2719536  61.4121723  50.3160000
  37.1863365  62.2368240  49.4357491  29.1038346  84.7603512  18.4844446
  29.2332578  84.8530102  17.5405717  28.4016991  85.3770542  18.6916041
  44.5521402  85.2395344  44.0318155  44.9115849  84.3787193  44.2463446
  43.6742306  85.0559521  43.6974430  90.0171822   0.7309378  19.5266724
  90.2843875  -0.1724683  19.3573022  90.6454200   1.2622393  19.0375173
  59.3322182  40.5104065  28.0562568  60.2302408  40.6187296  28.3693981
  59.0812540  39.6336818  28.3471251  34.1792798  70.4503393  39.0924978
  33.5181069  70.7360554  39.7229314  35.0048900  70.7842112  39.4433999
  23.7519813  59.4263363  25.0078821  24.3978930  58.7208319  24.9719763
  23.5355878  59.5998096  24.0917420  22.5511384  64.6888542  60.4701328
  22.2175694  64.5346689  59.5862818  23.0041790  65.5300331  60.4118013
 101.8895358  13.8022364  49.8429537 101.2120503  13.1362380  49.9599504
 102.6593369  13.4405364  50.2820492  53.3533573  76.7558527  34.1303587
  52.7207756  76.4689016  34.7889423  54.1915798  76.4095974  34.4365120
  54.7040892  80.6621742  26.7190289  54.2029476  80.8843136  25.9343338
  55.6174707  80.7952404  26.4655399  45.8772469 107.7573967  47.2774363
  46.6477633 107.7056026  46.7118835  45.4778004 108.6000252  47.0614290
  49.1291618 103.7416363  66.6332340  50.0207043 104.0633678  66.7669344
  48.8771629 103.3751392  67.4808264  51.5354824  76.9926834  45.7458115
  51.4081764  77.8172874  45.2767134  51.0195446  77.0902872  46.5461349
  45.7735538  84.4075775  33.5173297  46.6606379  84.5269012  33.8565612
  45.5398130  83.5136127  33.7671661  24.5221615  91.9349289  50.7846546
  23.6719775  91.5966892  51.0657549  25.0285912  91.1540318  50.5611420
  34.9796557  65.4712296  26.3959622  35.1750088  64.5915031  26.7186928
  35.6812549  66.0175848  26.7502022  38.8286805  52.7647018  47.5044012
  39.5875645  52.1826077  47.4657345  38.1448841  52.2394705  47.9200697
  36.1162710  61.4259195  41.2599277  37.0552492  61.2411976  41.2807369
  35.7156491  60.6810808  41.7081976   4.0833494 102.4072933  43.0880451
   4.4325560 101.5937233  43.4519100   4.6365348 103.0934906  43.4613419
 113.2722628  63.1987047   3.0494837 114.1612399  62.8441667   3.0654864
 112.7074969  62.4271917   3.0042510  28.3420825  50.3069687  54.6286869
  28.8426495  51.0185099  54.2294693  28.7221289  50.2071095  55.5015135
  54.7051191  65.7246923  41.0371733  53.9975691  66.3692760  41.0265207
  55.4636383  66.2070704  41.3660955  38.4904933  84.2705059  33.6150169
  38.6234236  83.4431362  33.1523871  39.2300296  84.8160934  33.3473396
  32.4839783 106.8270111  18.4722149  31.9552565 107.3078537  17.8354454
  33.3313441 106.7123032  18.0420482  26.8262982  62.3619032  46.5986109
  26.5044332  63.0533648  46.0202408  26.8884897  62.7783203  47.4582386
  28.1635475  60.5401707  38.0656600  27.8359318  60.1158381  38.8586569
  27.3925114  60.9571695  37.6811504  35.8854365  91.4662933  75.7782507
  35.4135704  91.0612488  75.0505781  36.6830349  91.8162823  75.3812885
  29.5251703 104.5373535  41.6606426  29.9568963 103.9428234  41.0471439
  30.2434754 105.0060081  42.0856619  25.5479431  90.3439713  35.5901670
  24.9102831  90.5891991  36.2606049  25.0248575  89.9368763  34.8996019
  61.0401821  47.5983715  16.7652476  60.3455782  47.0472336  16.4046872
  61.8130779  47.0337725  16.7751646  45.2705622  75.8593416  24.9124932
  45.5429363  74.9538088  24.7639823  45.5509663  76.3259840  24.1251874
   5.8508462  70.2750158  80.6877613   5.9283322  70.7172155  79.8423719
   5.6249106  69.3717432  80.4657650  11.0726386  49.9089326  87.1039595
  10.8884746  49.3570222  87.8640278  10.5054074  49.5639791  86.4144035
  72.7732706  71.8334007  36.0946298  72.3729038  71.7440033  36.9594693
  72.0488977  72.0803976  35.5197310  26.9383168  97.8963566  58.0763769
  26.4315605  97.4342823  58.7441492  26.4221263  97.8017426  57.2758627
  46.2730312  62.0876169  90.6978416  45.3476238  62.1765661  90.4699326
  46.6557455  62.9379225  90.4816437  21.9879603  87.9871750  16.0498416
  22.7943301  87.5439072  16.3134849  21.5886688  87.3975658  15.4101825
  66.4539909  68.3217335   9.5789176  65.8182812  67.6064157   9.5994341
  67.1985435  67.9666233   9.0933567  60.5581188  37.4221110  33.9860129
  60.2986526  38.0909705  34.6196818  60.2271318  37.7449703  33.1478953
   8.3549988  66.2422848  25.1700354   8.2983285  66.3969183  24.2271090
   7.6872921  65.5789995  25.3445268  23.2742000  71.7746830  16.1266613
  23.2627249  72.3888302  16.8607783  23.4636807  70.9261942  16.5271544
  48.2848167  82.5850868  41.0306168  47.4047852  82.4341965  40.6856394
  48.6643505  83.2373142  40.4417324  46.3937712  30.5897593  43.5297155
  45.8897352  29.8606610  43.8911009  47.2419262  30.5361772  43.9701605
  13.2049549  83.8445377  45.5564070  14.0369403  83.4912872  45.8714437
  13.1673217  83.5841465  44.6360779  36.9706225  79.5864153  59.2660236
  36.6260076  80.0245762  60.0441551  36.1961842  79.2368412  58.8252592
  61.3237858  62.4324608  24.6238708  60.6602192  63.1169891  24.7095323
  60.8227634  61.6303539  24.4761229  95.8924800  57.7365494  58.9385509
  96.2695533  58.1787920  59.6991253  95.0195485  57.4686337  59.2256784
  54.8083878 101.2187004  36.7174268  55.6529140 100.9660912  37.0905137
  54.1619730 100.8799171  37.3367834  38.7404728  83.5447311  72.5829744
  38.5500693  83.2643414  71.6877890  39.4466448  82.9658890  72.8701830
  39.6218467  81.5281105  29.2878962  39.8971510  80.8759022  29.9321461
  39.0304565  81.0532093  28.7039828  23.7312746  81.2763882  46.8377256
  23.2866192  81.0286999  47.6483822  23.7614965  82.2327614  46.8636990
  76.8558687   3.3764018  55.9971762  76.7835540   2.5427855  56.4620256
  77.7322000   3.3608473  55.6124258  47.0864248  91.2381458  53.1338501
  47.3944092  90.8993340  52.2932625  46.6059399  90.5083466  53.5246944
  78.9031124  52.1012163  22.1974444  79.4384146  51.6093349  21.5747619
  78.0754042  51.6217566  22.2328091  70.1509637   2.9186476  53.7587643
  70.8989829   2.5930823  54.2594671  69.7268957   2.1296156  53.4213781
 112.1584010  77.6513052   8.7792736 113.0583262  77.8502274   8.5208243
 112.0152816  76.7542505   8.4775472  21.1797547  76.1442709  79.0366268
  21.0832119  75.9802675  79.9747181  21.5817404  75.3459787  78.6940432
   6.7931265 104.2748547  16.8591094   7.4174660 104.0200138  16.1797822
   6.1401784 103.5749340  16.8590689  48.1832695  97.9320335  56.9761229
  48.5530424  98.7203217  57.3737431  47.4434519  98.2494354  56.4582825
  20.1988506  37.4786472  46.8269348  20.9052515  37.8706813  47.3402929
  20.3691268  36.5374756  46.8647766  32.0342207  77.9455948  79.2232800
  32.1930242  77.0034981  79.1643953  31.0816169  78.0252934  79.2725420
  60.5124140  85.3739643  44.8014784  60.0069952  84.9697685  45.5067539
  60.2945662  86.3045788  44.8536396  46.5091133  85.1703072  59.9502754
  47.1493912  84.4955826  59.7243929  46.5251112  85.7739162  59.2075586
  95.9937447   4.5861662  74.7385645  96.8590516   4.5756854  75.1476717
  95.6194323   5.4300536  74.9915028  44.6248007  68.3992624  12.9919517
  45.3682280  67.8685808  13.2781863  43.8811874  68.0572176  13.4882069
  56.8163443  84.7603035  42.0810223  56.5842342  84.2571068  41.3005447
  57.7706575  84.8268986  42.0480251  67.9813671  68.9950657  29.5743108
  67.9505301  69.8647213  29.9730372  68.8982582  68.8779640  29.3256450
  37.1372247  67.2360420  37.0965171  36.7630196  66.5106106  36.5965581
  36.6619253  67.2246885  37.9272962  36.5998006  92.6631355  52.4742651
  35.9095979  92.7674484  53.1292248  36.2351561  93.0501080  51.6783285
  54.0828371  44.7198248  11.9071841  53.1374645  44.7148371  11.7572641
  54.4631290  44.8233652  11.0348940  47.9263687  90.8224583  50.4703760
  48.8243341  91.0284710  50.2106571  47.4497128  90.7453251  49.6438885
  53.3002138  80.1645565  51.2155628  52.6409340  80.4983425  51.8239737
  52.7932978  79.7719049  50.5048609  38.2420111  78.0134058  50.9075880
  38.5568118  77.1099424  50.9372997  39.0293312  78.5365438  50.7569695
  34.8344111  73.2445335  72.5312042  34.1582417  72.7155399  72.9545116
  35.6588864  72.8399611  72.8009987   6.1772656  80.8189106  85.7720757
   6.6935718  80.0198460  85.6665134   5.6375802  80.6549454  86.5454388
  43.3986950 107.2910786  36.4554715  42.6318789 107.4502182  37.0058346
  43.5349989 108.1163979  35.9901786  52.5212145  85.8886528  90.4944038
  53.4758425  85.8404922  90.5453491  52.3352337  86.8175411  90.3572750
  68.4913015  54.7842550  13.8069129  68.8094378  53.9165354  13.5577512
  68.6583424  55.3302956  13.0386901  54.6047783  73.7348700  25.3895521
  54.9165726  74.0129805  24.5283484  55.2972460  73.1637478  25.7220292
  33.2362008  84.1111660  54.5581961  32.6829934  83.7449169  55.2481651
  34.0488863  84.3497181  55.0041485  52.3258352  68.2091379  41.1869335
  52.5058413  69.0513515  41.6046715  51.3708305  68.1641293  41.1403847
  49.1775274  42.7327347  32.9622912  50.0315380  43.0946159  32.7257872
  48.9404202  42.1747017  32.2216105  44.0904903  50.8560514  39.8143220
  45.0122213  51.1087942  39.8668456  43.9337730  50.3542614  40.6142473
  59.2114449  78.3297968  37.7685571  58.4296179  77.9042149  38.1204915
  58.9635944  79.2500401  37.6793432  44.3134785 109.6956348  74.6844196
  45.1502705 109.2316914  74.7121477  44.4623089 110.4889774  75.1988888
  22.1462393  79.1033220  38.8056254  21.8098307  78.4449482  39.4135761
  21.4628363  79.7728634  38.7754321  58.2554245  84.0932178  39.4092464
  58.7763739  83.2955837  39.5020652  58.9025402  84.7935104  39.3252110
  57.8430319  91.3735008  49.2367506  57.0607233  90.8292580  49.3263578
  58.4836626  90.9703541  49.8226643  36.4805579  69.3757868  35.3510642
  36.7966700  68.9091730  36.1247396  36.8362617  70.2597237  35.4425168
  20.6397915  87.7767086  34.3609810  19.7138381  87.8337669  34.1252160
  20.6441140  87.7838707  35.3181458  23.5113573  85.1371574  43.4819698
  23.5790896  86.0645294  43.7091827  23.4988046  85.1253414  42.5249243
  55.4557037  93.9461422  75.4974842  55.5214119  94.1508961  74.5647526
  55.4693413  92.9897499  75.5342913  53.2657290  84.3193436  34.9463439
  52.9462337  84.5590591  34.0764642  54.2168474  84.4078541  34.8849583
  47.8674173  89.5663452  44.7098255  48.4153748  89.5954990  43.9255238
  47.1230364  89.0181160  44.4616890  67.7827978  45.2199459  28.1421471
  67.1568441  45.9435940  28.1147909  68.4192753  45.4788780  28.8085389
  10.5337310  39.3417668  84.0652370  10.6459475  39.9652576  83.3476734
   9.8161304  39.7025013  84.5859528   0.3031716  81.2392235  42.7244473
   0.5800430  81.6443539  43.5463047  -0.2894593  80.5365849  42.9915047
  37.1005702  63.8633823  27.0394492  37.4597216  63.7510777  26.1593175
  36.9674635  62.9711342  27.3594666  50.4298544  91.0718250  44.0847874
  50.3019476  91.1534882  45.0298834  51.3705921  90.9280586  43.9819431
  21.7698026  67.7398157  32.9088855  21.6362858  68.3907080  32.2198701
  22.7127457  67.5753117  32.9034972  38.2611847  41.6216707  23.8265681
  38.1692576  42.5742388  23.8464403  37.6839375  41.3400936  23.1168246
  40.1916218  90.2184105  52.1162844  39.2586565  90.0310898  52.0127392
  40.4707670  90.5282593  51.2547112  46.1851931  49.1240120  27.6864266
  46.4655018  49.7837067  27.0520282  45.3378010  48.8220263  27.3593640
  64.1758299  56.8799591  44.0548325  63.3524752  56.4560270  44.2969131
  64.4673920  57.3127174  44.8572922  85.9440994  95.1021385  37.7873039
  85.2097416  94.4888496  37.7585745  85.6979179  95.7992268  37.1792817
  41.0088396  50.5657816  46.8741655  40.4263163  50.2451181  46.1856365
  40.8920956  49.9462461  47.5944328  66.1709023 107.9402924  89.0529823
  67.0686197 107.9324722  89.3850517  65.6372404 107.6660919  89.7988033
  61.0822821  57.0565510  23.7812591  61.1876297  56.7815876  22.8704739
  61.8597412  57.5843334  23.9635682  22.9153562  59.9264145  57.4165916
  22.8171349  59.9733591  58.3675814  23.2918572  59.0609407  57.2571278
  86.0686940   4.1240920  78.5831547  86.2869805   4.4667376  77.7164507
  85.2645272   4.5827330  78.8264561  41.4670372  72.1166182  58.1529760
  41.8528223  71.3148880  57.7999353  41.0282898  72.5210333  57.4045229
  79.0940905  60.8027887  42.3891592  79.7911739  60.3586864  42.8719425
  79.3508816  60.7233906  41.4704704 111.9073647  46.9332075  34.1634321
 111.0700172  47.1167660  33.7375379 112.3773878  46.3802433  33.5393047
  38.0446506 103.6837101  51.7166948  37.5020123 103.8809586  50.9532404
  37.4178696 103.5461807  52.4269533  23.3203483  98.2237816  39.8179364
  23.9929461  97.9504299  39.1941381  23.7399268  98.9096737  40.3373003
  44.1140652  63.8540220  37.4007607  43.1669950  63.9526224  37.3029590
  44.2851782  62.9414845  37.1678948  60.7743120  68.3184242  56.0578251
  60.8122015  67.9267120  55.1852655  59.8662090  68.6060047  56.1520338
  43.7263966  69.4644308  42.6662111  44.3382406  69.6879721  43.3675718
  43.4568882  70.3090048  42.3052502  27.0551300  69.7482634  34.2244816
  27.9727006  69.9885273  34.3532157  26.5857601  70.5824471  34.2322135
 112.8254422  62.2621298  31.9006181 113.1788122  61.9274521  32.7248478
 111.8792480  62.2951555  32.0415354  57.0679760  81.7197227  33.8380623
  56.8781614  82.6524544  33.7370229  56.5116072  81.4394283  34.5647788
  13.9333618  62.6654243  61.0935688  14.6706820  63.0021143  60.5844259
  14.0075684  61.7137909  61.0220098  50.4647303  68.5220766  35.4532313
  51.2672901  69.0437174  35.4576135  50.6555462  67.7841377  36.0322499
 107.3662787  66.1726618  27.9338098 108.1099903  66.2500191  27.3361969
 107.6944279  65.6377029  28.6565614  49.9330854  87.7575493  55.3130722
  49.9835110  86.8060303  55.4042435  49.1184616  87.9976273  55.7546377
  33.9775586 101.6592026  45.3977537  34.0174556 102.0612335  44.5299911
  34.5672607 100.9073830  45.3407526 116.2569636   1.7810954  65.3108597
 116.0347432   2.4846209  65.9207010 117.1599502   1.5508593  65.5295706
  46.4844084   7.6738013  22.9567218  45.6718201   7.6967276  23.4621000
  46.7378056   6.7507590  22.9523993  41.4337111 105.5834007  74.6115732
  40.5045033 105.3872871  74.4918013  41.4808416 106.5392971  74.5948982
  14.8610342  68.9210892  29.7590375  15.3768218  68.9437675  28.9530110
  14.8144507  67.9927301  29.9875426  45.4725218  64.3849564  18.4156871
  46.2566614  64.6245241  18.9096117  45.4073572  63.4352207  18.5156357
  53.6372805  75.9448862  40.8587933  53.5520458  75.8358812  41.8059397
  53.1750917  76.7613697  40.6691170  72.9836416  70.1329851  33.8655376
  72.2290230  70.4621983  34.3537951  73.7363720  70.3412008  34.4189644
  13.3008921  90.1885605  39.0598273  13.0401587  90.7698631  39.7742057
  13.8875759  89.5531654  39.4700694  39.9262118  98.3000946  45.2676296
  38.9937067  98.1218433  45.3896618  40.1673746  97.7936459  44.4920111
  26.9776750  82.3319435  69.2964411  27.8312016  81.9186115  69.4263697
  26.5368533  81.7746830  68.6550522  17.1220028  61.7747593  43.4504175
  16.8410540  61.4811993  42.5837421  17.8821802  62.3309660  43.2801247
  57.6968479  91.9094372  20.3033233  58.5112000  92.2157097  20.7023931
  57.7644968  90.9548473  20.3233886  22.9058409  91.2409592  59.2062473
  22.9343748  90.4741001  59.7783947  23.7557268  91.2429905  58.7658834
  34.8053622  76.1951160  53.9568758  34.9515390  77.1123695  54.1882038
  35.6409478  75.9041023  53.5917187  27.6148725  55.3779030  17.4091375
  27.0526600  54.9632549  18.0635214  27.0065093  55.7320976  16.7605495
  31.0799146  85.9122086  73.9847231  30.7316065  85.8796787  74.8757124
  30.5623484  85.2680683  73.5015678  20.9074831  85.5872059  59.3493032
  20.6608868  84.6875858  59.5640469  21.7531371  85.7129860  59.7797441
  29.5147586  72.4589396  32.2202277  30.2272987  73.0243349  31.9221616
  29.3558383  72.7303314  33.1242871  27.2766662  93.2469177  56.4625216
  27.4393654  94.1879463  56.5276241  27.0170832  93.1112194  55.5512428
  11.0336364   2.7243365  73.3846951  10.8646453   2.4599875  72.4803734
  10.2327789   3.1724108  73.6568928  51.1000490  74.9378777  39.9741459
  51.9866562  75.1727009  40.2480459  50.5751896  75.0137901  40.7710075
  46.7236280  59.4852495  65.3634167  46.7052794  59.9663067  64.5360804
  46.4345551  58.6021900  65.1334763  59.6417522  90.2478790  51.0189581
  59.9442291  90.6983376  51.8075132  60.1836300  89.4603348  50.9702492
  45.3140736 110.2078629  95.0964642  46.1664248 110.0918674  94.6766186
  45.4946947 110.1230717  96.0326385  25.5262589  76.8431187  16.6037869
  25.2949619  77.6470518  17.0690095  25.8619189  76.2603521  17.2849238
  58.0745316  81.0550785  37.2930717  57.4457359  80.7821274  36.6249800
  58.4050989  81.8974304  36.9809604  90.6436223   3.6720122  52.3339796
  89.9400348   3.2730521  51.8220901  91.3298530   3.8585413  51.6932583
  56.1670303 102.2089195  54.2808342  56.5624714 103.0746460  54.1789579
  56.8443203 101.6850948  54.7087526  88.6344433  98.5306835  17.3573697
  89.3632984  98.3617020  17.9544032  87.8580093  98.5155678  17.9169607
  36.0428221  37.1910714  13.7189536  35.6312782  37.3180150  12.8641181
  36.3431437  38.0639505  13.9721827  44.4884253  79.3294287  23.9293909
  44.9993181  78.6116886  23.5551214  45.0178909  79.6435165  24.6623611
  27.9836655  76.1883974  40.3626490  28.7883806  75.9869766  39.8850584
  27.4025702  75.4514360  40.1743841  88.7224388  84.9034786  21.7713523
  89.0034294  84.0294075  21.5006495  87.7726555  84.8311806  21.8658113
  90.2767467 101.1156273  38.2766509  90.6950092 100.7517338  39.0569520
  89.6869564 101.7900944  38.6135197 114.4524831   8.4131087  25.4195619
 114.3827266   9.3546999  25.2621841 114.6743745   8.3412302  26.3479090
  76.3869858  91.7833805   5.3886461  75.6714392  92.1758270   5.8888578
  76.5834379  92.4261189   4.7070804   1.8918813   2.1167601  22.5589943
   2.7697433   2.4673403  22.4083614   1.4368022   2.8086127  23.0390692
  59.5608711  80.8201790  34.1805863  58.6215448  80.9887314  34.1065216
  59.9660015  81.6840172  34.1038752  54.8499012  66.6774559  50.6127596
  55.7372665  66.3865662  50.8229923  54.9521875  67.5950289  50.3601170
  71.5256310 106.3173580  33.2863498  71.3156271 107.2356796  33.4560919
  72.4796820 106.2998581  33.2107830  42.5100517  79.6866941  87.8395271
  42.9986525  78.8829231  88.0168819  42.6887941  80.2471924  88.5945892
  49.1768646  97.9361057  32.8598213  49.7172070  98.4687328  33.4434056
  48.2841063  98.0570126  33.1832266  26.5254021 107.9047489  36.1395073
  25.9292889 107.1567345  36.1763644  25.9990287 108.6455345  36.4401674
  35.3388309  93.1634808  45.0179100  34.5351720  93.6692047  45.1387691
  35.9923458  93.8115215  44.7548723  44.3334055 105.0023270  58.7054300
  43.8345194 105.6493664  59.2041111  44.5967388 104.3504238  59.3549776
  58.2869834   9.7706736  63.7084866  58.1304163  10.0573004  62.8087282
  59.2154259   9.9488009  63.8584709  37.8251004  94.0397549  41.9555187
  37.7905989  93.2127762  41.4747286  36.9164419  94.3395329  41.9819260
  30.9344673 100.8813858  87.7881050  31.5221643 100.1267719  87.7506256
  31.1516070 101.3930130  87.0087910  55.8818340  77.8112555  49.2803001
  55.7158422  77.9515982  50.2124929  55.4942942  78.5737276  48.8505602
  86.9938773  16.2920512  33.7476897  87.3439807  15.4049624  33.6656475
  87.7677792  16.8553103  33.7543225  58.8064766 101.4218712  45.4287434
  58.7122631 101.3973618  44.4765091  58.0370331 101.9029713  45.7332563
  20.3885902  16.0512484  33.9943600  19.5924819  15.7044829  33.5916114
  20.7778133  15.2996291  34.4413543  69.9062443  80.8136559  33.8491106
  70.2269888  80.8363342  34.7506881  70.5227661  81.3601017  33.3617425
  61.3157225  88.1736851  51.3916826  61.7117548  87.3060417  51.3105917
  61.5840244  88.4794044  52.2581625  65.0853682  72.3200083  41.0218191
  64.9089479  71.4859915  40.5864716  65.0381660  72.9705620  40.3212595
   3.9801563  17.2537936   8.2884645   3.4916366  18.0738772   8.3595568
   4.6450389  17.3108233   8.9746892  54.5247650  80.2189159  48.6232042
  55.1982737  80.8616447  48.4006834  54.4879913  80.2318668  49.5796061
  26.0756952  58.8306665  11.5537314  26.7653114  58.3752679  11.0707526
  26.2066061  59.7552728  11.3435320  50.8780956 104.2651367  25.8215642
  51.5930891 103.6832905  25.5637431  51.3144398 105.0631142  26.1200237
  38.3950925  94.3075466  36.0228872  37.7927661  94.0412140  35.3282642
  38.7333703  93.4843540  36.3752389  18.0879050  54.7681989  81.1393900
  18.1947499  54.8864736  80.1955541  18.6451846  55.4414643  81.5297492
  99.7369307   4.4414176  33.2278562 100.6439990   4.3040980  33.5009909
  99.7973937   5.0564707  32.4969077  73.6110926  74.8293924  32.0783353
  72.7975655  74.8329067  32.5827122  73.7959528  73.9022541  31.9284248
  56.9706202  89.7799969   4.4987434  57.5046921  89.3397808   3.8375238
  57.1750641  90.7089996   4.3920982  48.1553173  82.2575283   6.0437775
  47.3677874  82.0773506   5.5303907  48.7688780  82.6383591   5.4154915
 112.8496236  43.9621104  62.5392437 112.2456187  43.3605231  62.1039200
 113.5716170  43.4061945  62.8323603  63.0233067  12.8632868  42.7537823
  63.7156648  13.0128230  42.1099567  63.4559840  12.3918856  43.4656811
  35.7018855   6.8484343  63.4695482  36.4190740   6.2990607  63.7858677
  35.4331345   7.3558653  64.2353964  14.1508591  93.4695625  25.6051254
  13.9503813  94.2484379  26.1241603  14.4643009  92.8298473  26.2444592
  60.1089239  75.5207872  42.8911877  59.6471977  75.1300669  43.6330652
  59.6167231  76.3181448  42.6957703  65.6319904  76.7602444  26.0538292
  66.3893938  77.0475292  25.5438852  65.9989262  76.4876270  26.8948221
  66.4521742  65.8166552  52.6147556  65.5181646  65.6131315  52.5653791
  66.4991617  66.7620325  52.4723244  65.6305408 107.3337841  11.1596048
  65.2875900 107.5904846  12.0155978  65.3091860 106.4414120  11.0306287
  61.5691132  17.6645316  44.4387150  62.0189113  16.8633593  44.1703129
  61.9139141  18.3399428  43.8546276  52.3108721 103.4954739  66.7730761
  53.0257368 102.8935623  66.5659571  52.3062229 103.5418606  67.7291393
  49.9385023  73.6190796  29.7771239  50.2463675  74.2238903  29.1021013
  50.5694056  73.7151098  30.4905438  75.2619219 104.6943760  47.6750708
  74.6287584 104.3124771  48.2829237  75.1483154 104.1954708  46.8661118
  44.7908497 100.6735706  32.1711135  45.2540588 101.0738850  31.4353013
  43.8684750 100.7005024  31.9166851  46.7914391  60.3993130  58.6199427
  47.6368332  60.1340675  58.9821339  46.3932562  60.9332705  59.3073845
   0.7294429   0.9930933  48.5771227   1.4238895   1.6452254  48.4837866
   0.0546897   1.2714423  47.9578781  74.7204346  16.2292613  24.2028403
  73.9509863  16.7986144  24.1999507  74.4312710  15.4381217  24.6575022
  16.8393183  86.8710041  48.6304808  16.0269237  87.1764851  48.2268381
  17.0994425  87.5835991  49.2142344 106.4954108  12.8954066  41.0508013
 106.9911546  13.2778681  41.7748117 106.1144084  12.0971621  41.4166975
  63.8091612 101.8948841  40.1383162  64.5778847 102.3731136  40.4491138
  64.1545820 101.0527706  39.8420715  93.7853497  22.0172919  62.1829462
  94.2727870  21.5630187  61.4957285  94.2399329  22.8532923  62.2863531
  61.9880676  91.3422680  40.5934858  62.1276999  92.2853470  40.5078030
  61.9131565  91.0283852  39.6923232  47.7150726  96.2492657  72.2153330
  48.5402012  96.7282391  72.2926760  47.2630262  96.4157963  73.0424690
  39.1987729 108.2294846  31.7503262  38.5581827 107.9465485  32.4028802
  40.0475216 108.0720806  32.1639419 113.9326781   7.1225966  47.1224499
 113.2187528   6.5889967  47.4714756 113.9156073   7.9206313  47.6507282
  52.3375320  90.7791996  27.8484321  52.5742102  90.6606007  28.7682939
  52.9648781  91.4237022  27.5208807  23.2776702   5.6617869  37.6116753
  22.3347533   5.6208361  37.4520946  23.6444820   4.9726714  37.0577765
  77.1342820   7.9268111  10.6898355  76.7044228   8.7422026  10.4317796
  77.1936292   7.9788340  11.6437769  68.9063311  98.8954830  50.6737900
  69.8074532  98.5921192  50.5634308  68.9859772  99.7031879  51.1812305
  51.0050488  66.8941069  21.9023037  50.8031845  67.5114775  22.6053953
  51.2787819  67.4463224  21.1699343   1.5258897   1.4311350  55.7787418
   2.1809924   1.2929286  56.4628267   0.7424081   0.9880198  56.1043644
  64.6624947  66.7923546  54.9832916  65.3356218  67.3660469  55.3493690
  64.8459959  65.9339142  55.3649187 100.4023045   8.5918845  54.2917061
 101.3094968   8.3796824  54.5112610  99.8797292   8.0221785  54.8561382
  20.2108264  86.2585831  79.8656368  19.3786383  86.4194489  80.3104019
  20.3268242  87.0167637  79.2929792  95.0482273  90.0053120  18.3698058
  94.3790054  89.3479633  18.5602403  95.8449459  89.4980049  18.2145655
  49.9621630 109.3650246  51.1503220  50.4606390 109.1761684  50.3552818
  50.5764198 109.8385048  51.7113447 115.7741612  21.8902625  37.9950619
 116.5877313  21.6965235  37.5294471 115.6201190  21.1182154  38.5395336
  80.1414460  12.4994887  51.4888954  79.5558328  13.2057799  51.2160492
  80.9286755  12.6227225  50.9585094  66.6271210 103.3906269  60.3749275
  67.0752525 103.6112785  61.1914539  66.0968494 102.6239586  60.5923605
  14.8222458  63.8596296  45.4653454  15.2238417  62.9943037  45.3868389
  13.9644659  63.7640285  45.0514555  17.9332984  28.2006491  25.6140757
  16.9793380  28.1298865  25.5797696  18.2353557  27.7509631  24.8249149
  28.8416910 107.7072620  41.8806505  28.2341456 107.7468014  42.6192713
  29.6370673 107.3191166  42.2452736  50.8642244 102.8385830  14.5336783
  50.7647085 103.0598545  15.4596186  50.3427505 103.4958744  14.0729594
  42.2802782  81.7978764  38.1844926  42.8866816  82.5384140  38.1952047
  42.1210718  81.6320992  37.2552991  62.5916719 106.6525745  31.2236571
  62.4399567 105.8443642  31.7135644  63.5295010 106.8183899  31.3196611
  52.0094508   6.7718352  43.4981441  51.4462954   7.1571291  42.8268528
  51.5339738   5.9950484  43.7927055  21.2071085  62.7930880  51.6237354
  20.9997773  61.9668341  51.1872149  20.4418731  63.3459997  51.4658356
  65.2192163 107.7784824  43.2596254  65.2436733 107.2216511  44.0378094
  65.9862709 108.3445358  43.3459425   4.8242439  13.1096304  72.6293612
   5.5354655  13.2698000  73.2496357   4.0797389  13.5920371  72.9888582
  68.4670353 107.9339218  49.8127842  68.4951401 107.5105190  48.9547825
  68.6906147 107.2379589  50.4307508  68.7680912  91.7647743  40.7755899
  68.8924408  92.5606060  41.2927103  67.8181124  91.6707611  40.7053709
  61.7605066  67.2089577  22.0571923  62.0042181  66.4120865  21.5861988
  60.8537388  67.0607090  22.3255730  50.0624609 106.1984348  29.9121761
  50.0495720 105.2440357  29.9841285  50.6531477 106.3754749  29.1800714
 111.9525146  85.0334549  36.1034322 112.1282673  84.1317368  35.8346486
 111.4435005  85.4034901  35.3821731  56.4403826  14.9509943  15.8120155
  55.7974714  15.6154002  16.0599172  57.1041125  14.9912871  16.5005434
  24.6437025  71.1555767  65.9496737  23.8702464  70.6312370  66.1571980
  24.3011761  71.9057369  65.4637051  47.6442623  82.6567841  46.5111732
  48.1293678  83.4801769  46.4571524  48.3133554  81.9782352  46.4210606
  64.1086340  74.0891457  54.0947914  63.4022188  73.9272404  54.7200871
  63.8585043  74.9023104  53.6561203  57.3490906 105.7389355  56.4172840
  57.5689363 104.8230553  56.5877199  57.6238680 105.8868217  55.5123758
  32.2105885  64.7678900  18.5797441  32.6121569  64.3289328  17.8298843
  32.4259448  65.6927538  18.4594083  49.7527218  82.4790001  51.8171167
  49.5341444  81.5474415  51.7917442  49.3975067  82.8306866  51.0008001
  63.0957794 109.0185070  82.2730064  62.9191494 109.3728924  83.1444740
  63.5175323 108.1752777  82.4383163  89.5693416  18.0499972  44.3586540
  89.4489926  18.7702025  44.9775743  89.6544475  18.4780158  43.5067225
  49.3615007  80.6939697  45.7446814  48.9601707  80.8262539  44.8858023
  50.1355505  80.1594448  45.5675888  44.4848490  89.6521091  30.0209928
  44.2181349  90.3854942  29.4666958  43.6989021  89.1110420  30.0968885
  85.4818601  15.7130373  25.0081444  86.1036319  16.2014330  24.4686103
  85.2387732  14.9592627  24.4705892   3.7359489  20.1090468  52.1314478
   3.4096778  19.7047842  52.9354095   4.6174587  19.7517050  52.0243359
  48.7796640  75.0591135  42.1642256  47.9598856  75.5023384  41.9457197
  48.6134291  74.1372728  41.9672108  41.2188482  73.0048466  45.2962255
  41.9393396  73.1551886  45.9082079  41.0152197  73.8729239  44.9480820
  67.9189605   4.2373408  38.5220337  67.2829551   4.2932261  37.8088665
  67.9624862   3.3043707  38.7315726  47.5379324  88.1492519  35.5848098
  48.1361103  87.7676964  36.2273240  47.1151018  87.3952198  35.1738620
  53.2497120 105.7424068  32.6656389  53.8323307 105.5269432  31.9373798
  52.6885939 106.4392567  32.3253655  51.3564014  68.1719351  52.4532843
  51.7221498  67.7798367  53.2461977  51.8799448  68.9608526  52.3127747
  82.9878348  18.0906714  58.3627033  83.4570092  17.2626627  58.4652281
  83.3060426  18.4450472  57.5324059  55.6573200  83.7769699  31.6299653
  55.0778437  84.2135429  31.0055876  55.7505751  82.8875446  31.2887049
  50.1277637  87.5868130  43.2248783  49.8977613  86.6687107  43.0819988
  50.2692413  87.6541328  44.1691685  83.7084407  26.6507090  66.6699791
  83.5301227  26.5881480  67.6083422  83.0905646  27.3090685  66.3521338
  54.0612596  18.4597147  25.9616518  54.0389306  19.0766371  25.2301216
  54.0605778  17.5968112  25.5473590  59.2793083  71.0133696  14.0912795
  58.5046291  70.4631996  14.2071176  59.2515135  71.6242599  14.8276711
  25.1026773 103.2653046  70.8812189  24.8110390 103.1803989  69.9734926
  25.3123760 104.1940594  70.9795427  43.2525730  77.5339365  42.7834749
  42.8731728  77.7094364  43.6445713  43.9602327  78.1729078  42.6988029
  31.5709329  84.1469002  85.1137447  30.6973529  83.9683819  84.7655773
  31.6507173  83.5656357  85.8700562  97.1040315   4.5355738  40.3180790
  97.7509278   4.9939669  39.7817588  96.2720364   4.6835936  39.8685217
  86.4029503  63.4710979  26.6457295  85.9810448  62.7267218  26.2166309
  85.7760048  64.1883326  26.5522432  97.8452587  96.9571209  42.2089481
  97.1836472  96.8225098  41.5304375  98.0731773  96.0741138  42.4997807
  27.3729873  57.3239565  59.5109940  27.9147506  58.1121206  59.4719505
  27.5080538  56.9840527  60.3955555 102.1333999  19.1034544  29.0135741
 102.0417565  18.1783904  28.7853408 102.2375888  19.1062106  29.9650812
  50.4946470  51.3577986  38.9702225  51.1600399  50.6928730  38.7931323
  50.1343966  51.5713263  38.1094933  52.0987368  99.2879391  54.2225075
  52.4733543  98.5161114  54.6469736  51.2586117  99.4189644  54.6621084
  42.0796061 103.6618805  38.2582235  42.2700787 102.7822208  38.5840535
  41.1562014 103.8005447  38.4687567  76.0091114  52.7717113  24.0697646
  75.0742912  52.9755974  24.0975475  76.2885618  53.0474997  23.1967926
  92.2552270   8.3315505  76.5498018  92.0805282   9.0505446  77.1570539
  91.3893432   8.0578936  76.2471724  73.0776501 101.4898109  65.0597477
  73.6323214 100.8463383  64.6187115  73.0794430 102.2480583  64.4755459
  41.2553930  85.9559155  53.7477016  40.6142235  85.9814644  54.4579697
  42.0196533  85.5249500  54.1303349  51.1050606  72.4615574  38.2326317
  50.2903795  72.3043728  37.7553272  51.1326694  73.4107256  38.3532548
  57.0668697  77.2214270  39.1813827  56.3110876  77.8084993  39.1622162
  56.7144775  76.3873816  39.4918942  59.6880669   2.6471842  55.2540922
  59.5822495   2.6274432  54.3029642  59.3534702   1.8005599  55.5499268
  51.3019466  97.6967621  44.7127819  51.7938662  98.1480694  45.3987646
  51.8676329  97.7436924  43.9420462  46.8179083  85.4608822  42.1050262
  46.1718941  84.7857094  41.8975687  46.3191414  86.1365414  42.5643110
   7.5506175  39.9366606  58.6266708   8.4988750  39.9950541  58.7433672
   7.1899474  40.1451052  59.4884729  42.2242165  95.2716827   9.1555405
  41.5449667  94.6136761   9.3034291  43.0456972  94.8097038   9.3227965
 111.4135331  10.2481211  35.7883596 111.3603610   9.3549574  36.1284375
 111.0044068  10.7869757  36.4654803  59.8073006  93.1932735  48.4495258
  59.0890408  93.8258743  48.4619188  59.4086456  92.3725605  48.7388849
  45.9844351 104.7079659  29.5808554  46.8300247 104.2878056  29.7379255
  45.7762337 104.4945621  28.6712694  70.5894804 102.1446228  47.0146418
  69.6943331 102.4137402  47.2208500  70.8072567 101.5007019  47.6885653
  41.5730238  91.0984325  83.4958649  41.1769485  90.2280140  83.5375023
  41.0546589  91.6267395  84.1028500  94.2904758  77.3542738  19.0802622
  94.7846603  76.9144058  19.7720265  94.8833561  78.0324602  18.7565422
  95.5104828 100.7376671  43.0691147  95.0978088 100.2674389  43.7935591
  94.8549938 100.7259750  42.3716688 111.7164821  14.4990386  37.1361542
 112.6452941  14.2795981  37.0627975 111.6808146  15.4434813  36.9845486
  40.9095001  96.9255161  33.2093787  40.8473825  95.9821415  33.0596614
  41.8389559  97.1250916  33.0974984  76.7992968  35.1355875  45.8548498
  76.7715687  35.7220210  45.0988293  77.7120155  35.1584376  46.1423445
  42.6438046  52.6697016  71.6826916  43.5972834  52.6612854  71.5987921
  42.4157906  51.7693615  71.9142723 107.4208087   9.9951685  38.8238668
 107.4474353   9.8825110  39.7740412 106.6667622   9.4771327  38.5422993
  29.9761391  50.7598686  15.3879678  29.4856906  50.6647348  16.2044501
  29.3521643  50.5167150  14.7040343  42.1697521  82.6464653  61.1528492
  42.6238489  83.3728218  60.7257366  42.3400927  82.7731705  62.0862055
  11.5957320  96.9095993  50.0146437  12.0247769  97.6757050  50.3957367
  12.1622574  96.6554451  49.2861605  15.7644451  89.3145466  73.5718536
  16.4644682  89.0048695  74.1465664  15.7803428  88.7115288  72.8286457
  48.8837719  99.7144222  49.0540218  48.4094143  98.9182091  48.8147402
  49.5379353  99.4219112  49.6886396   4.7110900 105.9484482  28.1928658
   3.8738149 106.0399818  27.7380872   4.6704578 106.5910625  28.9011216
  68.1822395 104.4111252  50.8867455  68.1397057 104.1252518  51.7992687
  68.8282013 105.1174927  50.8869076  29.9638534  69.6210766  35.3024554
  30.4867983  69.1448784  34.6574759  30.4370642  70.4424763  35.4351330
  36.2231922 100.8556271  71.9459200  36.9885039 100.4815960  72.3825359
  36.1823702 100.4021645  71.1039352  56.3020611 101.3989544  51.2056446
  55.6493855 101.4408493  51.9045639  56.1869526 102.2164154  50.7211351
 112.6493901  24.7924174  58.9971828 111.8322343  25.2807177  59.0974569
 112.3951692  23.9916647  58.5384846  89.4307012   1.9182814  44.1865730
  89.4725961   1.9023837  43.2304239  88.5920590   1.5073431  44.3964338
  65.0876951  73.7814760  35.8719683  64.5352316  73.0619431  36.1773944
  65.9813023  73.4924221  36.0567641  61.7993069  38.5574603  14.1203046
  62.0247173  38.6335087  13.1931376  61.0328865  37.9841924  14.1342247
  94.7120923   0.4071177  86.8546391  94.5133990  -0.4258691  86.4269924
  94.7884768   1.0335959  86.1349678  62.8597683   8.1292571  55.3530979
  62.1696323   8.3560217  54.7297812  63.5593957   8.7577570  55.1749229
   8.5708940  81.3927174   8.3470201   8.7598008  81.1916256   9.2635930
   8.1529504  80.6005955   8.0092371  15.3155101  22.4831046  31.3134718
  15.4270900  21.6942442  31.8440318  15.6744445  23.1874693  31.8531561
  43.8443899  80.1128292  61.7099571  44.0154028  80.8863831  61.1727381
  44.1190100  79.3763590  61.1636734  69.0332127  99.5253277  47.8861856
  68.7850523  98.9818287  48.6340189  69.6546316  98.9877796  47.3951578
  83.7796801   6.2752570  22.2258544  83.3553809   7.0922793  21.9638014
  83.9924067   5.8402861  21.4001536  10.9262800  99.1072559  29.2710900
  10.0130475  99.0920830  29.5574641  10.9510064  99.7739410  28.5846901
  91.8328494   8.4096945  66.9364023  92.1089906   7.9061926  67.7022123
  92.4522370   9.1381682  66.8926430  55.2593327  69.6212673  40.1491642
  56.0308456  70.0771236  40.4856014  54.8077154  69.3051577  40.9316874
  54.7057295  78.9229345  39.3000102  53.8400221  78.6062860  39.5579171
  54.5345163  79.7535610  38.8561893  31.6945577  84.6667576  41.3205481
  30.9481502  84.2178917  40.9235287  31.3336825  85.0872517  42.1010542
  36.9618034 102.2300625  78.4528255  37.1992588 103.1509686  78.3443403
  37.1220541 101.8386364  77.5941420 104.8309362  62.0392846   1.2503294
 103.9408410  61.6974305   1.1661105 104.7147692  62.9327630   1.5734915
  42.1068078  36.3512887  88.1524046  42.3408967  35.4767408  88.4632011
  41.1991578  36.4699449  88.4322597  49.8535681  79.8527861  51.3375950
  49.7188616  79.1662025  51.9908094  50.4263353  79.4521523  50.6836367
  84.9602860  19.7150458  68.6801195  85.2013987  20.4396189  69.2572498
  85.6653899  19.0769804  68.7893724  55.7182550  98.5069752  28.5861516
  55.0669479  97.8606987  28.8588405  56.3542366  98.5225582  29.3013549
  13.1345046   9.9362315  35.9382653  12.3554290   9.3801154  35.9375000
  13.1528247  10.3216208  36.8142605  50.4308033  57.3729801  32.3610568
  50.0132036  58.2113218  32.1635103  51.3685226  57.5478506  32.2814226
  82.0993137  98.9578438  29.0679622  82.9541397  99.3884659  29.0601134
  82.1034527  98.4318066  29.8676491  57.1141100  99.5419979  68.7085390
  56.4407444  99.7052860  68.0481243  57.7960873  99.0596867  68.2410812
  74.5608234 110.2795506  57.6403904  74.4458151 109.3359184  57.7524996
  73.8405180 110.5422115  57.0673323  54.7210073 102.1215248  47.8354645
  54.4315958 102.4342155  48.6926079  55.6525898 102.3390961  47.8031683
  34.3310857  62.9205656  19.2422247  34.4707942  63.8660812  19.1901112
  33.8061047  62.7130604  18.4692001  47.5457668  97.5127506  48.2946014
  47.4442434  97.0116806  47.4853706  47.7045488  96.8510056  48.9677382
  63.7462568  90.2550125  31.3031125  64.2800522  89.4811249  31.1231232
  64.3175840  90.8258438  31.8168950  61.5568012   3.5901392  57.0321751
  61.7812008   3.0622138  57.7984524  61.2077373   2.9604567  56.4013910
  94.3571061   3.5921038  44.6424294  95.2062911   3.1631888  44.7480297
  94.2642707   3.7100543  43.6970711  57.3952198  64.5506334  37.8785396
  57.7984190  64.9343538  37.0998096  57.9615259  64.8232508  38.6004877
  43.1561184 100.8957863  77.8771067  43.1139612 100.8860016  78.8333321
  44.0693140 101.1040020  77.6797390 115.8955974  18.1193102   9.6300060
 116.2762135  17.9925097   8.7609357 116.4860839  18.7362326  10.0624037
  77.0425606 105.7055855  51.0168743  76.6214132 104.8825359  50.7689810
  76.6260290 106.3645649  50.4614544  88.4961414 107.6604462  64.0735531
  89.3838692 107.4045944  63.8230991  88.3753872 107.2841072  64.9453402
  82.2588730  97.5038433  77.3286343  82.8227901  97.0009232  77.9162550
  81.4014530  97.0848179  77.4026871  10.3196586  14.9863375  28.5664535
  10.6118453  15.8901537  28.6846566   9.6342624  15.0413455  27.9005432
 112.7874392   1.8275107  23.9233422 112.0886249   1.9456137  24.5667291
 113.2673758   2.6555956  23.9362860 108.9842481  21.8602408  38.9731431
 109.7107381  21.3564719  39.3401122 109.1924447  22.7701224  39.1852999
  70.3893900 107.5904179  83.3813763  70.4783773 106.6594505  83.5853863
  70.7562113 108.0387402  84.1434002  98.9685458  10.7246436  31.4654422
  99.0777654   9.8123969  31.1968851  98.5628432  11.1498106  30.7098818
  64.7172880  93.8559437  41.3794756  64.9217939  94.0462399  40.4639435
  65.2618742  93.0985832  41.5941143  10.4756797   9.1447104  81.4767742
  10.9576572   9.6859873  82.1020317   9.9504913   8.5589541  82.0220280
  92.6573199  18.2873190  34.5754910  92.6117772  19.2311705  34.4228673
  93.3141202  17.9754389  33.9529324  94.7812176  98.8078308  44.8250580
  93.8875771  99.0614414  45.0559616  94.6728802  98.0886936  44.2026949
  22.8445941  22.5159063  83.6413045  23.1679040  22.9196443  84.4467206
  23.1686050  23.0835809  82.9420252  83.9134884 106.9194031  24.5481133
  84.5300484 107.4699974  24.0654874  83.8738918 106.1061764  24.0447998
  51.2530231 108.0185795  31.8682384  51.0292244 108.7897873  32.3891973
  50.4114628 107.6010609  31.6847086  35.0626349 102.9543400  42.7068615
  35.1816201 102.1000290  42.2918510  35.1359868 103.5821247  41.9880199
   5.7033885  47.8140105  64.8548269   6.0011352  47.9564227  63.9563322
   6.3744033  48.2275713  65.3979063  77.5510454  98.9764881  66.2800550
  76.9669867  98.3047676  66.6320372  78.1034470  98.5091305  65.6534290
  66.0428381  91.4102650  41.4646244  66.1518192  91.1002731  42.3636532
  65.5466747  90.7163143  41.0304737  99.1612929   6.1524714  47.7276707
  98.4012574   5.5776633  47.6372433  98.7933654   7.0360602  47.7387762
  84.6700859 106.8573475  48.8558054  84.5833302 105.9361362  49.1008949
  85.4467010 107.1585464  49.3273735 113.4179592 105.4460430  61.9605589
 113.3401203 104.4920540  61.9698524 112.6722336 105.7421207  61.4385796
 108.5314340   9.9673975  44.2133951 108.7731379   9.3278063  43.5435200
 107.8764647  10.5221117  43.7896776  38.7634873 102.8127480   3.2353652
  39.1060114 102.4771023   4.0637669  38.8132906 102.0679092   2.6362300
  93.3375997   0.2650488  45.2312565  93.6445493  -0.6215726  45.4207611
  93.7924165   0.8170451  45.8673954  96.9468230   2.1121539  60.2481222
  96.1328906   2.3678912  60.6821108  96.7133588   2.0436800  59.3223572
 112.5061196   4.3323935  45.0790739 111.6474551   3.9944781  44.8246288
 112.3845261   4.6446932  45.9756899  82.2306919  98.5095787  48.2633877
  83.0616474  98.6329556  47.8045559  82.2427177  97.5927830  48.5383129
 104.0135831  33.6996211  31.2318826 103.9205998  34.1079653  32.0926046
 103.1885356  33.8906802  30.7857561  75.4322046  61.8111075  45.5373621
  74.8064250  62.4035872  45.1207161  76.1561173  61.7504347  44.9140644
 109.8055905  16.3573683  44.4867086 110.0828284  16.6429556  43.6161804
 108.9112729  16.6873492  44.5735073 111.5071869  87.3528576  41.0145998
 110.9831047  87.0109272  41.7389345 112.0094776  88.0705929  41.4003229
  36.8283796  94.4773865  49.5645857  36.2731838  95.2395916  49.4001389
  37.6065183  94.8355675  49.9917173  61.7695790  70.5968274  91.9587030
  61.3869744  71.2756623  91.4028000  62.5962335  70.9727754  92.2612544
  88.4995574   3.4992159  28.9804339  88.8110274   3.4511317  28.0766058
  89.2289037   3.1659735  29.5031571  21.0042442  21.2203730  30.6356716
  21.3932479  21.9633807  31.0970259  21.6963542  20.5593337  30.6197643
  98.3111286 109.1554165  13.2797027  98.2863140 108.4083271  13.8775885
  97.3939514 109.3140793  13.0564356  87.8249329  38.4823454  42.8463411
  86.8699521  38.5306204  42.8025579  88.0658597  37.8693331  42.1517897
  58.7189341  89.0200996  21.2725973  58.8390350  89.0573215  22.2215033
  59.4801998  89.4783783  20.9166622 113.6610955  59.9368132  28.2061100
 113.6106175  59.5280303  29.0701580 112.8334159  59.7070731  27.7837348
 103.3785820  94.1112328  72.2290277 103.1818581  93.3342266  71.7057705
 102.7408695  94.0873051  72.9424572 109.1930199 105.2709103  61.8459034
 108.3264732 105.6062222  62.0759010 109.0262794 104.3948460  61.4981222
  97.0957154   3.2802237  44.6455717  98.0223292   3.5186232  44.6736431
  97.0918721   2.3673762  44.3576050  10.0942195  13.8252867  69.3347311
  10.8170856  14.2002238  68.8316298  10.3446830  12.9112566  69.4691086
  82.3094195  16.7087973  70.7222176  82.6481027  15.8141554  70.6884909
  82.8635520  17.1505774  71.3656473  73.8703984  21.4867819  41.7695856
  74.6259326  21.0720385  42.1859741  73.9012498  22.3956526  42.0683002
  23.1403184  83.3442307  73.5679340  22.4532938  82.7957630  73.1892300
  22.8182554  83.5616493  74.4427109 115.5529517   5.0496520  64.2843056
 116.0977191   5.6883276  64.7442627 116.1727876   4.5322455  63.7701750
 112.0570105  19.9266566  55.0346804 111.9270152  20.5233801  55.7717323
 112.9280156  20.1431597  54.7019577 101.2257070  30.3507842  44.4423485
 101.6604632  30.3704585  45.2948952 101.8636912  30.7322634  43.8392925
  18.4420455  49.9282492  63.5527229  18.3569396  49.2280043  64.1997528
  18.0786956  50.7004202  63.9862728  74.3054247 103.8284588  72.7619600
  73.8088846 103.0451488  72.9988289  75.1117039 103.4918213  72.3710299
  47.6112270  59.3772316  44.1358614  46.7168140  59.6005011  44.3935490
  47.5374365  58.5070324  43.7440205  69.0252465   8.5911025  58.6259747
  69.7022551   9.2155684  58.3653259  68.2027453   9.0096224  58.3718872
  67.7136898  85.0424957  29.2485285  66.7594576  84.9798012  29.2902112
  67.9115057  85.9149361  29.5890450  71.8173170 107.7579021  41.7370987
  72.0907021 108.4316921  41.1146116  71.1917830 107.2214985  41.2500572
  47.9412842  70.8516884  33.1973577  48.7102652  70.8396769  32.6274800
  47.3497725  71.4832783  32.7881718  24.6192992  10.4946650  62.8871775
  23.7441028  10.3554572  62.5254059  24.4868339  10.5111445  63.8350248
  91.4265269  22.7341021  36.9402456  91.0814923  22.2651900  37.7000499
  92.2732419  22.3219622  36.7686582  53.0606508 102.8334999  60.8977175
  53.1106138 103.4225941  61.6505146  52.1228170 102.7292538  60.7369900
  31.7285967 104.1049099  37.5352359  31.7301726 105.0505638  37.6834774
  32.6483703 103.8497162  37.6068354  87.5494021   0.5540312  39.5078158
  88.0436725   0.3408564  38.7163091  86.8214339   1.0927142  39.1977930
  14.8496307  35.5007876  37.3263025  15.5751479  36.1142195  37.2098398
  15.2242435  34.6446551  37.1191311  35.5999816  22.7570952  35.2795887
  36.5526832  22.7193011  35.3642201  35.3017867  23.1466807  36.1014986
   6.8470443  17.0595969  14.4900703   6.1149944  16.4443720  14.4472635
   6.8848289  17.3233069  15.4094493  39.9357247  89.9368763  59.1291618
  40.5767488  89.6494961  59.7793388  40.1109266  90.8711720  59.0167761
  18.5047401  10.6262911  20.6838489  19.4113506  10.3192271  20.6845927
  18.0461658  10.0203551  21.2659025 105.3033084  43.4046210  46.4071751
 105.4007691  44.1290129  45.7891130 104.8827142  43.7973631  47.1720839
  97.3415631  47.9396189  35.9226727  97.4563903  47.8914202  36.8717360
  97.5402945  47.0562495  35.6121969  40.7408029  50.3667821  94.7705862
  40.7126170  50.0112905  93.8822968  40.8685666  49.6013536  95.3309567
  90.2815837   0.5882967  32.5882959  90.0319451   0.8694781  31.7080402
  89.4861382   0.6979025  33.1093383  85.9047717   5.8488024  53.5594130
  85.3461999   5.1046027  53.7839270  85.2970809   6.5804518  53.4515619
  60.6959200 102.2329140  57.0804214  61.1902189 102.6766586  56.3912249
  61.1689615 102.4407864  57.8861809 101.5010804  16.6366995  16.1706638
 101.9186038  16.1323489  16.8689013 102.0258540  17.4345053  16.1048007
  76.1698193   3.7036932  51.5776062  76.5967745   2.9381217  51.9621086
  76.7088217   3.9218939  50.8172798  83.9886397  10.0113142  37.3328996
  84.6563786  10.3504313  36.7367792  84.3868321  10.0769747  38.2008672
  74.1094560  32.4067439  43.0723953  73.9165300  32.7396525  42.1959352
  73.2624763  32.4011744  43.5182953  14.5455676  18.8615789  76.9373925
  14.2308694  19.5529594  77.5197895  13.9877492  18.1093253  77.1353431
  69.8680061   6.3821639   4.4660792  69.7332281   6.9022406   3.6738777
  69.2903513   6.7819727   5.1162302  25.4963398  97.5347042  38.3674026
  25.7996893  96.6320515  38.4644747  26.1970830  98.0649948  38.7468600
   1.1481584  39.3492735  14.6447122   1.5314639  38.9113940  13.8847303
   0.8008254  38.6369837  15.1815915  77.1611452 105.8877850  69.0762520
  76.4308977 106.2174606  69.5999670  77.9429817 106.1724567  69.5494556
  84.3872547 109.2514229  42.1662617  84.0251541 108.4016418  42.4172211
  85.2400875 109.2857742  42.5995445 112.1653813  27.2515334  22.3354983
 112.4782866  28.1439341  22.1873546 111.6649646  27.3052538  23.1497025
  88.4032935   6.2480391  19.7111690  87.6953811   6.8504370  19.4826746
  88.7396306   5.9430731  18.8684916  91.3120288  36.4560736  57.8319788
  90.7373399  36.7390383  58.5432482  90.7554549  36.4725436  57.0533991
 107.1211308  16.7255057  29.6889162 106.6254205  17.2186793  30.3425837
 106.4551181  16.3755930  29.0971160  94.4977826   0.7003344  53.2888460
  94.4791383   1.0879363  52.4138355  93.6881513   1.0012187  53.7013960
  94.3391055  29.2563666  45.3983355  94.4736689  28.3117712  45.3216934
  94.5728606  29.4588698  46.3041925  64.5587868   9.1338957  48.2805109
  64.3295330  10.0388468  48.4920311  64.9561042   9.1844214  47.4111319
  82.0310307 103.7113476  51.2112713  81.0872364 103.5867119  51.1115742
  82.3213577 102.9502583  51.7139578  57.4191427  95.8412933  37.8712773
  56.6035557  95.9917259  37.3933411  58.1070328  95.9753895  37.2193122
 112.8781337   5.9051550  64.7921848 112.4358004   5.2180422  64.2937422
 113.8090867   5.6972636  64.7125673  53.6664438  99.6926594  34.2553210
  53.9738941 100.5990887  34.2457962  52.7240372  99.7577667  34.1008544
  85.0839824  42.1892775  13.8267303  85.5034369  41.4324702  13.4174156
  84.6609038  42.6496924  13.1019890  87.7006024   3.2284773  49.1899967
  88.6493892   3.1759585  49.3052101  87.4596185   4.0733946  49.5698261
 105.1145572   1.0323561  82.9848289 104.9001330   0.8091200  83.8906002
 104.4881267   1.7177428  82.7523327  69.9516678 101.6312790  36.4008188
  70.6444168 101.3574123  37.0019245  69.5460033 100.8130550  36.1141467
  64.7145033 101.8077469  45.3909111  65.0723839 101.5462780  44.5425081
  65.4291201 101.6559029  46.0093784 113.3834428  47.2815550  44.8086786
 112.9611939  46.6670550  45.4089499 114.3185443  47.0959891  44.8945665
   0.7665551   7.8806246  69.9943209   0.3870166   8.4601439  70.6548786
   0.0727714   7.7720774  69.3438530  45.3122425  64.4020557  42.9551458
  45.4822874  63.7594318  43.6438751  44.6680975  64.9980354  43.3373928
 105.6467170  15.3721655  21.3969016 106.2975139  15.3628767  20.6950378
 105.5514974  16.2973917  21.6230035  61.1380243 108.5951042  39.2567825
  60.1907969 108.6101913  39.1198015  61.4999294 108.3611012  38.4020877
  88.9934063 104.2852402  62.5812817  89.2212009 105.1630020  62.2748947
  89.8350048 103.8399982  62.6797199 111.2918395   1.9882430  26.1232042
 110.3808373   2.2712744  26.0445261 111.2359065   1.0844458  26.4334679
  37.0397639  90.6728840  23.5216427  36.8634725  91.5927696  23.3242202
  36.9007850  90.2186680  22.6906157  55.4993486  69.9047947  23.8183522
  54.6364641  70.0242662  24.2150712  55.5776024  68.9587307  23.6955762
  33.9959968  11.1101664  20.7016063  34.4169677  11.9696845  20.6861687
  33.1704009  11.2560881  21.1634946  69.2881346  90.2470970  38.4507608
  70.2291250  90.3578281  38.3147240  69.0929222  90.7813740  39.2206120
   7.9500068   4.4410742  19.6809947   7.3632014   5.1376189  19.9754739
   8.2441867   4.7255934  18.8156974  49.8565912 100.2281380   6.7880833
  49.0919209 100.0105858   6.2549949  49.9095678  99.5208073   7.4308169
 105.6051177   4.9217738  61.7502069 105.6840772   5.7403792  62.2399902
 106.1471099   4.2993487  62.2350359  80.4826230   1.3871516  62.0114660
  80.4469508   0.4623927  62.2559595  80.3366727   1.3905848  61.0654688
  58.8760710  90.3413963  35.1542783  58.3733940  89.5320511  35.0620055
  59.7811174  90.0499535  35.2646923  78.6631060 109.8437309  72.6530886
  78.8546801 109.6354294  73.5674953  79.0469503 110.7103443  72.5193691
 108.4524697  24.2724932  57.0583105 109.3050879  24.5881022  56.7588615
 108.2730168  23.5095442  56.5088320  65.9919310 103.7603092  71.3928843
  66.5710688 103.1517696  70.9340763  66.4923143 104.5746994  71.4440250
  48.3864164  76.2603569  25.7666159  48.8999176  77.0552301  25.9105778
  47.5717640  76.4113951  26.2459445  90.8598441   2.0336665  46.6986942
  90.8814925   1.0803736  46.7823029  90.3770656   2.1920527  45.8874798
  48.8276005  94.7780991   9.2765892  48.2871723  94.7674751  10.0665581
  48.8874912  95.7036114   9.0397888  95.6098747  95.3358936  33.5773993
  95.3790474  96.1714172  33.9834237  96.2692642  94.9601936  34.1607380
  29.1947341  76.4525604  43.1650877  29.9638963  77.0188332  43.2279921
  28.8409019  76.6252232  42.2926044  84.7611827   4.1558779  76.2462568
  84.1589374   4.6661223  75.7047939  84.2229432   3.4487856  76.6019964
  74.9101919   4.5389880  80.5105782  75.0669974   5.1947821  79.8311853
  74.0933079   4.1139735  80.2492428   5.5539668   5.6377829  78.5901022
   5.6189311   4.6849001  78.5265970   4.9464000   5.7886923  79.3141985
  66.0052681  70.3454781  27.1264172  66.4289141  71.1819553  27.3189259
  66.3457918  69.7460985  27.7905107  78.9169687   8.5632456  43.1934452
  78.2596439   8.3212603  42.5410652  79.7159022   8.1231917  42.9031038
  68.6081076  76.4068651  33.3291411  68.5262918  76.1790085  34.2552161
  67.8171492  76.9099712  33.1354856 101.3961953  10.9524191  34.9372053
 101.3057202  10.9923686  33.9851284 100.6194800  10.4768980  35.2318645
  94.0660447   4.2347086  42.0163250  93.7598199   3.4651984  41.5364075
  94.3265981   4.8541010  41.3346386  92.5693893 109.3089294  63.8595533
  92.5208950 109.6447086  64.7546101  93.2463074 108.6330128  63.8936567
   4.5436156  13.8477076  57.9313469   5.1832450  14.0591849  57.2513580
   4.2519820  14.6985568  58.2587957  26.3742042  91.1455727  39.1473269
  25.4483294  90.9030342  39.1343355  26.8389106  90.3125477  39.2269993
  96.0805386   3.6178816  31.0214782  96.6768903   2.8704108  31.0649800
  95.8244866   3.7732161  31.9306183 104.2407006  10.7328261  47.5061226
 104.3529195  10.7747973  46.5564537 104.5232123  11.5922297  47.8189087
  71.5344858  58.9406538  42.0416307  70.7892084  58.5151434  42.4655819
  71.2051916  59.8026562  41.7871666  54.5386934 102.2500038  18.9556909
  53.6777687 102.0877934  19.3413436  55.0951910 102.4792862  19.6999812
  58.9586782 100.2009296  55.6594515  59.3456411 100.9481335  56.1157036
  59.2621517 100.2886677  54.7558832 101.5644550  74.9863863  35.7077050
 101.7152882  74.4414043  34.9353838 102.2005177  75.6971455  35.6272316
 108.0853623  47.2921217  53.9457321 107.2417134  47.5368155  53.5654402
 108.0625075  46.3359679  53.9840698  81.9700623 107.8176498  44.6760321
  81.7193604 107.0213032  45.1442337  82.2572899 107.5097275  43.8164330
  99.9210614  30.8280123  65.2099228  99.3588799  31.3939608  65.7389641
 100.0777692  31.3276232  64.4086361  68.0490112 110.4448700  49.1679573
  67.5907660 110.1766205  48.3715391  68.2999945 109.6224022  49.5884275
  61.7801142 101.4934540  37.5018263  62.2441101 100.7506752  37.1155429
  62.1174335 101.5478230  38.3959675  91.7093849  93.3109856  24.3896914
  91.3418770  93.7485409  25.1576209  92.1945190  92.5672436  24.7470903
 109.6016807  27.7852763   9.9002165 110.1048249  28.4757937   9.4686270
 108.8613337  28.2422102  10.2993846  40.2124310 103.1312370  50.1153851
  40.5550814 103.9406109  50.4945135  39.3787003 102.9907322  50.5641413
   9.3190826  45.8901251  78.4799242   8.4260333  45.6365145  78.2467365
   9.8546661  45.1367415  78.2313204  81.5850514  10.8826483  55.1865816
  80.7746142  10.9703768  54.6848488  81.2956065  10.7811392  56.0933065
  73.4050149  53.6514700  20.3408194  74.3211097  53.3827628  20.2715468
  73.0813044  53.6332358  19.4402015  66.6740704 106.6192341   8.0013955
  66.2509966 107.2480869   7.4167711  66.1159945 106.6020107   8.7788826
  79.1321945 106.5407085  19.4511914  80.0715160 106.3584137  19.4773614
  78.7302065 105.6971931  19.2435396   2.3605866 109.1887760  51.1758614
   2.8780598 108.3938599  51.3045549   1.7317528 109.1846657  51.8975210
  72.2379208  96.1503029  37.7996898  72.3360300  95.2024174  37.8898048
  71.3871288  96.3416290  38.1943750  90.6847066   3.9469088  64.0668821
  90.5143660   4.0526427  65.0028515  90.6688661   4.8382700  63.7183666
  67.8400517 101.5508080  58.4317207  68.2790232 102.3673248  58.6701393
  66.9917393 101.5973473  58.8726664  77.6416969  72.8150797  83.0539799
  77.7616739  71.8840170  82.8670120  78.3438826  73.0283928  83.6685276
  38.4659171 100.8743000  44.2128754  37.8687286 101.1242676  44.9179363
  39.0520930 100.2314568  44.6121073  80.3713322 103.2792568  80.9926605
  80.4073048 102.4044132  81.3794327  81.0978317 103.2957458  80.3696442
  85.5307484  94.6603775  47.1290398  84.7232151  95.1106644  46.8813419
  85.2577305  93.7608719  47.3095083 114.8612595  92.4807739  83.4457397
 114.1579056  91.8698692  83.2259083 114.6318531  92.8070641  84.3158817
  61.1884451 100.5372334  28.4368587  60.6590796 100.2453136  27.6947069
  61.3150358 101.4741135  28.2869720  74.1290140 106.7073631   3.1292263
  73.4281111 106.4836884   2.5169030  73.9957762 107.6365089   3.3167559
  40.1051378  97.4022579   6.6916084  40.8958578  97.6517105   6.2133104
  39.6802473  98.2337475   6.9021577 103.3881825  23.3040560  40.6292200
 104.1448802  23.6073149  41.1308861 103.6410874  22.4357451  40.3156567
  84.2568302  96.1911869  69.0776396  84.1089439  97.1346378  69.0124655
  84.1015053  95.9875488  69.9999428 111.9423551  21.7514170  39.9171400
 111.9402236  21.4499892  40.8256388 112.7164811  22.3106421  39.8521495
  74.6381426 103.4855270  60.5553293  74.1774797 104.3245792  60.5523396
  75.3769875 103.6158180  59.9608850  92.2740907  10.2849139  36.6313148
  92.3869389   9.5281733  36.0561252  93.1219739  10.3854311  37.0640016
  19.6450531  96.3302803  25.0180030  18.7535906  95.9949780  24.9226165
  19.7774601  96.8814278  24.2466784  28.8052810  35.6950892  34.7141099
  28.7227119  36.4057196  35.3500390  28.3006347  35.9915961  33.9567184
  51.6846609  94.0592575  51.5754128  51.8025637  93.2726192  52.1078873
  51.6754532  93.7388039  50.6734896 110.4967469   6.9568671  17.5306964
 110.5729503   7.4574412  18.3430076 109.9015778   7.4725188  16.9865358
  59.6325779 104.7208691  25.1698041  60.2504683 104.3805599  25.8168268
  59.1763973 105.4294109  25.6237721  10.4550422  41.2379206  61.3048077
  10.6305087  41.0057963  60.3929090  11.0688270  40.7047690  61.8100357
  54.4958973  73.9450359  46.8160248  54.1376257  73.8383007  47.6972055
  55.4412794  73.8454628  46.9281626   1.2154353  33.6121691  43.7594795
   1.6833842  33.9142741  44.5379353   1.8911708  33.5448874  43.0848837
  20.9057964   6.6013278  18.0828226  20.7748092   6.7446841  17.1455252
  21.7567409   6.1670340  18.1420815 105.5109805  17.8539027  32.0337319
 105.6816262  17.1950949  32.7068472 106.3388270  18.3262766  31.9455934
  20.6247139 101.9557762  52.2175360  20.1304555 101.5259647  51.5195417
  21.1303830 101.2508488  52.6220083  97.1123856  14.6545161  24.3807912
  96.9118184  13.8264979  23.9444613  98.0249375  14.5655001  24.6556664
  43.8602781  80.5846214  44.8923731  44.3540907  80.2713013  45.6501389
  44.3417168  80.2476978  44.1367722  53.3777571  77.7064180  16.6466868
  54.2062807  77.9915619  16.2613618  52.7071142  78.1546021  16.1313200
  58.1354952  73.3771372  39.3126917  57.4135399  73.9121723  39.6424580
  58.9244461  73.8507128  39.5763493  39.3526966  60.4057836   8.4199099
  39.7595675  59.6145295   8.7729029  38.5044415  60.1113653   8.0882220
  29.5818830  75.3138351  38.3204579  29.3278480  75.7091665  37.4865460
  29.0012860  74.5586205  38.4142232  81.0399646   4.7556437  56.5250969
  81.6263884   5.3986681  56.9236708  81.3052529   4.7269667  55.6058407
  83.2678002  26.0264910  82.1250439  84.2198152  26.1249960  82.1390724
  83.0470103  25.9653224  81.1956596  90.6042957 105.5623150  38.2774949
  89.6954918 105.2675915  38.2188225  90.6258392 106.1187840  39.0560293
  81.2098694  87.9619217  31.4258242  81.4002895  87.1236420  31.8468428
  81.0474205  88.5634613  32.1524596  78.7265462  17.1123923  49.8083305
  79.1547269  17.4169291  50.6084299  78.7143082  17.8797472  49.2362690
  75.2458543  11.9044817  43.0862474  75.1513046  12.8497447  42.9689074
  76.1534709  11.7875803  43.3669567  66.5659857 102.1401310  49.8419523
  67.2956657 102.7378941  50.0046730  66.6356850 101.9246864  48.9119244
  83.7254685  15.3227652  20.2471542  83.6603421  16.2086905  19.8906171
  83.2446164  15.3613604  21.0739112  43.5222292  97.3098660  51.0940266
  44.3612766  97.6908207  50.8349943  42.8662682  97.8900909  50.7076550
 105.1622295  80.4928589  48.6040545 105.2729130  79.8112345  49.2669010
 104.2886925  80.3378868  48.2446861  77.9892653  17.6583899  18.8213563
  78.0039328  18.2678069  19.5593405  77.8602141  18.2151450  18.0534995
  93.4902382 100.9024048  52.7086878  93.0556107 101.6785526  53.0621338
  92.8640270 100.1922798  52.8494120  80.2482128 104.4692230  68.0996656
  80.2462006 105.0481415  68.8619518  80.2399254 103.5863495  68.4693861
  20.2926028   3.7291373  26.7967463  20.2027858   4.6397437  27.0777464
  19.8707641   3.7007655  25.9379792  90.1253605  99.9170303  60.2226591
  89.2795086 100.3650951  60.2256727  90.7260418 100.5365372  60.6369448
  32.3314536   9.7809161  35.6898046  32.6378406   9.1169108  36.3074207
  32.8067744  10.5744589  35.9359550  43.0848026 108.5127449  57.1424866
  42.9808903 107.7504921  56.5729237  43.1567383 108.1454277  58.0234718
  83.6795682   3.5272921  31.5555120  84.1218919   3.9849032  30.8405495
  84.3361634   3.4769953  32.2501945 107.9309386   4.7817839  41.0927582
 107.8862876   4.1462840  41.8071651 107.2749442   5.4415453  41.3177395
  89.3995065   8.4121550  38.5974574  88.8629836   7.9496706  37.9536486
  90.2938193   8.1233252  38.4157538  81.7214584 101.2014389  43.9101648
  81.5991497 100.3979301  43.4045458  81.1500931 101.0951328  44.6707392
  42.5716925 109.7550011  35.7030630  42.3152733 110.5753422  35.2817297
  41.8557978 109.5628262  36.3087010  14.6266616  38.0376566  12.8339052
  14.9406207  37.3273409  13.3934784  13.8671554  37.6692141  12.3826444
  84.6038914  95.5108166  27.2287536  84.3996048  94.5890045  27.3861170
  83.8226032  95.9820747  27.5181437 102.6092214  20.1083506  23.4854746
 102.2286624  20.9185732  23.8245058 102.8915090  19.6314181  24.2659092
  89.3833274   7.5844134  34.4943929  90.2514333   7.4133147  34.8595595
  89.3112630   6.9807566  33.7550473 106.9628716  98.4065914  89.0043640
 107.7642155  98.5979939  89.4916439 106.4816570  97.7975464  89.5644760
 115.4847068  24.1689051  46.5582514 114.7211188  24.1884745  47.1351242
 115.3708142  23.3741797  46.0370398 101.4384192  58.6346854  57.4599552
 100.6518001  58.7338484  56.9236469 101.6473025  57.7019537  57.4085855
  34.3413258  70.0828981  26.8427157  33.6747670  70.2407742  26.1741304
  33.9574361  69.4147730  27.4105763 110.1994819  14.2976607  25.6638765
 109.4293612  14.6039046  25.1849580 110.9414166  14.5715655  25.1246715
  70.7503033  99.1897774  21.8411326  71.4967728  98.7298679  22.2251964
  70.8450699 100.0934601  22.1421480  10.0485004  26.2534655  70.0804090
   9.1703189  26.0140265  69.7842741  10.3121818  26.9652022  69.4971943
   3.0051959   5.9303702  56.7576599   2.0834697   5.7758463  56.9644880
   3.4850848   5.3804625  57.3769665  93.8764477 105.4295158  40.4889774
  94.4075775 104.6443748  40.6219482  93.6212444 105.6983376  41.3714933
  84.7721004  91.3109303  39.5494580  84.5469952  92.2211742  39.3570781
  85.2613831  91.3537025  40.3710413 102.6271600  14.9171294  39.7053003
 102.7437467  15.6142367  39.0597892 102.7486628  15.3502978  40.5501890
 111.1393041  39.6250189  56.1378670 110.4603452  39.7638358  56.7981529
 111.5631122  40.4784621  56.0470104  61.8213034 109.4925117  27.4315596
  61.8449926 109.0186787  26.6002011  61.5489054 108.8366699  28.0733562
  99.2163581   9.2304934  35.5479240  98.4036797   8.9370478  35.1360154
  99.7197980   8.4276999  35.6831670  97.7722949   6.8576373  10.3776896
  98.6616010   7.0943202  10.1143610  97.6664990   7.2504843  11.2441254
  84.2371005   8.5421313  62.6568174  84.1472024   9.4079913  62.2587776
  83.8603705   8.6402262  63.5312796 100.2760190  37.0077551  56.3320446
 100.6642932  36.2308062  56.7343092  99.8308677  36.6765440  55.5520630
  20.1373637  18.9823760  48.7323093  19.3215907  18.6197890  49.0776777
  20.4804576  18.2968081  48.1591463 107.2444552  56.7463149  56.9548178
 107.7406615  56.0542334  57.3918962 107.8910464  57.4296797  56.7782640
   8.7749446  13.2025565  65.6657743   9.5691360  13.1340254  65.1358700
   8.2088817  12.5025118  65.3405857  10.8039726   9.1427649  49.9614573
  10.6300224   9.6701182  49.1817951  10.3151572   9.5787467  50.6594610
  12.5496734  24.7703780  60.8102417  13.4579147  25.0682295  60.7590246
  12.3879493  24.6548308  61.7465782  89.4243068  20.6040038  45.6414557
  89.2243880  21.4708842  45.2882099  89.8309869  20.7791365  46.4900875
  28.8789142  43.0727995  50.3972292  28.6762775  43.7801493  51.0094643
  28.1899703  42.4246062  50.5436468 113.3441180   0.4902686  38.1227374
 113.6969537  -0.0668012  37.4288988 114.1156358   0.7979334  38.5984850
  90.7838267  34.6344889  42.5216198  90.8548659  34.0005911  41.8079233
  90.2567500  35.3461302  42.1583128   4.1622127  22.7633608  37.8076005
   4.6146548  22.2169913  37.1649480   3.8629974  23.5229624  37.3078918
   2.0548213   1.4376868  33.8160944   2.8047431   0.9995116  34.2183924
   2.2472823   1.4294566  32.8784800  22.6494849  28.3967722  44.2954063
  22.9607833  27.9372824  45.0752783  21.7618812  28.6758555  44.5201683
  16.2170470   4.9070300  49.3898821  15.5578769   5.5997313  49.4334173
  15.7199157   4.1161002  49.1812563   0.7308639   7.4790991  22.2310972
   1.3521970   8.1717242  22.4557209   0.2622379   7.8161276  21.4675283
  43.2793093 102.8920078  49.2969656  43.7056303 103.6991596  49.5850563
  42.5216389 103.1882000  48.7925482  25.5238975   4.0556277  79.5056057
  24.7275127   4.2250670  79.0023136  25.7882465   3.1731165  79.2457247
  59.9373674 108.0084133  34.1110659  60.8547211 107.7460575  34.1876030
  59.5033979 107.5801277  34.8489499  92.1874446   1.8394793  54.3305302
  91.8582267   2.3367918  53.5818481  92.2867316   2.4902857  55.0253868
  68.7700266  20.2799929  34.8556662  69.1660971  20.8202876  34.1719723
  68.8229817  20.8171500  35.6461644 116.4116448  41.0893286  15.8698297
 116.1002940  40.3202570  16.3471365 117.1111602  40.7556094  15.3080952
  86.6022986  16.6236914  64.4131279  86.0902471  17.1735133  65.0061941
  86.1907262  16.7461813  63.5576534 106.9270009   3.0265177  57.3309803
 106.5618152   2.6229323  56.5435839 107.0302695   2.3006190  57.9463148
   2.3831142  30.5849112  44.4334793   2.9205096  29.9219836  43.9999247
   2.2833026  30.2637328  45.3296423  99.9447030  61.3319434  57.6868677
 100.7062978  60.7710303  57.8338528  99.3507976  60.7964171  57.1608305
  23.6825622  18.6819113  35.3987336  23.2090533  17.9299963  35.0428843
  24.3420470  18.8853968  34.7354770   5.7820857   9.1768492  40.7071829
   5.8487094   9.0751589  39.7577357   4.8501170   9.0657366  40.8951569
 115.7632274  17.0775736  70.9363604 116.1978358  17.9271353  71.0111618
 115.0769633  17.1000708  71.6032696  27.6907981  24.8896159  35.6766582
  27.7633537  25.6474341  35.0964165  27.9259456  24.1428793  35.1259089
   2.7566493  18.8196887  59.2425585   3.1606830  19.1297949  60.0530052
   2.0528377  18.2393778  59.5325899 105.5849427   8.7743605  74.9147367
 106.3067311   8.5350073  75.4960823 105.0372857   9.3574370  75.4403973
 112.1833104   0.2402342  65.7736635 112.9648656  -0.2034437  65.4441786
 112.3819179   0.4251421  66.6915941  15.9905971   9.7338332  15.4902780
  16.7224372   9.1295851  15.3657222  15.2947105   9.3852843  14.9330580
  85.6530255   3.5175169  23.1195426  85.0783128   2.7607192  23.2344270
  85.2316016   4.0364874  22.4344873 106.0608071  23.6235465  75.4577112
 106.1402005  24.1896285  76.2254906 105.1795358  23.2554282  75.5216455
  90.7035351  97.4327660  29.9331117  91.4027500  96.8238354  30.1708817
  89.9309635  96.8787098  29.8218727  99.4909495  47.3540057  58.1188488
 100.3282660  47.2625483  58.5735655  99.7179145  47.7458418  57.2755337
  63.3487225 101.2403870  48.9735126  63.9128065 102.0078373  49.0687180
  62.4820328 101.6017246  48.7877321  44.0946275  71.3848485  91.6199701
  43.3607560  71.4141359  91.0061316  43.6903363  71.4863004  92.4816485
  88.2923317  94.7617817  47.1512747  88.2443428  94.9810123  46.2207556
  87.4096775  94.9278355  47.4822998 105.0776738  27.9517210  53.9704323
 105.5406922  27.2885073  54.4822931 105.3474969  27.7882899  53.0667067
  63.8602972  97.3160076  41.4550781  63.5176325  97.2208118  42.3437548
  63.0807543  97.3657322  40.9018373  99.0692520  68.2354307  84.4479370
  98.7946701  68.1290054  83.5371590  99.2555428  69.1703558  84.5342445
  15.9170593  33.3033122  39.7948527  16.3815845  32.6297034  39.2981672
  16.2052596  34.1291274  39.4059920  98.4468192  24.2276991  88.6368465
  97.6796264  24.6325911  89.0414619  99.1924256  24.6218909  89.0895271
  32.4799299 107.8293896  69.0686083  32.3588872 106.9886494  68.6273193
  31.7928815 108.3900928  68.7083340  87.9241848  85.1187038  58.4883404
  87.4076271  85.8723640  58.2030535  87.3536873  84.3655014  58.3351803
  11.3817466  71.8509139  61.8135738  12.0681918  72.4562682  62.0938396
  10.8428443  72.3625983  61.2102509  12.1866859   7.6792372  67.8281355
  11.8248618   7.4163664  66.9818449  13.1043399   7.8800906  67.6443100
  54.6827316  55.5311060  47.8194952  54.4395542  54.7114277  47.3891163
  54.7733688  56.1598635  47.1034765  73.2068586  98.4769535  41.0827827
  73.7650585  97.7534771  41.3677883  72.3239231  98.2155895  41.3442135
  12.5410712  41.6628016  69.5768595  12.4475635  42.3728121  70.2119684
  13.4351028  41.7527617  69.2469454  23.9564276  86.0409260  40.5388260
  23.0031443  86.1274147  40.5377674  24.1454339  85.4643726  39.7984934
  95.6731004  19.1412390   4.7871259  95.7588357  19.7900141   5.4856753
  94.7366351  18.9456213   4.7555450  17.9205287  15.2267207  27.9924130
  17.6599944  15.7176627  28.7717271  17.2289813  14.5749510  27.8776145
  76.7444849 107.2598839  36.9389033  76.1779213 108.0179501  36.7954636
  77.3429251 107.2633553  36.1918473  85.9686470  95.7599449  34.9875903
  86.3079071  96.4400101  34.4056606  85.1069546  95.5464077  34.6296501
   2.4387992   8.6986102  48.0553818   2.8049911   7.8556860  48.3229733
   1.5025819   8.5300959  47.9489517  95.8100414  97.5158405  35.1019216
  96.7648602  97.4501514  35.0865889  95.5850410  97.5182152  36.0323000
 108.9751500   5.3807105  36.7387986 109.2014712   6.1858786  37.2043228
 108.2421178   5.6279410  36.1750841   5.6991733  31.1272753  44.6622038
   6.4578784  31.1445559  45.2455521   5.0151504  30.6928195  45.1717091
  17.4550689  75.0838889  38.6888790  18.0019057  75.8102072  38.9883327
  17.3123611  74.5526923  39.4722676 109.0748978  93.6728096  49.5759010
 109.8899746  93.2906246  49.2505836 108.4135437  93.4055233  48.9376211
   7.0339549   8.1470049  70.8734369   6.8193687   8.7691821  70.1783943
   7.6585830   8.6139430  71.4284372  84.7417641 105.9040260  27.6799822
  84.9323940 106.4615250  26.9256067  85.0935268 105.0469303  27.4393702
 102.4555367  26.8437327  13.9537513 101.9554824  27.5397624  14.3800366
 102.7497977  26.2851275  14.6731985  51.3891757  31.1239279  33.6090994
  51.5733875  30.2849711  33.1866622  52.1945441  31.3365878  34.0806770
 116.4190388  89.3208599  15.6645262 116.4205647  90.2751541  15.5899656
 115.6754875  89.1263866  16.2350929   5.6283057  28.8785494  29.4638085
   4.8787463  28.5454119  28.9704537   5.3582633  28.8173808  30.3800893
  83.6787605  92.5355434  86.0099125  84.3410110  93.1403160  85.6754017
  82.8546810  92.8561020  85.6433487  67.2851533  15.1335467  48.9034319
  67.2973508  14.2467154  48.5433960  66.4568156  15.5042494  48.5990238
  79.2543685 108.7753007  44.7325850  80.1851430 108.7694632  44.9558735
  78.8131227 108.5057912  45.5381298  27.4370217   3.0207801  52.6342678
  26.6325760   3.5017785  52.8285313  27.5950241   2.4924181  53.4166336
  96.1181926  90.3103541  44.9537802  96.2578415  91.1902641  44.6037960
  95.2714454  90.0422393  44.5969009  31.8315959  15.6457818  66.5402317
  31.4069080  15.6462967  67.3980618  31.1217332  15.8173096  65.9214354
  95.1257216 105.1299070  67.0711136  94.6985661 104.6069854  67.7495861
  95.0505935 104.6000253  66.2775087  18.7935042  50.7857943  24.8176479
  18.4627223  50.6408644  23.9311886  18.7811100  49.9185991  25.2226806
  21.5587497  10.2129900  49.4682741  20.8966064   9.6642429  49.8886013
  21.1024475  11.0312998  49.2723465  84.4879376 106.9898518   8.1270075
  83.6753880 107.2888865   7.7188742  84.8351561 106.3370295   7.5191474
 115.6569649  31.7498660  54.5824718 115.0117221  32.3717308  54.9188900
 115.1460354  30.9718204  54.3592548   9.4212085   3.8440639  44.8530197
   9.8031563   4.3527472  44.1377640   9.1244817   3.0337477  44.4388056
  73.2464334 103.2208448  48.9225864  72.8063309 102.3810189  48.7913084
  73.4664910 103.2329052  49.8540735  15.7732189  47.0592165  36.5884352
  16.7192805  47.2031975  36.6101408  15.5674076  46.6897964  37.4471545
  80.4334874 106.9666903  30.7188535  81.0818481 106.6302099  30.1002741
  79.5905628 106.7972495  30.2981400   5.1607412  11.5388989  20.3242707
   4.2451233  11.7642450  20.1596642   5.2361429  10.6257033  20.0474691
   6.1676574  54.7478390  19.7700906   6.0113108  55.3068447  19.0089738
   5.6789756  53.9463234  19.5830119  12.7780318  36.6173863  46.0695505
  13.1784701  37.4405241  46.3494205  12.9848003  36.5553474  45.1370096
  97.0253228 103.2749384  17.9969501  96.7225837 102.8361254  17.2019506
  97.8742468 102.8739398  18.1833935  17.2805464  32.3025751  12.6302421
  16.5397346  31.9666696  13.1348181  17.6080251  31.5419006  12.1502817
  21.0516000  36.0510302  23.8331532  20.7795262  35.4212761  24.5007014
  20.7091260  36.8899679  24.1415763  14.7079575  23.6909294  57.9066038
  14.8330653  24.1477728  57.0748186  15.3905177  23.0199242  57.9163551
  26.7968416   6.8354601  53.8974571  26.0641694   7.0958930  54.4556665
  27.4617767   6.5171540  54.5080090  12.0615482  35.7084537  21.2219691
  12.7661335  35.9154916  21.8359137  11.2605476  35.7937980  21.7390251
  11.0765588  32.9824066  43.8186884  10.2984738  32.4627829  44.0206909
  11.2223077  32.8416824  42.8831720  12.8087223  20.3915763  60.5354166
  12.8243315  21.1361790  59.9341202  13.5852373  20.5092669  61.0825968
  10.8830404  60.7773066  21.4662123  10.1253676  60.1924276  21.4750457
  10.6054318  61.5208292  20.9311008 108.0852633  35.4901361  56.0064030
 108.0708444  34.6092010  55.6322670 109.0134626  35.6736350  56.1513424
  92.0456278 105.5248504  13.4746897  91.3941895 105.1237594  14.0500045
  91.5339016 106.0689410  12.8760803  25.3444242   5.4021174  30.4795337
  24.8985696   4.8586622  31.1292291  25.2454400   6.2962300  30.8066392
  85.4063218 107.3817666  32.9852819  85.8221441 108.1628343  33.3503246
  85.2679163 107.5933974  32.0620871  25.1966643  27.1385264   5.7941753
  24.5660067  26.4852071   6.0969555  24.6593213  27.8840208   5.5263412
  90.5322581  56.2499666  31.9953084  90.2396088  55.5679083  32.5997758
  89.8726707  56.2543631  31.3016534   4.1679856   8.5350609   4.4461554
   4.8571172   9.0849388   4.0733778   3.3779478   8.7825328   3.9657080
  97.4064511  33.0572248   2.7384248  96.5717273  33.5156250   2.6417953
  98.0300277  33.7429786   2.9774362  24.3415475  27.8270197  48.8690805
  24.4499850  28.4179044  49.6142864  24.3948436  26.9500732  49.2490244
   7.7688330  33.8413000  36.6773820   7.5585562  32.9841781  37.0479989
   7.1132505  33.9735007  35.9925723 109.7721659 105.0511651  57.3466873
 108.9040148 104.9454408  56.9576263 110.3402340 105.2715608  56.6084719
 114.8259842  13.9615834  46.1829472 114.9707297  13.7939000  45.2517319
 113.8737633  13.9915323  46.2757397  78.2703644  29.7551870  36.0573268
  79.0926581  29.5973396  36.5211725  78.2415252  30.7043815  35.9371996
  68.3398538   1.3905108  39.2051220  68.0673128   1.5358156  40.1111221
  67.8666311   0.6031992  38.9359903   2.7986750  17.8183293  54.5668507
   3.6922503  17.7501178  54.9031591   2.4432907  18.6009192  54.9881411
 107.4573790  94.4243204  35.6607580 107.8837573  94.9996304  36.2959361
 107.6341831  94.8312234  34.8125839  77.2215372   1.9590653  42.4318361
  78.0198436   2.0894264  42.9436398  77.4790078   2.1579731  41.5316248
  26.9455075  14.5575523  49.5840263  26.9393325  15.1318419  48.8182688
  26.5070796  15.0646806  50.2672815  15.4765272  12.1905792  16.6468680
  14.5683634  12.4047232  16.4332986  15.6428504  11.3673604  16.1876500
 109.9887043   2.2112080  66.0254097 110.5378872   1.4288294  66.0755491
 109.0933901   1.8738970  65.9959984   5.9403181   9.8064691   2.9555708
   6.6695756   9.3488669   3.3739188   6.3581306  10.4416561   2.3740199
  28.2868695  45.7797432  75.7069016  29.0727448  46.1992025  75.3566360
  28.1069803  46.2500000  76.5209818 112.6159584  95.5911385  15.8209598
 112.9182874  96.2721526  16.4218330 111.6783845  95.7572125  15.7229304
  84.1694307 108.7216740  11.5182829  83.4159475 109.0292196  12.0221782
  83.7957727 108.4134663  10.6926799  56.7838812  27.0950413  31.2827778
  56.1333418  26.4343119  31.5204120  57.0661592  27.4649405  32.1192741
 109.5537447  18.7802088  30.0547385 108.9800894  18.0922019  29.7173977
 109.0512949  19.1859674  30.7612324   3.6330256  54.0633488  47.6347208
   3.1734365  53.3963919  48.1447983   3.0233970  54.2900991  46.9324636
   1.9047697  57.4818373  67.9826736   2.3212555  58.2015181  67.5085068
   2.1842621  57.5996923  68.8905430   7.1136415  31.4033389  60.2154398
   7.8096128  31.6616511  60.8197021   7.5752014  31.0387874  59.4602585
 115.2878457  17.8910768  56.3073826 116.0758555  17.5379634  56.7203999
 114.5966780  17.2715795  56.5413523   9.8964918   8.2102174  55.9754276
  10.2328265   7.8067410  56.7756271   9.4387954   7.5011623  55.5237818
  30.4451251  30.6424809  89.0270615  30.7682443  30.4465818  89.9065208
  30.9480739  31.4091754  88.7523651  51.0375434  30.4806648  27.4456553
  50.3614146  31.0405551  27.8272395  51.8618494  30.9077726  27.6787428
  11.5879405  12.0360088  48.8652849  12.3141193  11.4124167  48.8707972
  11.6507971  12.4693227  48.0140972  27.3337841  16.5624630  55.7174206
  27.2907400  15.8424270  55.0881910  27.7104616  17.2904062  55.2230072
  88.5842990 103.0690156  32.8528905  88.1107318 103.9000230  32.8901958
  88.7185346 102.8284763  33.7695980  24.8050714  13.3158386  34.8462391
  25.3144193  13.7024462  35.5585098  24.5576763  12.4501324  35.1711702
 106.2649315  26.1285233  34.4752741 105.3998869  26.4426947  34.2121601
 106.8627983  26.8310452  34.2198348  15.5686402   6.9467211  42.2356510
  15.3442919   6.8939674  41.3066101  16.3463533   6.3960391  42.3258877
  24.8389816  12.9755867   2.6509362  25.4513884  12.6111996   2.0118634
  24.6576595  12.2507322   3.2492167   7.2739416  38.1357670  53.4570646
   6.3835037  38.0464363  53.7967300   7.3406368  39.0550256  53.1987095
  25.2209377   9.6996480   9.3021345  25.0463915  10.6400454   9.3397880
  26.1331511   9.6140772   9.5792145  38.7049055  49.3934488  15.1765776
  39.3440866  49.0503740  15.8010602  39.2343068  49.7457790  14.4611549
 113.5055339 108.3316084  29.3756413 112.9029667 108.6446287  28.7009811
 114.2162740 107.9156934  28.8876939  53.6458397  17.1263039  38.1254888
  54.4382238  16.8883395  37.6441026  52.9395866  16.6767418  37.6614475
  38.7500572  24.5770264  35.2694702  38.1797695  24.8400378  34.5470929
  38.5614634  23.6473274  35.3972340  35.5365562  18.1300676  31.9216180
  34.6007538  18.3313203  31.9229269  35.5758643  17.1737528  31.9094491
  34.7728968  21.1271930  27.0033741  35.5418539  21.6044831  27.3150325
  34.3872833  21.7006159  26.3410139   7.9699647   8.9942741  45.4896736
   8.7828428   8.5129654  45.6439590   7.7728760   8.8415045  44.5655298
  80.1107376  89.7771955  86.2731089  79.6572035  90.4445935  86.7880048
  80.0537842  88.9839793  86.8058349   9.5876723 102.1456080  82.8730106
   9.0805751 102.6236468  83.5291862   9.5229846 102.6819908  82.0828629
  12.4449933  29.5878839  87.8971577  12.8039229  30.4034662  87.5475502
  11.7235363  29.8661327  88.4613514 108.3037674  84.2005359  54.9440002
 108.9922034  84.7847902  54.6262932 107.4876868  84.6332060  54.6929216
  26.1910152  62.3356676  36.9906735  25.8452964  62.1707058  36.1134624
  25.4417706  62.6684952  37.4847245 116.7962671   7.7353871  47.6011848
 116.5427315   7.6906592  48.5231113 116.0438482   7.3797053  47.1283340
  47.0576738  83.8600183  83.5043998  46.6887318  84.1621352  84.3343623
  47.1343230  84.6528841  82.9736288  11.3924587  49.3629122  47.7807570
  12.2559357  49.3374491  48.1930590  11.0024750  50.1798201  48.0918980
  24.4373155  10.9964943  18.3108246  25.1966071  11.5726054  18.2224977
  23.7603474  11.5503752  18.6996186  74.0722766 105.5222135  42.5361109
  73.8901844 104.8254626  41.9055462  73.3105706 106.0993614  42.4819279
  15.8811450  19.1070831  72.6450253  15.3318048  19.5512891  73.2908869
  16.7458546  19.0664172  73.0535078  11.8012905  11.1061800  54.1957855
  11.8346393  11.6371691  54.9915028  11.9112742  11.7355824  53.4830523
  54.3743515  20.9873390  19.8839855  53.6930084  21.4450693  20.3764105
  54.8976374  21.6866708  19.4924009  19.9929428  40.3307581  22.5073075
  20.8361602  40.6109715  22.8632498  19.6633482  39.6961546  23.1436086
  17.5991249  15.4071450  41.7115831  17.8745556  14.5189559  41.9384956
  17.3374081  15.7971859  42.5456095 116.1793696  14.7040641   7.6000023
 115.4974305  15.0036538   8.2011980 115.9495792  13.7941933   7.4114180
 101.4052408  31.2066722  54.3118763 102.2094744  30.7571101  54.5713615
 100.9696811  31.4145756  55.1384926  48.6891890  12.4017310  21.9903016
  48.6425877  12.3853076  22.9462266  47.8137159  12.1420801  21.7033291
  18.5183632  18.8063407  21.6069102  18.3625174  19.5962667  22.1245599
  19.4597042  18.8153875  21.4336228 105.1090949  36.6324973  26.8237591
 104.5095878  36.0049009  27.2274256 105.8612328  36.6597223  27.4151802
  19.9537480  63.1017256  56.3046932  20.2153563  62.3010302  55.8500671
  19.1949713  63.4184122  55.8145952  35.7388496  16.4656579  38.3196878
  34.8543453  16.1661625  38.1094813  35.7567763  16.5071285  39.2758203
   5.8172321  41.6201544  13.4349251   5.2923083  42.3348427  13.7953496
   6.6768962  41.7251968  13.8425708  47.0104885   3.8943753  62.8293705
  47.7011251   3.5963076  63.4213257  47.3798656   3.7803447  61.9537067
  33.3879471  35.6584144  16.4780426  32.7434540  36.1952567  16.0168886
  32.8907394  35.2362466  17.1786082   4.0533444   4.3205422  40.1841927
   3.8075954   5.2183706  39.9611616   3.5458809   3.7766466  39.5817900
  11.1519372  54.7197390  48.1767225  11.4901710  55.5303764  47.7963257
  10.3014112  54.9632740  48.5421371   2.1358275   5.6237990   0.5110956
   2.0056564   5.4179257   1.4367864   2.0068945   4.7895843   0.0597714
  32.4684048  41.4673281  17.6625061  33.4145689  41.3465071  17.7425492
  32.3657727  42.3779631  17.3860252  51.1357450  37.4900341  36.8640208
  50.2278566  37.2222686  36.7216516  51.1804724  37.6984072  37.7971935
  94.0040308  48.0689335  50.8129787  93.9071780  47.4477863  51.5348005
  93.6513644  48.8904524  51.1549854  12.6769722  44.9683332  53.7700462
  11.8853319  44.8853827  53.2383919  13.1510329  44.1498566  53.6230850
  24.4215822  24.2267013  46.9731236  23.9369726  23.6186600  47.5313997
  25.2030778  24.4465160  47.4802542  43.8436278  59.8442126  80.6604071
  44.1497677  60.5473477  81.2332173  44.1250645  59.0401093  81.0968061
   8.5551345  24.9657035  41.0194588   9.2692727  25.0645757  41.6491127
   8.5680735  24.0373874  40.7864475 110.3680163  23.4525633   1.4966236
 111.0558772  24.1140580   1.5708001 110.7496339  22.6655507   1.8854830
  99.6055215  20.6536889  38.4868455  99.6878105  21.0865521  39.3366051
  98.9139968  21.1389709  38.0368161  42.2661877  51.0442686  30.8358240
  42.6399183  50.1791334  31.0034466  41.3272047  50.8850670  30.7399631
  30.2297759  32.5041771  27.2921777  29.3754888  32.9326391  27.2388291
  30.1641679  31.9336367  28.0579519  23.8867712  33.8828969  20.0707793
  23.0700040  33.8329983  20.5674005  24.1406250  34.8045492  20.1192474
  36.9288778  27.0250964  38.2133126  37.2815776  26.1966801  38.5382080
  36.9593096  26.9410372  37.2602963   2.6926154  10.3365588  16.8844879
   3.0032647   9.6472442  16.2974834   2.9777598  10.0568807  17.7543747
  34.7052312  16.0724580  44.8247147  35.4678369  16.5753591  44.5387840
  34.0950704  16.7308259  45.1571131   8.2023257  15.2650619  39.6404243
   8.5468096  15.3614426  40.5282688   7.2848094  15.5289125  39.7095561
  28.6430478  25.7109380  54.6729469  29.5437312  25.8176589  54.3669891
  28.1211352  26.2413692  54.0708828  18.5824668  27.1776891  35.3865290
  19.4815826  26.8500066  35.3653860  18.4565639  27.5871015  34.5305133
   1.7589064  14.8278713  49.6107292   2.6395369  14.5325363  49.8420286
   1.5569521  14.3650866  48.7975407 111.1843216  46.3965464  12.8567958
 110.4446756  46.7441034  13.3551502 111.6485106  45.8348131  13.4774554
  26.7212629  42.8047323  35.9682322  27.0586085  43.4677172  35.3658342
  25.8143020  42.6705265  35.6932044 115.0240166   0.7230981  27.1108103
 114.1399490   1.0142842  27.3341203 115.4916103   1.5275811  26.8863225
 116.9913775  32.1713781  48.0368853 116.8952415  32.6973510  47.2429466
 116.5552277  32.6835942  48.7177992  53.2971716  11.3866210  54.9404669
  53.4008837  11.1453021  54.0200090  54.0029097  10.9224904  55.3907442
  33.1306458  10.8704948  29.3370962  33.3680844  10.4914248  30.1833582
  33.6891651  10.4164696  28.7061048 100.9341800  98.0312442  94.0546703
 100.9386598  97.1334683  94.3866539 100.3911387  98.5142480  94.6776009
  37.9976964  17.2055387  44.2289639  38.2772875  18.0540025  43.8852072
  37.9780436  16.6315567  43.4632015   9.6660757  44.8052216  30.9748340
   8.8139129  45.2037287  30.7980776  10.0596786  44.6880960  30.1102018
  50.4854155  39.4168067  34.5705700  51.3629818  39.6979284  34.8295593
  49.9135494  39.7488999  35.2626085  96.9392967  99.6409761  24.6403217
  96.5899002  99.9396097  25.4799485  96.3488828 100.0174223  23.9876890
  30.3321648  30.8893967  44.9167109  30.9077859  30.7388067  44.1668987
  29.7427702  31.5869546  44.6298981  34.8705803  81.7245031  78.6548121
  34.1189959  81.1376000  78.7378593  35.5853777  81.2616111  79.0918799
  28.8423228  35.6926918  11.3834918  28.0057073  35.9487343  11.7717552
  28.6023259  35.1332736  10.6447875 103.3261120 109.9955089  34.5023608
 103.6756169 110.8230240  34.8329616 104.0971457 109.5099544  34.2091465
  28.7618732  40.0481033  32.5670934  29.6075583  39.6195221  32.6988626
  28.9220428  40.9662056  32.7854156  20.2482986  31.1097097  54.0142012
  20.1027846  30.6009054  53.2165956  19.9121749  30.5540633  54.7174120
  20.9831476  19.7213364  20.9728813  21.0723901  19.4696927  20.0536728
  21.3280606  18.9733708  21.4605427  27.4836159  46.7134380  41.8350935
  27.2029519  46.9330311  42.7234840  28.0265760  47.4541998  41.5654612
  72.0992415  77.2068358  84.6544738  71.4848559  76.4815236  84.7671016
  72.7646368  76.8664265  84.0564735  21.7818022  42.7692986   8.0655837
  21.4263940  43.0341434   8.9139807  22.1807671  43.5652065   7.7140325
  32.0215535   4.9481463  41.8605995  31.2174273   4.4521224  42.0141411
  32.6137757   4.3215579  41.4447975   1.5555254  20.1151752  20.2343154
   2.0178051  20.9096122  20.5015206   1.7252734  19.4906163  20.9395409
  31.1594987  25.1195693  36.2526846  30.3114319  25.4293060  36.5706062
  31.7953897  25.4959345  36.8611455  22.8531837   6.7249686  28.8987684
  23.7768912   6.5382195  29.0664554  22.4165225   6.5392238  29.7300673
  83.0436694   0.8817662  92.7147485  82.3454943   1.5231456  92.8467126
  83.3744060   0.7032146  93.5950695  47.1481705  13.7982798   9.4595903
  47.8327417  14.4669437   9.4816166  47.3542881  13.2697916   8.6885864
  80.9507447  26.4816499  76.8897724  81.6176968  26.1377287  76.2955236
  80.7691985  27.3624778  76.5620279  23.9051414  30.1532412  25.2583647
  23.4473467  30.2777934  24.4270134  24.1203165  29.2207050  25.2759314
  77.5103085 108.3904935  95.0312584  78.2830828 107.9190398  94.7201543
  77.7707188 109.3115092  95.0193158  23.5688233  40.9428453  19.4036531
  24.2542934  41.1630917  20.0344110  23.8576150  40.1173401  19.0145874
  18.9144254  54.1516161  38.7615395  18.7667906  54.7795200  38.0543113
  18.7281346  53.2992506  38.3678341  38.5825562  48.0304289  38.5922098
  37.9213166  48.5476160  39.0521097  38.2987237  47.1233463  38.7056923
  27.1504784   9.8502213  21.4235830  27.4890995   9.5922762  22.2809219
  26.6207051   9.1047108  21.1411166  50.1873589  47.8764153  39.2404938
  49.6669531  47.2808981  38.7012696  50.4254055  48.5896826  38.6481953
  21.9348335  68.2791567  10.7003200  21.3852739  69.0148258  10.9705186
  22.6583147  68.6837721  10.2216828  91.3750106  15.4074883  18.4512544
  90.7374721  14.9438524  17.9082823  90.9387785  15.5114806  19.2969000
  10.4349947  37.2733855  34.5110488  10.2634048  36.8252540  35.3392816
   9.8853004  36.8174911  33.8736892  35.0576496  28.7282109  10.6826985
  34.5139742  28.3970094  11.3975084  35.8337498  28.1680298  10.6927037
  21.4162970  41.2598515  45.3190422  21.0111308  42.1158600  45.4580450
  21.9660830  41.1268568  46.0912323   6.7717767  28.1544614  57.6620340
   7.4656147  28.1629419  58.3213902   6.6302371  29.0774083  57.4514008
   8.6742884  31.1930966  23.2208085   9.1382807  31.5491199  22.4630547
   8.2518405  30.3996372  22.8918862   0.2985235   1.0051891  28.9232874
  -0.4142450   0.6139797  28.4181666   1.0839531   0.5477737  28.6231160
  21.3632774  41.1429596  15.7301712  21.4078307  40.7933092  14.8402333
  21.1880016  42.0765495  15.6122088  14.2616272  28.3634877  18.7949622
  15.0359416  28.7627149  19.1915572  13.8151598  29.0889215  18.3583295
   5.9476125  51.7624092  15.1202130   5.1892012  51.5466261  15.6628752
   6.2923217  52.5702572  15.5007279  10.6084168  26.1353803  45.6411791
  10.2719772  26.0751653  46.5352774  11.2263274  26.8659806  45.6664753
 101.3361912  27.2141385  24.5991802 101.5880995  27.2403789  23.6760950
 100.6205540  27.8458428  24.6702051  34.0904474  22.4262404  56.9530630
  34.8740959  21.9940281  56.6134787  33.5045290  21.7076015  57.1907377
  19.8328447  61.0481071  39.6393275  19.6787369  60.1965666  39.2302370
  18.9576566  61.3776255  39.8435259  16.6484261  11.0073447  29.4243765
  16.8133485  11.7828691  28.8880992  15.7213962  10.8131790  29.2860007
  16.2904012  24.1725445  12.7240551  16.2437689  24.7790289  11.9849789
  17.0106292  24.5037031  13.2605600  97.8618550 100.9617268  64.2694712
  97.5201952 100.9924256  65.1630926  97.0819639 100.9173905  63.7162638
  17.6957285  27.6847410  44.1746378  18.5262823  28.1181955  44.3709278
  17.0296967  28.3444858  44.3679523  44.4195222  77.5786567  89.0667553
  45.0521474  78.0774594  89.5836826  44.1037267  76.9005871  89.6640201
  17.5714195  29.5498991   8.1964463  18.3010745  29.3881011   8.7944895
  16.7916489  29.4905543   8.7484145  55.5788565   4.3559533  30.8151150
  54.9885607   3.7315530  30.3933263  55.1326466   5.1989996  30.7351232
  12.5823915   9.1883713  39.7960353  12.2386241   8.8598800  40.6267881
  12.6009607   8.4209126  39.2242885  18.5977674  12.9755640  42.3748970
  18.6432362  12.7862859  43.3120966  19.3373907  12.4988830  41.9981194
   0.9433582  72.5006533  38.0905366   1.5223089  72.3101664  37.3524570
   1.2273027  73.3600426  38.4020829   7.4572158  56.8854380  46.3122177
   7.6552373  57.5882864  46.9310999   7.0199263  56.2174797  46.8402719
  41.6903496  60.8645344  19.3134630  41.1955881  61.6210413  19.6283305
  41.0282993  60.1883316  19.1696954  44.1089773  27.2650743  17.7541900
  44.4604349  28.1077600  17.4668014  44.1740894  27.2914219  18.7088096
  65.1135874  25.6534815  33.8065362  64.4741201  25.1287270  34.2881465
  64.9975824  25.3930974  32.8927660  18.6090922  54.5860577  49.0926123
  17.8739667  54.0217638  48.8530445  18.5788596  54.6259022  50.0485039
  10.3457706  57.9215360  92.3370339  10.1395719  58.5296426  93.0469077
   9.7783773  58.1939829  91.6158743  18.1450331  17.0350015  49.4429779
  17.2950327  16.8139172  49.8235703  18.0009711  16.9980550  48.4974003
   6.1864758  49.3873453  36.2116885   5.9021711  49.1540861  37.0954251
   6.3498718  48.5472107  35.7830763   3.9358798  58.5090256  41.5273428
   4.6729863  59.1116810  41.4287853   4.3022519  57.7564383  41.9916821
  17.0500696  59.4900274  74.9616337  17.7817893  59.5568609  75.5751085
  17.3127270  60.0295353  74.2158651  17.6047516  28.3532095  53.5548353
  17.1512973  27.5978017  53.1807137  18.3192909  28.5307217  52.9431534
  30.5629826  42.5510502  24.1349292  30.6359267  41.8373108  24.7685623
  30.3325295  42.1186924  23.3126235  14.7989190  68.0355024  52.3562908
  15.2618492  68.4120893  53.1046963  15.4786777  67.5822735  51.8575478
  22.6956463  11.1609089  28.9483166  23.3257604  10.7891965  28.3310509
  22.0176816  11.5480685  28.3945084   3.0450231  87.0434104  52.2875071
   3.9671689  86.8763863  52.4823952   2.8433782  87.8520762  52.7582836
  79.0935295  81.9931341  78.6753543  79.8425215  81.5703154  79.0954311
  78.3397858  81.4686800  78.9456363  24.4016194  28.1055617  53.8511610
  23.5678530  28.5743356  53.8874435  24.5092916  27.7400446  54.7292471
  19.0722668  13.1319046  38.8275814  18.2476413  13.6173892  38.8045812
  19.7452617  13.7956524  38.6767530  34.6220326  46.6165781  17.2318327
  34.3651819  46.2020826  18.0555177  34.7904658  47.5294352  17.4653876
 100.5856388   8.1526828  63.3354235 100.3571706   8.3556080  64.2425394
 101.5212398   7.9523981  63.3631372   3.2520705  81.1157667  23.9427662
   3.7798482  81.4963280  24.6448016   3.5036641  81.6070544  23.1607366
  29.5740724  33.9128089  74.0559340  30.1142693  34.4976783  73.5245657
  30.0252581  33.0694771  74.0178204  30.0350571  19.5433474  54.7512579
  30.9739351  19.7250986  54.7925663  29.7433019  19.9719512  53.9466429
  50.7310772  12.6662767  14.3701994  51.4874268  12.2590709  13.9478862
  50.9783506  12.7319920  15.2925694  49.0640116   5.2137411  47.1582127
  48.7460232   5.4928273  46.2995958  48.3207321   4.7569215  47.5520134
  14.8110771  21.7950606  28.7645936  15.2820647  21.0002065  28.5143757
  15.0473893  21.9348550  29.6815705   2.1359345  22.4032259   8.4164113
   1.5977925  22.3052168   7.6308990   2.6664063  21.6069460   8.4442073
  24.0733790   3.1779924  66.0765028  24.4832683   4.0217733  65.8860970
  24.8022676   2.5580946  66.1025906 111.6536366 108.2798410  66.7718315
 111.7173301 107.3374023  66.9266987 112.0881211 108.4140571  65.9295464
 116.1992805  54.2227650  46.3687134 115.7319696  53.4332705  46.0956717
 116.6914739  53.9535904  47.1442938   8.4734768  28.3418822  22.6231241
   9.1109562  27.6450324  22.4673963   7.8090167  27.9382443  23.1815147
  23.2845800  77.2699667  92.7572225  24.1635852  77.5254870  93.0370282
  22.7510684  78.0517817  92.8999277  26.2348318  21.2479019  35.7853842
  26.8471980  20.8426714  36.3994122  25.6499720  21.7666960  36.3376737
  82.6982304 106.0775544  52.2241688  81.9928824 106.5240436  51.7558098
  82.5429642 105.1472895  52.0606756  15.4170370  49.9195910  21.2964272
  14.6767867  50.3987122  21.6688609  15.1596689  49.7475100  20.3906775
  55.0587893  25.5084896  23.6057425  55.1784325  26.4029431  23.2865739
  55.8155012  25.3525901  24.1708159  98.7478452  28.4472227  52.4622297
  97.9527252  28.5563040  52.9838753  99.3933564  28.1018353  53.0788755
  20.4850221  22.5828671  48.5066175  20.0479317  22.4248290  47.6698303
  20.0496745  21.9906950  49.1198349  35.0224566  21.6744924  39.6956635
  35.8672976  22.1163535  39.6106148  34.4162464  22.3658967  39.9615622
   7.3595792   9.0561140  50.4444551   6.5301299   9.5003009  50.2685499
   7.9873854   9.4808060  49.8598766  22.3216271  34.0246534  48.4816265
  21.7990613  34.4056225  49.1873312  22.2643757  33.0798936  48.6243820
  24.6055889  49.8349667   8.4860188  24.8406291  49.3052053   7.7242172
  25.2572417  49.6045971   9.1482198  17.4466228  57.3972225  49.2793036
  18.0129349  57.3153973  48.5119534  16.8304253  56.6689396  49.2009735
   1.4554863  24.1184330  67.8040123   0.8012214  24.6874809  67.3986053
   2.2922097  24.4350696  67.4636173  32.9011273  41.0663891  30.4314590
  33.0632019  41.6410875  29.6833372  33.0523801  41.6210556  31.1967659
  99.3571960  96.3040458  47.3700333  98.9093482  95.4889523  47.1435690
  98.7882888  96.9931971  47.0270348  32.9426765  31.3621235  32.5498676
  32.6813293  31.2643933  33.4654999  32.4678111  30.6698060  32.0900488
  27.7440071  28.0392838  27.3733497  28.4388876  28.3858037  26.8136215
  27.6879668  27.1127200  27.1397495  12.1989357  43.8208389  20.5735826
  13.1248844  43.8864374  20.3400278  11.7370963  43.8638449  19.7362745
  95.6517505 106.2095453  23.9365602  95.6117117 105.3519519  23.5132837
  94.9083888 106.2139561  24.5395732  15.5635929  45.6858540  39.2753625
  15.5011404  45.0982237  40.0283718  14.9925685  46.4212704  39.4974446
   8.9214158  21.9591427  55.4277468   8.3875293  21.2983584  55.8688354
   9.7575235  21.9413948  55.8934069   1.9919364  48.4346724  32.8197885
   2.7425113  48.2444859  33.3825493   1.3171360  48.7523270  33.4197617
  39.7674274  42.3805666  18.2856441  38.9827037  41.8406725  18.3802700
  40.4857445  41.7507172  18.2260966 105.9951627  96.3706886  15.2574384
 105.2958309  96.5978490  15.8702707 105.7847034  95.4813420  14.9728310
  34.2128944  27.5766158  37.8481412  34.2061996  27.2995901  36.9319296
  35.1400232  27.6905417  38.0571485  29.7443223  33.3605766  36.2199450
  29.2627811  33.9004493  35.5931401  29.0772676  33.0541873  36.8342733
  25.5622797  92.6733781  89.2571075  25.9515887  93.5220767  89.4677748
  26.1984389  92.2555137  88.6766578  43.2785130  61.7217302  46.7932463
  43.3586884  62.6720095  46.8755817  44.1156721  61.3824129  47.1098900
  45.4135132   5.6572145  36.5476394  45.1609373   5.3237230  35.6866956
  45.3263474   4.9036503  37.1313977  26.8383741  39.1343188  11.5743077
  25.9926534  39.5690513  11.4647818  26.6240597  38.2899904  11.9710565
  44.7747295  88.7638665  93.2776107  44.8821752  87.9537011  93.7759252
  44.0358429  88.5901523  92.6944284   8.2696956  37.1658182  51.1343765
   7.9514247  37.7572370  51.8164015   9.1981781  37.3807383  51.0451412
   1.2521058  26.8626857  23.8166165   1.7342348  27.2684169  23.0960846
   1.7919517  27.0285964  24.5894504 116.5706251  38.2936382  61.7066240
 116.1483968  38.8372374  61.0414505 117.2736690  37.8441381  61.2376738
  16.0738146  43.8622046  61.2466240  15.6045067  43.0352688  61.1363697
  15.9261394  44.3326426  60.4261875  33.5040307  27.5222588  30.5033064
  34.4331145  27.6508665  30.3122687  33.4383559  26.6041303  30.7659030
 102.5064283  48.4003115  19.2174113 102.8298097  48.5616398  18.3310533
 101.6641885  47.9638910  19.0893471  16.5503895   2.8229025  36.3676715
  17.4875081   2.9872477  36.4726996  16.3786113   2.0571631  36.9157290
 108.4748679  45.5958271  45.9586525 108.1530171  45.8869934  46.8118048
 107.7437520  45.7518673  45.3608656  36.8844390  50.6784391  37.4708652
  36.4748192  50.1900625  38.1849623  37.0269585  50.0258493  36.7852616
  32.8341126  51.8090487  11.1599767  32.1344423  52.0855236  10.5681527
  32.7083826  50.8649015  11.2549365  13.2114327  33.3624029  55.5874491
  13.7762570  34.1222119  55.7285023  12.8162837  33.5138035  54.7288609
  10.4236507  51.8832684  49.0123653  11.1080456  52.4487925  48.6545706
  10.7220376  51.6772366  49.8982286  30.3186560  25.4951167  59.8334026
  30.8479118  24.8522735  59.3613100  29.8060775  24.9751687  60.4523897
 110.3015887  87.0798790  63.7547302 109.3910682  87.0581829  64.0492010
 110.3014004  87.6944410  63.0208731   6.2762409  90.4991627  60.0317621
   7.0359969  90.7036209  59.4865990   6.0739714  89.5860481  59.8279619
  19.1404235  46.3021374  62.5606441  18.2832718  46.6381884  62.8225470
  18.9471257  45.4849863  62.1011543  22.5479007  29.4736314  22.5337934
  21.7891097  29.4857860  21.9504213  22.8498173  28.5654855  22.5151610
  23.6288977  34.8245525  12.9271650  23.4547400  35.1686859  13.8032198
  24.4008207  34.2693090  13.0370367  10.2008355  50.0709295  43.7077999
  10.0792694  49.6781635  44.5721960  11.1014426  49.8511744  43.4693766
  26.0405684   0.4546524  53.1787109  26.7995524   0.3287655  52.6092148
  25.3969288   0.8974120  52.6256084  48.0364548  94.8255420  79.9452849
  47.8923648  94.3577672  80.7678779  47.3242962  94.5339728  79.3760319
  34.1314054  18.2943082  50.9188128  35.0647044  18.1770360  50.7415152
  33.7398767  17.4456263  50.7122326  36.2079644  28.0708265  30.8830142
  36.8399286  28.7865663  30.8154130  36.0049367  28.0179858  31.8169403
   7.0008945  20.6707811   6.6836721   6.8857127  21.6088080   6.8355697
   7.7341145  20.4250550   7.2477984 116.6694489  24.5399308  63.5567045
 116.7582667  23.5993528  63.7105179 115.9747502  24.6110201  62.9020500
  46.6884804  28.8953066  23.5774946  47.2252703  28.2948351  24.0947199
  46.1918354  29.3927646  24.2271996  20.6897998  11.3790166  41.4370394
  20.7454610  10.7356524  40.7304907  21.5495396  11.3487971  41.8567657
  39.3657780  45.0882053  28.1197357  38.4573364  44.8896503  27.8927088
  39.8845005  44.5153761  27.5549126   6.7303395  21.8921852  53.5488129
   6.0310638  22.2087526  54.1206789   7.5365251  22.1982741  53.9642715
   3.2012644  36.7257643   7.4593931   3.5968047  35.8541131   7.4569803
   3.8832495  37.2972798   7.8122365  51.3606453  20.9287596  34.0663767
  52.1940899  20.9219408  34.5370698  50.9333324  20.1119304  34.3241072
 103.5724645  26.9910932  34.1254640 103.1042569  26.5793228  34.8517251
 103.1193846  27.8232384  33.9895034  11.5924597  46.9228935  24.5950222
  11.9636548  47.6951265  25.0217581  12.3385930  46.5049362  24.1651082
  21.2780499   2.2042795  33.4604096  20.7593060   2.4181703  32.6849174
  21.5919542   1.3142511  33.3005810  22.0847178  27.8793502  51.5714550
  22.8356934  27.4750638  52.0059919  22.4641466  28.3616281  50.8368254
 115.2965728  21.5282059  69.2289448 114.9794685  21.5098119  70.1319027
 114.5047466  21.4592862  68.6955643   5.7825536  51.4224482  65.8154011
   5.4529905  51.9843245  66.5167665   6.3974720  50.8319044  66.2505627
 102.8121465  55.3098822  68.2694340 103.3600717  54.7324514  67.7378511
 102.1063286  55.5785704  67.6813364  18.6943340  44.4884443  41.1089849
  19.4312501  45.0602674  41.3239384  18.9542377  43.6284304  41.4392281
  58.6086672  50.0101978  84.4499476  57.8238695  50.5384815  84.5956893
  58.4516995  49.2063636  84.9453695  62.5393295  35.6109405  28.5301280
  61.8717098  35.1330471  29.0222001  62.3678780  35.3880811  27.6151586
  46.3392830  10.0056553  64.5877600  45.6864977   9.3235695  64.4300890
  46.4797163  10.4057479  63.7296009  41.7773151  46.5468454   5.2013624
  41.5143776  46.5263271   4.2812133  41.0025787  46.8650150   5.6648093
  44.6560717  56.8241072  37.4025035  43.9066410  57.3953247  37.2342968
  44.9951172  56.6115236  36.5329719  12.2931933  17.2597969  47.4937105
  12.7990127  17.4358773  48.2870388  12.7890539  17.6852036  46.7941475
  66.0072892  86.3625909  85.7857926  66.1840504  87.2367407  85.4381629
  66.6518133  86.2476922  86.4840897  91.3935071  16.2613964  28.1302476
  91.4729005  16.7854524  28.9273024  91.0205107  15.4308891  28.4258199
   2.1727082  30.4555464  59.3805885   3.0468190  30.7964087  59.5702553
   1.9698000  30.7895112  58.5067892 103.4079348 106.0596599  31.9068027
 104.0514480 105.6897159  31.3024330 103.3373129 106.9786220  31.6484380
   9.5657194   4.3811625  36.4590335   9.1730344   4.7734722  35.6792116
  10.4638934   4.7119921  36.4671755  12.9647410  19.2613137  26.7273045
  12.8877795  19.3962610  25.7827973  12.3141003  19.8515964  27.1073890
  59.1171741  21.1841750  37.5847483  59.3135452  21.6386104  38.4039903
  59.9236202  21.2525654  37.0736647  34.9619246  58.1430292  25.8434296
  35.3843045  57.4902296  26.4017177  34.9214125  57.7302361  24.9807620
  14.0731347  39.7728586  21.9443440  14.9897850  39.9987006  21.7862892
  13.7716341  39.4012690  21.1153388 112.5355607  12.8971636  47.7176142
 112.1789875  13.7488842  47.4653053 112.5981757  12.4107027  46.8956280
  53.6804628  63.6819220  42.8910398  53.9711571  64.3535328  42.2740555
  53.2510996  63.0240250  42.3441839   5.1142550  62.2633743  49.6344757
   6.0245764  62.5144053  49.4778538   4.9500772  62.5128555  50.5438948
  59.3855565  88.0660773  76.4215620  58.5697561  87.8803588  75.9565790
  59.6378558  88.9398218  76.1229809  80.2485734  83.7731934  30.8501315
  81.0782176  84.2476463  30.7971597  79.5811563  84.4381523  30.6809783
  24.2291069  59.7439384  13.7101722  23.4507561  60.0417042  13.2392812
  24.8398542  59.4813824  13.0214882  10.3151131  53.7717867  15.1543951
  10.1999915  54.5727539  14.6430922   9.4431007  53.5807371  15.4998314
  73.3860493  39.6397734  31.7259574  73.7487936  38.9892602  31.1247230
  72.6423883  40.0140762  31.2536192  11.6057253  30.8609462   0.8744843
  12.1319926  31.3205910   0.2202667  11.3882196  31.5320325   1.5214504
  55.0510025  64.9384546  20.1200867  54.1121435  64.7555351  20.0837302
  55.4642630  64.0753889  20.0963354  66.1811893  81.5277982  92.2109904
  66.3850730  82.3517967  92.6533570  66.8154376  80.9034634  92.5633635
  46.0194921  59.3642426  40.0332832  46.1622334  60.3103542  40.0603676
  45.2728653  59.2179394  40.6141233  59.4725513  41.5732145  41.9911957
  60.1368427  41.2395382  42.5941992  59.9388742  42.2100019  41.4496469
  29.2365956  87.9620075  28.2229424  29.9134278  88.4835052  27.7914667
  28.4121990  88.3535671  27.9343486   5.3998423  73.2566452   3.7437618
   5.8323622  73.8979197   4.3076074   4.5346233  73.6301470   3.5760635
  40.1615143  62.9651546   2.0012900  40.1682091  62.4775171   2.8249398
  40.3274059  63.8720894   2.2585389 106.6285496  49.5073843  31.5546989
 106.8517512  48.7581062  31.0024381 105.8918124  49.2032242  32.0847368
  13.7200844  49.9293613  48.9648533  14.2170691  50.1594687  49.7498941
  13.6215806  50.7562256  48.4928131   6.7566031  74.7943878  16.6051280
   6.4458996  75.6997395  16.5993559   7.1908206  74.6955776  17.4524319
  59.7865343  20.6873608   7.5508255  60.2631521  20.4809785   8.3548617
  60.0551796  21.5805483   7.3357040  44.1536522  33.2557440  17.4447441
  43.9962101  33.7409782  18.2546771  44.4948006  33.9106226  16.8356586
  40.6968880  21.6594934  28.0232716  40.1461267  22.1417212  27.4065447
  41.0926867  22.3371029  28.5713792  94.0271378  37.4488926  23.4145427
  94.7504425  37.4006510  24.0396214  93.3553123  36.8737912  23.7807894
  55.2168655  63.9783764  11.7637336  54.3417358  63.8444090  12.1276534
  55.5992317  64.6675396  12.3069441  32.1663237  12.9292452  33.3820653
  32.6073551  12.8852391  34.2304659  31.2344098  12.8734648  33.5933900
  32.6223016  71.7337322  41.0656261  33.3592987  71.3724852  41.5581322
  32.5198603  72.6226902  41.4054632  35.5984449  55.6316376  43.2977247
  35.2835894  55.0430441  43.9837694  36.2135673  56.2130737  43.7446976
  72.5350731  96.1803389  86.5849598  72.5927871  95.6887580  85.7656606
  71.8554418  96.8349171  86.4241631  32.8676772  69.7901869  20.4821801
  32.3690200  69.4246483  21.2129045  33.7332606  69.9700689  20.8491063
  22.2511244  40.0049686  32.4801898  21.4159560  39.9511814  32.0156097
  22.1660542  39.3787384  33.1990981  15.2996564  28.5677099  61.4995766
  15.8660436  28.2825494  62.2166014  14.9144948  27.7588844  61.1624098
  22.1199632  36.7882442   9.3151373  21.5602899  36.5217876   8.5857546
  22.0251131  36.0861015   9.9587446  26.1897135  44.8490477  39.8660040
  25.9612155  44.0303469  40.3061676  26.9866323  45.1436758  40.3068542
  51.3039160  38.9103818  23.4718275  52.1991968  38.7680435  23.7791419
  51.3436127  38.7392473  22.5308895  16.5970635  43.5132742  20.9173775
  17.4080133  43.7650156  20.4755402  15.9018040  43.8408327  20.3468037
  32.5602365  30.0433493  47.1369219  32.2851467  29.1295719  47.0623112
  31.9715977  30.5192828  46.5510654   6.3561660 106.7052349  30.7929707
   7.1663028 106.5722658  31.2851357   5.9116870 105.8582978  30.8299708
  51.9377375  47.9100704   6.6602802  52.4463224  48.5824776   7.1135294
  51.0364914  48.2312441   6.6892654  21.5076995   2.2413743  51.1588240
  20.8960319   2.0127109  51.8586874  21.9536972   3.0261087  51.4774323
  40.6690645  50.4061270  25.8996010  40.5694199  51.3076353  26.2055111
  40.8598948  49.9040604  26.6919041  38.2366490  56.7174196  46.3603067
  38.4659958  56.9788170  47.2521067  39.0081191  56.2484503  46.0422897
  22.8298640  25.6403565  25.1502442  22.4617195  24.7582388  25.2009130
  22.1511793  26.2047648  25.5204630  29.5345187  37.0397973   3.2144505
  30.4465938  36.9993281   3.5020539  29.3679476  36.1815166   2.8247893
  26.9627666  61.2754154  23.6084938  26.8478751  60.4485655  23.1401420
  27.3904824  61.0287619  24.4285250  48.0874395  58.0833149  27.5210667
  48.9630842  57.9298735  27.8759360  47.4942112  57.7577639  28.1980658
   2.2701666  74.0541077  21.1598063   2.3925015  73.5723209  21.9778204
   2.5726375  74.9407101  21.3564920  44.7072601  51.0583210   9.1515982
  44.3326378  50.8125067   8.3057481  44.4763947  51.9813061   9.2566556
  35.2944493  64.4372129  11.7149985  35.3403807  65.3914070  11.6546857
  34.4059086  64.2592049  12.0232844  66.1383724  28.7452507  21.8747211
  67.0944643  28.7027097  21.8921137  65.8897877  28.9187670  22.7826476
  27.4389625  43.0123806  22.9103875  27.4062467  42.0926332  23.1734991
  28.1583381  43.0558443  22.2804356  13.5079134  57.8656435  10.2331901
  14.2977822  57.6054049   9.7592556  13.6393201  57.5303316  11.1200547
 113.3736562  31.3941836  27.9504633 112.6684600  31.9204640  27.5736904
 113.0160471  31.0715914  28.7776780   6.4374071  35.8543968  38.5878110
   6.1758035  35.1033473  38.0551577   6.8173921  35.4677892  39.3767190
  94.6044885   5.1226844  90.5141492  95.2441131   5.7654418  90.8207043
  94.5450782   5.2749433  89.5710059  32.3475146  42.7246475  14.4596052
  32.5577331  42.4960279  13.5541916  32.5262284  43.6632442  14.5173097
   0.9393521  33.2619071  39.7028732   1.0495258  34.0310740  39.1438746
   0.1738068  33.4643292  40.2406454  80.0523281  25.0854349  60.8669949
  79.7455502  24.4035006  61.4645624  79.7304344  25.9016776  61.2495708
  21.6772842  81.4132309  30.0814366  21.9381833  82.2119713  29.6229792
  22.0654535  81.4991951  30.9521651  47.4672174  67.2788334  22.9369974
  47.1666622  67.7672338  22.1705985  48.2638216  67.7323055  23.2127166
  80.4369686  12.7657069  83.0298551  80.9043565  13.5649051  83.2728727
  80.0890700  12.9477443  82.1568950  90.3826301 107.2373915  92.1988772
  89.6259373 107.0503665  91.6432969  90.0795954 107.0500851  93.0873124
  39.6981692  44.1228151  41.3319063  39.8008609  43.8158417  42.2327137
  40.0776100  43.4258604  40.7966423 109.7203898  42.1937895  18.2287920
 109.1761726  42.9809189  18.2507968 110.2776217  42.3093081  17.4591303
  30.5095243  44.5139408  16.4920604  29.7794533  44.5123768  15.8730066
  31.2909198  44.5555401  15.9407699  61.2449312  15.1175344  34.9041653
  62.1451759  15.0427902  35.2207160  60.7094622  15.0941944  35.6972337
  22.0577574  45.7318497  49.1288519  21.5937114  46.2357283  48.4602690
  22.5224447  46.3902283  49.6454191  69.0222740  48.3022213  24.9485016
  69.4446182  49.1432428  24.7737384  69.7427607  47.7157211  25.1790452
  41.1437607  23.6808848  21.9880581  40.2012587  23.7287617  21.8279696
  41.2777185  22.8145313  22.3724008   5.6480801  71.0915518  35.2099347
   5.8352947  70.1528406  35.2102208   5.1277965  71.2317801  34.4188142
  25.0631714  27.4253893  25.0881958  24.2246008  27.0214295  25.3114605
  25.6734014  27.0888352  25.7443833   8.2038075  51.5443993  25.9581661
   7.4489945  51.0385418  26.2591624   7.8651613  52.0729446  25.2355385
  40.9852600  36.6007543  29.9509597  41.4976358  35.8005762  30.0667810
  40.6424713  36.7940688  30.8235168  20.2498674  53.8978291  67.9748726
  20.7257509  54.2589188  67.2269535  20.9100223  53.8193274  68.6635447
  36.9873977  43.5715246  14.5061076  37.7061796  44.2018127  14.4579780
  36.6089654  43.7057018  15.3750241  29.9028683 100.1776314  38.8676047
  30.2102828  99.3263912  39.1792417  28.9568329 100.1581955  39.0120697
  41.3019848  81.3965321  21.9574809  40.8482409  81.3580036  21.1155415
  41.2335062  80.5081940  22.3073387  23.5411477  65.9882259  23.5242581
  24.1026616  65.2584028  23.7855816  23.5266113  65.9487677  22.5679827
  32.7133679  19.5827830  39.4255662  32.6444387  20.5248356  39.2706013
  33.6546969  19.4164836  39.4753385  80.9460068  71.2187767  32.5106215
  80.1221752  71.5780544  32.1812987  81.3332462  71.9327974  33.0170321
  31.6247177  36.1297750  41.8971300  31.0879445  36.9217229  41.8667507
  32.5165606  36.4499593  42.0325136 113.9463216  61.1755705  67.4601889
 113.4867840  61.8111134  66.9114256 113.7364175  61.4371681  68.3567047
 109.1566514  55.4243374  29.2701030 108.3538776  54.9122810  29.3679857
 109.5870810  55.3602314  30.1226592 113.3740818  45.1784086  20.1955748
 113.5086855  45.6914091  19.3987405 113.5236027  45.7994986  20.9084034
  14.2182791  62.7642202  33.1620455  14.8132706  63.4848452  33.3691978
  13.3524990  63.0903196  33.4076381  49.3494272  44.7159147  26.2435341
  50.2643490  44.9128675  26.0426331  48.8820124  45.5293274  26.0534930
  29.8150039  60.8857012  46.3358355  29.7552061  61.8342018  46.2217903
  28.9890075  60.6421661  46.7537498  47.1114779  60.6483221  25.3063607
  46.9446945  60.0614548  26.0439229  46.6048527  61.4352512  25.5071139
  64.8880833 107.1092082  91.2963788  64.4274228 106.2759019  91.3945039
  64.2110389 107.7736617  91.4242248  35.0217938  55.7294703  40.2261543
  35.1567292  55.0795317  40.9157944  34.5229506  56.4280462  40.6496811
  36.8524170  40.2760887  21.6223454  36.7349434  39.3321609  21.7292857
  35.9632802  40.6305027  21.6301036  48.2562876  43.2837534  47.1724033
  48.5466242  42.8570795  47.9785633  47.7571869  42.6097536  46.7110395
  49.5486069  68.7681389  23.5700941  50.3461075  69.1693401  23.9154267
  49.0723896  69.4925737  23.1643271  28.5815597  61.7111778  31.0355330
  28.1251335  61.8037319  31.8717980  29.0227723  62.5511837  30.9092259
  53.9602679   9.4228495  49.3916321  54.4933337   9.5271529  48.6034727
  54.4835752   8.8596858  49.9619198  18.9355862  28.8997626  28.8086343
  18.7352312  28.7871003  27.8794432  19.5704675  28.2100296  29.0020990
  22.6918292  37.7372575  43.2444525  23.0058527  37.9812551  44.1151333
  21.9921803  37.1054792  43.4105253  23.9391994  74.6035719  44.8886728
  23.0302405  74.4080257  45.1162434  24.3698359  74.7536469  45.7302570
  32.4510717  25.7427526  38.8994598  32.9409456  25.3711176  39.6330404
  32.8087592  26.6244125  38.7947297  29.8898530  80.9261799  26.7928219
  29.8346615  81.4650917  27.5819707  30.2731872  80.1017380  27.0921302
  58.9981025  97.0052243  95.4636986  58.9559536  96.0702944  95.2627893
  58.0863374  97.2618962  95.6016703  74.8261833  56.1351252  35.6077838
  75.5896854  56.4526606  36.0899329  74.5836878  55.3224039  36.0515261
 103.7147515  43.9883995  24.2649841 102.8868812  43.5088253  24.2354536
 103.7684637  44.4260454  23.4153891  28.0353260  82.0379448  17.0099199
  28.8026738  82.0725250  17.5810683  27.9026246  81.1047459  16.8432963
  46.6369200  25.7226491  15.4470146  46.7555141  26.6704774  15.5085802
  45.7505608  25.5703855  15.7747459  14.0172184  27.6737547  31.1449552
  14.8918593  27.8790569  30.8146739  13.4219348  28.0863190  30.5191278
  90.4275351  58.5387516  29.3233323  90.4014545  58.1587219  28.4451914
  89.8655754  57.9684448  29.8479080   6.5842223  39.3852758  28.2754445
   5.8658779  40.0126743  28.3565760   6.2331116  38.5711932  28.6363053
 112.0544927  98.3504534  90.9962775 112.4894922  98.5540438  91.8242617
 112.7707308  98.2283831  90.3731109  59.6147633  47.0819378  40.1034689
  59.6431446  47.1239042  41.0593271  60.0217152  47.8991175  39.8156571
   5.6838608  19.3335986  75.6636572   6.1950397  19.8550308  76.2825584
   5.6121051  18.4733558  76.0772610  64.3871880  43.4273100  38.0154419
  63.8570976  44.0563297  37.5259829  64.9253416  43.9669800  38.5945582
  48.3178555  94.7821093  91.2744554  48.8038891  94.3510962  91.9774713
  48.8675409  94.6690775  90.4990192  48.2117796   4.6255133  56.7469788
  47.6110029   5.3624302  56.8576670  48.9221191   4.9743953  56.2085295
  16.7487633  17.3403108  54.2357445  17.2788084  16.5434086  54.2206097
  17.0337403  17.8025782  55.0239897  20.3476882  35.4248691  39.5572519
  20.7411718  36.2497902  39.8416972  20.8225918  35.1959014  38.7583327
  55.9936571  23.2486391  20.8893275  56.6677618  23.9140987  21.0271096
  55.1834583  23.6635447  21.1854005  33.0274010  25.0341105  86.7741489
  32.2434568  25.1035523  86.2293148  33.7538505  25.0439548  86.1509228
  40.6562376  44.2479897  37.5009561  39.9623108  43.7119007  37.1171522
  40.8640814  44.8915625  36.8235779  16.7157853  77.6006842  16.4482939
  17.4592006  78.1824493  16.6067863  16.1466706  77.7270269  17.2074890
  77.8843451  60.4314089  14.3410349  78.6680126  60.9788132  14.3904757
  77.6158524  60.4798365  13.4235382  35.2406192   5.1441830  26.8686414
  35.9393406   4.4937307  26.9388652  35.6776762   5.9309524  26.5427470
  22.5783777  83.4554577  50.7796764  23.3344960  83.2302475  51.3217115
  22.5393844  84.4114304  50.8083105   2.4290700  47.8135395  27.7439332
   1.6885844  47.8435564  27.1381187   2.0362303  47.6084471  28.5923696
  11.8982089  16.1271942  33.3238983  11.3117301  15.9123623  32.5985551
  12.2246730  17.0028126  33.1166673  37.0543330  59.6735109  87.0355006
  37.2947176  60.5924363  87.1539201  36.1011242  59.6622182  87.1220841
  29.8753262  43.8745117  56.9757700  29.9245572  42.9502678  57.2198629
  29.0038252  43.9750147  56.5928650  11.0985172  56.3919926  40.7815742
  10.3841615  56.2403965  40.1627445  11.8814194  56.0870266  40.3230000
  55.9761763  73.9231873  11.4694560  56.7212677  73.7604809  12.0478988
  55.2267933  74.0000296  12.0600080  22.5796080  59.9692869  22.4457240
  22.2190452  60.8509684  22.3516011  21.9742131  59.4097519  21.9592571
 109.3544995  74.5164204  26.3209128 110.2797025  74.7457838  26.2336040
 108.9749598  74.7226954  25.4667282  35.8707118  29.0958953  21.9001770
  36.6002893  29.6219826  21.5727949  36.2117004  28.2017994  21.9235921
  48.5952902  52.5513411  36.8428636  48.1886721  52.1286583  36.0863996
  49.3492222  53.0167437  36.4806271  69.8159020  92.0733739  91.0149165
  69.4143432  91.2342096  90.7895647  70.2295153  91.9205046  91.8644966
  76.3091247  87.6626659  90.5903880  75.8774202  86.8222976  90.7441487
  77.1164172  87.4362708  90.1285936  40.6411314  35.9592986  20.6530857
  40.0088787  35.7275605  19.9727988  40.2992392  36.7690992  21.0319829
   1.7308453  38.3710384  54.5988035   2.5085640  38.8732839  54.3556261
   2.0750779  37.5400448  54.9261951  36.1564565  72.2379112  10.5232525
  37.0482278  72.2170830  10.1760614  35.7285404  72.9460764  10.0419843
  17.8591526  47.7773142  33.1191564  16.9161367  47.9127693  33.2119298
  18.0113077  47.7912426  32.1742296  94.8054218  18.4809579  82.0601912
  94.2948066  19.2705907  81.8813487  94.1564738  17.7780141  82.0912512
  38.4262824  57.7171707  24.2205906  39.0070319  57.9652405  23.5012650
  37.5533867  57.6987839  23.8282299   7.8651023  60.2219105  24.0938878
   7.2901171  60.5655670  24.7776461   8.1429279  59.3667173  24.4220424
 110.3168541  47.9585218  26.9776773 110.0369185  48.1657219  26.0860848
 110.3778481  47.0034027  26.9937015  32.4356556  57.9335976  40.2042961
  32.4415612  58.8719559  40.3931808  32.8128839  57.8634262  39.3273640
  67.1148777  40.7153177  30.5959916  66.9704962  41.4546871  31.1865163
  67.5731850  41.0939360  29.8457670  36.9048786  38.3798957  17.4871790
  36.5041184  38.8006544  16.7265296  37.0256615  37.4684811  17.2207892
  55.4077673  36.7836094  16.3881087  54.4754982  36.9903183  16.3219595
  55.7168531  36.7786074  15.4821992  23.3573604  33.5545874  23.7362266
  22.6237750  33.6519170  24.3433595  22.9468966  33.3575559  22.8942466
  65.0598501  18.9441480  94.4405188  65.9227204  18.6884774  94.7665851
  64.4650697  18.2815398  94.7918247  19.5290303  69.7647524  64.1982985
  20.2259898  69.5578909  64.8209381  19.6962929  69.1895008  63.4517431
  37.8393030  23.6393070  25.6264138  37.1725249  24.1507101  25.1680446
  37.3928070  23.3067536  26.4050555   0.7862596  50.8816957  29.8049712
   0.1322637  50.2770090  29.4544363   1.2783957  50.3607321  30.4395032
  19.4201458  66.0530949  41.1818314  20.1471543  66.4724827  40.7216072
  19.8191500  65.6743526  41.9651461  61.5234804  61.4670372  33.5688066
  61.1167908  61.0120535  34.3062496  61.7514801  62.3295069  33.9157844
  69.0764952  36.4714622  18.0162275  69.3556881  36.3949299  17.1038532
  69.1564798  37.4046469  18.2137060  17.3374724  41.0771465   1.9675057
  17.8533924  41.5524578   2.6187617  17.9150712  40.3736544   1.6713470
  43.6221504  40.2316475  30.9531379  44.3307543  40.5511618  30.3945446
  42.9713345  40.9334183  30.9393835  31.9740176  43.9939308  20.3141952
  31.0291147  43.8797474  20.4159546  32.3362517  43.1170130  20.4408455
  40.5451155  18.9677238  35.6359529  40.4550219  19.2542017  36.5448213
  40.0603199  19.6198785  35.1300883  18.9371419  56.1156940  30.7061481
  19.2300391  56.8507290  30.1674771  18.7714458  55.4109287  30.0799847
  35.2414107  56.3399315  34.1392112  35.3340840  57.0590258  34.7641468
  35.7647324  55.6301498  34.5114756 104.2883330  49.5172977   6.8129301
 103.9905220  48.6362982   6.5862614 103.5376757  50.0800943   6.6231805
 111.4228594  20.1110400  94.8045741 111.5831196  20.8593501  94.2296118
 111.7623865  19.3590774  94.3192810  19.4670713  63.4953690  18.8641524
  20.3042603  63.4533358  18.4020078  19.2758000  64.4310427  18.9286351
  56.5155983  46.1122704  14.2532408  56.1361265  45.2612257  14.0342522
  55.8073425  46.5849543  14.6904731 102.9132401  16.5271367  86.5092535
 102.3913967  16.4336051  87.3062255 102.6371109  15.7971276  85.9551110
  27.8182244  55.3305244  30.4002643  28.7650394  55.4615402  30.3491569
  27.6177120  54.7448921  29.6701574  22.9537845  33.2018471  39.0115428
  23.8138223  32.7936959  39.1114473  22.3559713  32.4684358  38.8667774
  79.0631866  47.6981258  39.2720294  78.8530016  48.6040545  39.0454435
  79.8554230  47.5036144  38.7712622  31.5920424  54.6875668  70.7439852
  32.0864511  53.8698626  70.8001041  32.1202493  55.2483177  70.1758385
  55.4780006  22.1733761  39.0208602  55.4188156  22.8661251  38.3629608
  54.9375105  21.4647007  38.6717415  42.0384979  42.4657631  13.5807550
  42.7031136  42.0096874  14.0970039  42.0764065  42.0491552  12.7198076
  13.0155158  56.3856077  44.2267036  12.1626163  56.2669134  43.8087273
  13.5680771  55.7059813  43.8406801  48.8437033  30.8437562  29.4680071
  48.4174824  30.9167075  28.6140490  48.8614893  29.9036646  29.6472907
  25.8422470  32.9595470  13.1631315  25.3854132  32.1356702  12.9935324
  26.0819864  32.9143453  14.0887189  19.1537845  44.0500927  19.6649969
  19.6183896  43.2735586  19.3529546  19.8389721  44.7080851  19.7824562
  21.0910892  91.6762543  41.7663145  21.7469954  92.3555183  41.9232368
  21.5236807  90.8617878  42.0227146  72.9522943  69.9850702  29.5023775
  73.1858015  69.4007111  30.2236462  73.7891436  70.3363228  29.1981769
  75.0866359  11.8444671  69.0947934  74.6522027  10.9953965  69.0136905
  75.4016092  11.8670072  69.9984069  81.7293835  28.8720751  27.3522210
  81.6540909  27.9342294  27.1761274  82.1412182  29.2310476  26.5662456
  53.7400103  47.6683521  11.4279497  52.9307842  48.1099939  11.1703920
  53.5566139  46.7378187  11.2987041  62.8713274  58.3482456  30.0769114
  62.8686810  59.2437029  30.4151154  63.5360384  58.3543062  29.3881798
  39.7651625  52.0300436  39.9444222  40.1442003  52.8185940  40.3326941
  40.1275921  52.0010853  39.0589619  31.8502355  61.0317945  54.0631485
  32.5377369  60.7697535  54.6754408  31.5517282  61.8814468  54.3875122
  21.4458609  63.2399464   6.4789975  22.1169925  62.5692320   6.6053361
  21.3170576  63.6168289   7.3493993  36.0738921  55.1106882  21.8405676
  35.5062413  54.3690777  21.6307688  36.8351388  54.9981928  21.2712836
  62.8959799  65.8311749  48.3461332  62.9510069  65.4113626  47.4876642
  62.8679609  66.7682934  48.1531239  28.0982905  11.1570205  72.6835104
  27.1726018  11.1200561  72.9242774  28.1362802  11.8008794  71.9762369
  28.7411356  73.4086657  18.5376465  28.8274097  72.5629616  18.9776206
  28.9162731  73.2181787  17.6160860  50.6344843  73.0422640  33.1126285
  51.1081553  72.3510933  32.6498556  50.5103207  72.6969433  33.9966941
  40.8996296  51.8820810  37.1562648  40.9604836  51.8723392  36.2010503
  41.7286444  52.2635078  37.4451995  49.0563393  53.1772947  62.5813723
  48.4925079  53.3306980  61.8232155  49.9271488  53.4486628  62.2910595
  42.4134111  41.7924213  21.9329667  41.8540239  42.0095348  22.6787424
  42.4379539  42.5941229  21.4105654  52.4223614  61.5363407  49.9343157
  53.1479549  61.2313938  50.4790688  52.8311825  61.7743969  49.1021919
  27.2566223  79.7480774  28.5396123  26.8480206  79.2533875  27.8292894
  27.4818492  80.5909443  28.1458116  14.8769784  67.5599957  35.8816886
  15.3991175  67.4513626  36.6765499  14.3570876  68.3474731  36.0423970
  53.0721951  61.5661144  29.7464323  53.3299780  62.4088812  29.3728948
  52.8191185  61.7705011  30.6466603  59.8059702  67.9799891  53.3438444
  60.2145958  67.6273918  52.5533199  58.8656902  67.9002333  53.1833887
  54.3579977  90.4881812  90.8256786  54.6206801  89.7081185  90.3370764
  53.8882392  91.0241342  90.1866843  27.7057242  69.0200424  63.4941339
  28.1257653  69.3148851  62.6861286  26.7720962  68.9973593  63.2842445
  71.3481998  47.7199650  30.8792067  72.0069790  47.9045439  31.5486622
  71.8241358  47.2416639  30.2002788  96.3711452  36.8408751  46.4403963
  96.8187141  36.5415144  45.6490040  95.6256294  37.3467541  46.1171055
  58.4512472  61.6083336  48.0680275  58.4835815  61.2765074  47.1707630
  59.2050743  61.2060547  48.4994745  76.0932255  50.2383137  47.0618153
  75.3997564  50.8767128  46.8951368  76.4461517  50.4857159  47.9164886
  46.2047052  26.9146180  11.1281455  46.0380363  27.4884105  11.8759513
  45.7020903  27.3025990  10.4118490  44.8080254  79.5385790  40.6776237
  43.8902569  79.6736431  40.4416513  45.1613283  79.0020704  39.9679995
  74.1791964  32.5734830  33.1989646  73.9377499  33.2463026  33.8355541
  75.0217867  32.2416782  33.5090899  55.1953125  38.3900666  29.0490079
  55.3065443  37.8774691  29.8496985  56.0576534  38.3758855  28.6338043
 111.0164076  44.6439123  29.9590993 111.2215954  45.2319145  30.6860018
 111.6984552  43.9732075  29.9937177  36.4573002  70.1064014  50.9678745
  35.8586907  70.3674650  50.2680588  35.9610510  70.2503157  51.7736387
 112.5947529  37.7526355  57.2491169 112.1359407  38.4549975  56.7882347
 112.6292344  38.0461597  58.1595516  55.7498074  53.6698914  24.0801644
  56.5449476  54.1047096  24.3882489  55.0379515  54.1273117  24.5276666
  29.5270467  26.1408329  22.8910899  29.6997571  27.0650434  23.0706406
  30.3136206  25.8333039  22.4405813  34.1503477  90.5992222  74.0111685
  33.4287477  89.9710083  74.0406513  34.5016646  90.5190086  73.1243896
  32.0096207  60.3379583  30.9089065  32.4868822  60.9171200  31.5030646
  32.6913285  59.9205589  30.3823304  58.8129616  37.8420663  28.5237241
  58.8301659  37.0960069  29.1231680  59.1537523  37.4948740  27.6993752
  71.4933872  63.0307865  52.8422594  71.2740135  62.1100235  52.6997662
  70.6627178  63.4942341  52.7353287  68.2655621  58.3827877  40.2269506
  68.6803389  59.2443085  40.2713394  68.1590700  58.1208277  41.1414289
  20.8444381  41.2478638  37.1513462  21.6440058  41.7622662  37.2623038
  20.2333474  41.8450928  36.7199302  14.9903250  35.9561920  61.9438505
  14.1172016  35.7119155  61.6369057  15.5423629  35.9017777  61.1637735
  45.0783539  87.1491909  40.3758335  44.6375370  87.7616215  40.9647655
  45.8842182  87.5990295  40.1219511  43.2839966  74.5602322  37.1972489
  43.1157780  73.8120937  36.6243410  43.9777946  75.0493717  36.7549610
  50.6605673  24.9349928   9.3164575  50.7076168  23.9866829   9.1950941
  49.7334003  25.1101470   9.4774419  36.5257621  54.3550968  46.5426826
  36.6501808  55.0625515  47.1753454  37.4120021  54.1238976  46.2645531
   8.9983874   8.1228484  84.6443267   8.7289029   7.4119367  85.2258857
   8.8827592   8.9165343  85.1667519  28.8618356   3.4008493  89.3147309
  29.3075448   2.8106775  88.7070562  28.0723506   3.6741246  88.8475384
  97.6691914  63.1422901  30.7033229  98.1630135  62.5336218  31.2527728
  98.2468987  63.3169842  29.9603772  87.7107430  31.0469365  48.2210732
  88.1672382  30.4892421  48.8510036  88.3280659  31.7547941  48.0364513
  77.0279837  52.3311853  43.8854122  76.4896774  52.9607058  43.4056616
  76.4074898  51.8605566  44.4419479  79.3408840 108.5652924  87.9991622
  78.6536019 108.6841679  88.6547120  79.2869871 107.6398278  87.7607562
  39.7631264  50.4384327  12.7337790  39.5611572  49.5657778  12.3962677
  39.7078347  51.0101080  11.9680357  59.1429663  30.8844590   1.5269697
  59.8008108  30.4078007   2.0331994  59.4258308  31.7980456   1.5667339
  18.2617581  62.2475815  12.1901178  17.7742386  61.5077829  12.5524044
  17.6086712  62.7486038  11.7015612  57.9324675  80.3643227  15.6067431
  58.3547497  80.8893013  14.9268079  58.6409807  80.1380920  16.2092829
  25.3157091   3.0752471  28.7117028  24.5157194   2.6801544  29.0583324
  25.4508877   3.8546574  29.2506623  33.3642626  41.4296055   4.6473238
  33.7427092  42.2307444   5.0095212  32.4432325  41.6449213   4.5004460
  34.5356417  55.0780439  10.1328599  34.2949486  55.5135870   9.3151796
  33.7030911  54.9390459  10.5842710  42.4830818  83.6600685   6.2605417
  43.3383942  83.8715935   6.6346139  41.8619823  84.1726494   6.7779648
 115.2515821  39.7647214  40.1654339 116.1421479  39.9803400  39.8886061
 114.9595892  39.1027927  39.5386815  45.1339579  83.0422306  19.8864341
  44.8551512  82.4317074  20.5688977  44.3810701  83.1044960  19.2986274
  24.5195436  43.8181925  13.7610030  24.4513941  43.1434536  14.4365156
  25.4076147  44.1626740  13.8552940 100.3498554  37.5587440  32.9808068
 100.5848503  38.1181431  33.7211323 100.8561897  37.9072666  32.2470593
  47.0983934  22.7940583  44.4803190  47.2382641  22.0102930  45.0117111
  46.1670828  22.7712488  44.2603779  48.3862543  52.2564888  30.7207656
  47.9868698  51.4812183  31.1153293  47.8475475  52.9858303  31.0274959
   3.4489834  35.6574416  20.3356385   3.2210743  36.2395835  21.0604835
   4.3685490  35.8507371  20.1532435  36.8529367  82.0377064  36.8808413
  36.4504695  82.6521683  36.2670875  36.3608432  82.1540833  37.6935744
  39.7019267  39.5231628  36.8660235  40.2277422  40.1474762  37.3660040
  39.6613383  39.8955536  35.9851670  58.6339998  56.8932867  25.5981874
  59.4438314  57.0556688  25.1144099  58.1043720  57.6764107  25.4483604
  53.8321447  51.7910528  36.7296481  54.5057154  51.2666941  36.2965345
  53.1227636  51.8459177  36.0893369  15.2890074  81.9303417  52.5999498
  15.4718626  82.1751118  53.5070801  14.4751894  81.4285946  52.6466465
  39.6546412  40.4802132  14.2635667  40.0780678  40.9882736  13.5715997
  40.3647327  39.9731231  14.6570849  65.1335287  22.9601502  41.5050554
  64.5288754  22.2245121  41.4077806  65.8728647  22.7389932  40.9387493
  42.7557707  44.3441868   8.6450219  43.3067036  44.1899109   9.4124252
  42.3181534  45.1756811   8.8276047  71.2799406  61.1492109  30.1768708
  71.5173912  60.4075289  30.7334304  72.1178913  61.5016747  29.8771381
  10.6257868  26.1421514  31.3547111  11.4158368  25.6035280  31.3987327
   9.9787605  25.6608868  31.8704367  41.5547419  14.4146705  15.6175745
  41.9449043  13.6044526  15.2896202  40.9103775  14.1257763  16.2637699
  59.8726273  48.1747723  28.5860610  60.4928637  47.6684093  28.0615306
  59.8895264  49.0497971  28.1984043  67.7356577  56.5494633   7.3790449
  68.3504343  56.5778494   6.6459167  67.0689631  57.1997118   7.1578687
  36.8902731  76.1756516  30.1699162  36.7152333  75.4168606  29.6132946
  36.7206645  76.9304323  29.6062088  58.2882738  28.3040237  43.6223459
  58.9349937  28.9749765  43.8410044  57.5882292  28.4282374  44.2632341
  33.2663393  73.7596369  49.1855145  33.7458134  74.2252874  49.8707199
  32.4093080  73.5805273  49.5723581  75.0092936  49.4856930  44.1157246
  75.6226587  49.1764927  44.7823620  74.1446257  49.3374014  44.4986010
  69.6379852  55.8829021  34.6765256  69.2211294  55.2373409  34.1058111
  69.3511724  56.7283821  34.3313646  10.9158116  37.7157010  76.4538558
  11.5139514  37.7907170  75.7103296  10.3475886  38.4826841  76.3824649
  66.6913795  59.5851421   9.1689223  66.7772150  59.2407131   8.2799715
  65.8026361  59.3473244   9.4331467  60.9237289  27.1260405  19.7813356
  61.5506363  27.6846433  19.3217933  60.1288319  27.1705484  19.2499292
  64.7639227  63.2770205  31.4974999  64.7978115  63.8726044  30.7489252
  65.3750420  62.5752926  31.2731147  32.9976016   9.1459550  95.6207013
  32.6622897   9.5070447  94.8000837  33.1408912   8.2182779  95.4333277
  11.8770981  35.4992843   6.4040405  11.1614466  34.8671007   6.3375777
  11.9065809  35.9189487   5.5442470  19.3559861  66.0059261  49.7380543
  19.3625283  65.0733662  49.5223570  19.3458509  66.4480495  48.8891411
  45.8434963  93.7222481  12.3503947  46.1863470  93.0483437  12.9373693
  46.5432119  94.3733692  12.2986543  10.6985676  79.7484112  52.2268295
  10.3939569  79.1702652  51.5274048   9.9496180  79.8243141  52.8180504
  52.5493193  73.3723593  48.8486481  52.2263050  72.9616642  49.6506643
  51.7642450  73.5161924  48.3202553  36.5303755  48.3771133  63.0509186
  35.8364582  48.8996315  62.6488113  36.3405371  47.4785757  62.7810669
  84.6699333  49.6566439  48.4839439  83.7633896  49.6163082  48.1793499
  85.1923656  49.4490957  47.7092075  43.1170940  59.1742229  29.3348575
  42.4323320  59.5999146  28.8189864  43.6786318  59.8924303  29.6265483
   5.9831023  26.1421585  40.8869696   6.0058898  26.8094015  41.5728998
   6.9023287  25.9213185  40.7370234   7.4356258  53.4361887  37.2191119
   7.7305883  53.9223909  37.9890704   6.7958438  54.0132332  36.8020630
  65.8903027  70.7345343   5.3720933  65.5939674  71.3641453   6.0293680
  66.2171316  69.9927568   5.8811939  60.8526945  13.7112331   7.2413993
  60.5865240  13.6237228   6.3261259  61.2113380  14.5965707   7.3029381
  71.6279125  29.3586516  49.0750599  71.9768143  30.0105095  48.4671307
  71.3868618  28.6175895  48.5192251  61.1236620  79.1426754  35.6098342
  60.6200647  78.6148405  36.2295222  60.4629993  79.5475864  35.0478721
  45.2730322  64.6997404  31.6540241  45.0097370  64.8044491  32.5683236
  45.5311584  65.5788469  31.3769317  47.3087788  52.1510506  24.6694779
  46.8708467  51.3000154  24.6559882  47.4461937  52.3350000  25.5987310
  22.5162959  38.2381034  34.5562077  23.2192159  37.9645157  33.9668965
  22.8721809  38.0997682  35.4339552  50.2837944  55.6748152  25.5412722
  50.3335571  55.0485086  26.2634206  49.9667263  56.4822531  25.9459233
  14.9993408  45.3986120  32.5902247  15.3384721  44.7847223  33.2416534
  14.0675640  45.4752064  32.7955508 113.8753258   0.2281465  82.8299566
 114.0625417   1.0932960  83.1942339 112.9895889   0.3042258  82.4751194
  10.0735295  47.4648809  13.8018167   9.1624659  47.4500561  14.0950334
  10.3187370  46.5420246  13.7351751  39.9551988  84.7760296  37.9112172
  39.6091509  83.9494896  37.5746059  40.5266285  85.0980759  37.2140861
  51.8357134  59.4292450  52.8519201  51.3895464  60.2292347  52.5740957
  52.7206802  59.7149801  53.0786896  38.2119584  71.8740702  30.1028061
  39.0465760  71.6816854  30.5301595  37.5527382  71.6957951  30.7735348
  31.2123299  54.8177528  29.6870542  31.4284730  55.4620934  29.0130067
  31.3416219  55.2830982  30.5134726  41.3196278  71.2638092  19.1869485
  40.4754543  71.7026186  19.0818167  41.5148973  70.9091949  18.3195674
  62.0399380  52.7205372  37.8773284  61.4321899  52.2386408  37.3163891
  61.9899273  53.6237240  37.5643015  25.7377505  85.4303455  91.5135670
  25.3047705  86.0621643  92.0876408  26.5086913  85.8935165  91.1859035
  23.3454418  60.1280880  18.7674856  22.7744317  60.2222586  18.0050492
  23.4549212  59.1826487  18.8694191  66.5282345  35.2968264  17.7036262
  67.4543428  35.4609799  17.8814197  66.4381599  35.4303265  16.7600703
  52.7543020  37.6921892  42.5977564  53.4228325  37.5986791  43.2763910
  53.1656694  37.3439813  41.8067074  56.6848993  78.7546778   6.3018596
  57.1374798  77.9252005   6.4547139  56.5427208  79.1148138   7.1772575
  78.1449366  55.1800776  28.5690284  77.7712297  54.7222281  29.3219876
  77.5131750  55.8714914  28.3714199  36.0590649  51.9850922  30.3831506
  36.9682074  52.2333336  30.2156138  35.5752182  52.8102827  30.3486562
  22.1657109  69.3908787   7.2204083  22.9010129  69.4283009   7.8320968
  21.4899898  68.8998985   7.6879221  59.3894768  62.0232868  42.8115606
  59.2597055  62.9225159  43.1128454  59.8854113  61.6042471  43.5149050
  13.0528641  77.2786045  47.6451969  13.3783424  78.1765985  47.7076769
  12.5629890  77.1444082  48.4565210  28.4275556  69.3333960  27.0743322
  27.7959228  69.6802568  27.7043819  27.9024363  68.8000917  26.4776206
  38.4940219  61.1239958  38.5185361  38.6696815  61.0903978  37.5781918
  37.6303363  61.5310144  38.5864615  62.4306965  77.2947454  42.8064108
  61.7060852  76.6765165  42.9010820  62.0192289  78.0996609  42.4916983
  42.9706383  58.2241488  19.6543050  42.7860689  59.1036701  19.3247426
  43.1186247  57.6996708  18.8673782  67.8568745  47.8232622  37.6732445
  68.2811165  48.6404562  37.9348731  67.7011013  47.3600769  38.4963036
  91.6773415  29.2873311  49.5510626  91.7982483  29.1171622  48.6169004
  92.2253227  28.6342978  49.9863672  18.3061707  47.5594139  30.4773617
  19.1641998  47.3473120  30.1098943  17.6932967  47.4073076  29.7579980
  62.3623323  81.6204929  36.6552663  62.1189308  80.7777214  36.2722301
  61.5293980  82.0170403  36.9106102 101.5755558  53.7561226  14.3436623
 101.4665508  54.7068644  14.3646300 100.7805824  53.4148073  14.7532284
  86.6987038  59.8677158  36.1744475  85.8226299  59.8299694  36.5582561
  87.1374893  59.0823698  36.5014458  55.0377703  57.3568058  13.5265970
  55.8781195  56.9474077  13.7326038  54.4050169  56.8946171  14.0763605
  70.5118084  68.6391592  28.7538433  70.4614162  69.0033722  27.8700781
  71.2244415  69.1225529  29.1718388  17.4723709  45.4289198  47.5198555
  17.9146791  45.8023596  48.2821798  17.4984276  46.1247969  46.8631124
  43.7586784  50.3443575  43.0308867  44.6135139  50.0250149  42.7419043
  43.9262724  51.2367535  43.3338261  52.5918102  54.0281916  40.5215454
  51.7537546  54.4870663  40.4638815  53.1017971  54.3675613  39.7860360
  39.0742254  49.6209192  41.0250235  38.9346004  49.2260838  40.1643038
  39.3708444  50.5109406  40.8349895  55.6231737  61.4219809  42.6793671
  55.6790257  62.3273993  42.9848671  55.7048130  61.4848280  41.7277288
  47.6724529  46.8599081  38.1733179  48.0576038  46.4390755  37.4046874
  47.6803875  47.7939463  37.9641747  53.2864571  39.1938734  27.4241042
  54.0319109  39.0113068  27.9961181  52.8852797  38.3380413  27.2729754
  45.3687572  34.1442871  29.7272158  45.7360220  34.1543174  28.8433337
  45.9385300  33.5509157  30.2166080  14.3156993  44.7162342   7.0817304
  14.6895516  44.1290092   7.7387196  14.8002696  45.5347633   7.1886450
  61.2947178  85.7059193  12.0651507  60.5460262  86.2677002  11.8649256
  61.7192507  86.1295033  12.8111923  25.5524826  88.4382534   5.3868383
  25.4550982  88.2109737   6.3115501  25.1578426  89.3069935   5.3108728
  34.6285868  66.7570210  22.1511960  34.5526481  66.8411684  23.1016612
  34.8938632  67.6274300  21.8541217  40.7698345  67.8551960   3.3052334
  39.9433160  68.1264162   2.9058120  41.3792276  67.7848434   2.5704378
  97.7552288  96.8407727  88.0800100  98.2068889  96.0216666  88.2832410
  97.0616596  96.9012166  88.7369313  55.3267717  48.2904482  36.5944815
  55.9042883  47.6940775  36.1179829  54.8016548  48.7105942  35.9133363
   5.9892428  56.9740486  10.1688480   5.4443234  57.4928856   9.5771551
   6.4838624  56.3928175   9.5911324  18.2982856  13.3879937  92.3569580
  18.4594756  14.3108358  92.1604516  18.2789069  13.3465375  93.3130637
  57.5794125  80.5345440  27.0046496  58.4717989  80.8606243  27.1210551
  57.5608826  79.7092247  27.4891376  30.0956392  54.7552967  53.5682726
  29.8577356  55.2967262  54.3209267  29.4953799  55.0310755  52.8755474
  79.3105096   1.4343203  44.0560818  79.4644183   0.6033743  43.6065626
  78.9558309   1.1831606  44.9089336  45.4901457  69.3385077  17.0716357
  46.0039759  68.5441828  16.9258320  45.0069666  69.1662359  17.8797770
  69.9264002  75.4656601  20.1179075  69.8163986  75.7341480  19.2057431
  70.3124332  76.2290478  20.5473876  63.2822466  77.7610874  34.7315717
  62.6177168  78.3753157  35.0435972  62.8468132  77.2710752  34.0340662
  48.5624218  86.8488979  53.1429434  49.1807699  86.8823719  53.8728476
  48.2028675  85.9623432  53.1741047  71.2779236  64.6979761   5.3643394
  71.3575697  64.0021467   6.0168076  71.2658167  64.2386723   4.5246205
  30.7285452  15.8793938  14.4709349  31.0733795  16.4346993  13.7716806
  30.9491348  14.9882638  14.1999006  78.7743282  45.3924894  24.4963598
  78.1806326  45.9116983  25.0387430  79.5483398  45.9457445  24.3912888
   3.2078105  31.8434133  86.1687811   2.9763681  32.7453698  85.9471192
   3.1773311  31.8164338  87.1251150  87.3300474  94.0937734  90.9735413
  88.1940048  94.4450594  90.7581102  86.8729227  94.0503431  90.1336719
  34.2860794  45.9326649  36.4599848  35.2218962  46.0043001  36.6479945
  34.0542698  45.0448847  36.7326498 100.9314125  79.2432380  86.4263089
 100.3203695  79.2718340  87.1625419 101.4998501  80.0021673  86.5572150
  64.5630836  77.8846598  38.6516118  64.6605301  77.3239470  37.8819752
  63.6346006  78.1171036  38.6625910  10.4468262  59.0936089  78.8672209
   9.6458572  58.6782932  79.1868973  10.1429462  59.8709202  78.3985281
  56.9810152  58.4761143  49.6534538  56.3938046  58.0797625  50.2971363
  56.5032387  59.2408562  49.3323183   5.5511171  89.8267269  10.8108795
   5.1209658  90.5472851  11.2713099   4.9249953  89.1042805  10.8586073
  80.9611320  46.4088202  50.6857061  81.7976475  46.6504383  51.0833263
  81.1361313  46.4027500  49.7446585  69.9955320  45.9832811  36.9093966
  69.8168421  45.7432270  37.8186154  69.2549133  46.5348005  36.6573071
  24.2424822  31.4023137  21.4028215  23.5508585  30.8575773  21.7785263
  23.8063574  31.8997908  20.7110548 102.7842349   8.4891165  47.9147768
 102.7788180   8.2511557  48.8419104 103.4414739   9.1819037  47.8491449
  44.2580032  70.7820463   6.3017333  43.7684155  70.1016665   5.8395469
  44.3841124  70.4297638   7.1827716  30.8356142  67.1031475   9.4615328
  31.4948940  67.1023750  10.1554930  30.9600663  66.2672853   9.0120023
  20.9924150  55.6629753  40.1059055  20.6280804  56.5123653  39.8568606
  20.4213476  55.0233650  39.6804428  46.5761614  54.3670273  18.7203312
  46.8855238  53.4668398  18.6194026  47.2661209  54.9027109  18.3288860
  15.0401545  58.6482286  37.3606658  15.1760828  57.9721880  36.6967916
  14.2334867  59.0883350  37.0926666  43.9208317  43.6051130  18.3654892
  43.2178164  43.0094385  18.6246645  44.7175980  43.0789280  18.4327936
  58.7617445  91.2452698   9.5627582  59.5306015  91.8057156   9.4578511
  58.4517431  91.0943317   8.6698145  26.3897657  76.8961906  32.0618558
  26.5094113  76.3161707  31.3098669  25.7662344  77.5560713  31.7585444
  45.8285952  67.6184654  42.7596807  44.9572659  67.2406673  42.6401281
  46.1774826  67.7014875  41.8722057 106.5042817  23.7276258  85.9818979
 107.4255072  23.6886729  85.7248761 106.3821255  22.9678668  86.5511783
  10.7404971  60.6764030  46.6277361  10.5954707  60.0299358  45.9368849
  11.3907862  61.2760401  46.2619638  56.4690399  51.8995905  17.9816365
  56.0741043  52.5412083  17.3912239  55.8366251  51.1817455  18.0128753
   6.7105013  21.6506386  33.9314508   6.9437176  21.3033628  33.0704975
   6.0377008  22.3070717  33.7507081  16.4650726  69.4308138  44.6353292
  15.5647266  69.6317196  44.3798971  17.0023644  69.8209524  43.9458752
  34.0866709  81.4820862  63.5515881  34.5506382  81.0726738  62.8212833
  33.2263112  81.0625553  63.5541153  51.5017366 104.4692612  40.8020449
  51.1882257 105.3247452  40.5086374  52.0811892 104.6660614  41.5380716
  97.1251678  65.3271198  34.9323058  97.1215248  65.2442884  35.8859086
  96.5941811  66.1040831  34.7573495  42.6470566  82.2829056  54.0055227
  43.3723450  81.7793846  53.6358595  41.9165087  82.1249199  53.4075451
  76.5230083  64.4889832  25.1704860  77.4594975  64.3799019  25.0051737
  76.4249325  64.3267965  26.1087322  45.9374142  60.6794453  47.3779774
  46.5635586  61.3019323  47.7476835  46.3712072  59.8295879  47.4541044
  53.8444757  72.3362303  28.8858342  53.7753057  73.2682085  29.0928602
  54.4204617  71.9824409  29.5635557  39.4603992  64.6306229  40.1119661
  40.2371454  64.1364241  40.3740072  39.2321730  64.2794371  39.2512584
  48.7083292  64.4257164  16.3540983  48.7951422  64.4149494  15.4009044
  49.0798187  63.5904408  16.6378891  51.7557573  27.1340680  37.1128440
  52.3917818  26.5615320  36.6839981  52.2417974  27.9384518  37.2943974
  60.7531357  82.5590801  18.0651772  60.6776905  82.9524612  17.1958137
  61.4816093  83.0244637  18.4762490  34.5536685  81.7311764  53.5521364
  34.2967987  82.6367664  53.7257814  35.5100346  81.7419147  53.5905838
  71.6386175  53.6641550  27.8784919  72.1860838  52.9884243  27.4786139
  71.2638950  54.1388893  27.1365714  61.1084604  40.8279181  18.6523426
  60.6522417  40.2362585  19.2507064  61.5488815  40.2477503  18.0313253
 102.2348850  77.8836966  92.5543623 101.8944328  77.0281363  92.2929426
 101.7400186  78.1077719  93.3424787  59.7104359  84.6595573  42.4838877
  60.0022507  83.8757992  42.0182562  60.1093626  84.5855427  43.3508396
   0.7012349  16.6768541  87.0275875   0.4079205  15.7885207  87.2302337
   1.6554004  16.6111078  86.9891216 103.7273967  23.5831918  89.7096600
 103.2569610  24.0362634  89.0099110 104.4947850  23.2075156  89.2781396
  55.3409576  59.8297358  12.7199137  55.1803732  58.8938141  12.8403032
  54.6852636  60.1047707  12.0790935  40.9352016 103.9054871  24.2873001
  40.6537390 104.3718910  23.5002279  40.8206129 102.9800701  24.0711832
  52.3307371  49.5656109  27.7626014  51.4924002  49.1082859  27.8279519
  52.9791212  48.9177704  28.0385280  49.1519976  60.4955244  45.9584618
  49.9287987  60.6668901  45.4260683  48.5713434  59.9987936  45.3819752
  52.9174709  62.8271437  36.2418127  52.7637291  61.8890667  36.3540792
  53.5485744  63.0500031  36.9261193  64.6077204  58.9492655  13.6270511
  63.8776302  58.3418560  13.5076511  64.6817398  59.0512085  14.5759249
  32.1140480  39.1524124  35.9824133  32.6148486  39.1412711  36.7980766
  31.1991978  39.1252685  36.2626696   0.4801165  84.0675640  26.5125942
   0.4197443  83.1795597  26.8647933  -0.4052201  84.2645931  26.2066698
  44.9858475  67.2412443  55.2169943  44.8255539  66.3787889  54.8339748
  44.6242523  67.1815681  56.1012554  21.4614844  85.9579849  53.8155031
  20.9395075  85.8713245  54.6131611  22.2971582  86.3169003  54.1139364
  74.3302584  88.6741638  26.8701982  74.5855045  89.5872688  26.7386103
  74.9437523  88.1740189  26.3319445  34.8697853  60.6971884  68.1877422
  35.7377338  61.0882187  68.0877781  34.9875879  59.7832251  67.9288435
  57.3724508  70.9404516  47.1151733  57.0081091  70.1782513  46.6651297
  56.6801119  71.2179804  47.7150679  85.1339149  38.7809038  59.7657824
  85.5513573  38.5453248  60.5943203  85.7951641  39.2945743  59.3019676
 106.9702833  84.0519620  85.7011123 107.7626102  84.5182992  85.4346831
 106.3895004  84.7366787  86.0329046  66.4696026  61.3157082  30.7781100
  66.3824844  60.3942585  30.5340338  67.4064016  61.4964342  30.7007575
 105.1224727   5.9438838  19.4697642 105.4416198   5.9457911  20.3721905
 105.8392209   5.5621279  18.9630437  64.7692680  79.1053247  43.2555294
  64.7581863  79.3505096  42.3303318  64.0444994  78.4869719  43.3481407
  99.4310796  11.6015376  93.5901258 100.2667987  11.4330281  94.0253364
  98.8960683  12.0316114  94.2572307  43.0879688  79.0744829  48.6318731
  43.8687563  79.5246220  48.3094120  42.8975010  79.4959068  49.4699430
  78.9036608  42.0803928  48.0807018  79.8028183  42.1741390  48.3952761
  78.5793543  41.2909746  48.5141468  97.4797630  38.1745338  22.0133209
  97.5362301  37.8698516  22.9189777  96.7035007  38.7343383  21.9969082
  29.1711569  55.9323120  26.7803311  28.9515734  55.8506632  25.8522439
  28.8967371  55.1001024  27.1654963 107.9763985 105.9792709  35.6205177
 108.2900906 105.1058006  35.8547878 107.4736214 106.2656879  36.3830209
  65.0359058  65.3253126  35.1882911  65.8551931  65.0373507  35.5908823
  65.3076744  65.7802296  34.3911576  79.4415474  85.3784370  33.1558967
  78.9723539  86.1314869  32.7967262  80.3666115  85.6068325  33.0646539
  72.2181320  55.8761644  30.0957227  71.3893032  55.8014822  30.5686927
  72.2270870  55.1211119  29.5074654  50.6409454  77.6502609   6.4676505
  50.0360298  77.3585844   5.7855678  50.3416824  78.5312557   6.6924363
  83.6876106  65.5494022  19.3974233  83.8358116  64.7205496  19.8526895
  84.5260715  66.0075521  19.4550121  83.0603123  91.7055035  35.5239558
  82.1054840  91.6883564  35.5890250  83.3590317  91.1380482  36.2345886
  66.7596626  67.1996737  26.4219570  66.0256910  66.9522190  25.8595657
  66.3538456  67.4310732  27.2574210   5.3761226  24.7609414  86.9437619
   4.5380145  24.5332421  87.3461993   5.5378133  25.6627168  87.2210433
  56.4914608  60.3405571   9.1881245  56.8521595  59.7169065   8.5578966
  57.0635414  60.2670813   9.9520302  53.2867718  98.0885506  56.2181711
  52.9222965  98.4614372  57.0208836  53.2706404  97.1427536  56.3645983
  87.2878647  13.6364233  50.5742264  86.7574406  13.2056093  51.2445116
  87.1698475  13.0971980  49.7922182  58.6403990  82.8475475  10.5444694
  58.9404249  82.1177197  11.0862827  57.8873730  82.4982738  10.0678277
  14.5641261   6.5994729  86.2988122  15.2018624   5.9540881  85.9938534
  13.8049823   6.0797252  86.5629907  38.1223130  13.1522608  30.1098514
  37.1904564  13.3526218  30.1977563  38.1473231  12.3593187  29.5742679
  95.5440617  79.3194962  11.6581988  95.7366180  80.0460625  11.0655260
  95.3070736  78.5947561  11.0795617  44.5438242  59.1730165  44.9041510
  44.2122936  59.9381590  44.4341755  44.2259789  58.4250450  44.3984365
  54.7451973  57.4312067  19.8337936  54.0065813  58.0090380  19.6419859
  54.4758320  56.9497871  20.6160378  52.4213457  82.8871918  52.9273176
  52.2430563  83.3038521  53.7704325  51.5555000  82.7171326  52.5563431
  60.9635353  74.1771364  37.1577597  61.7622948  74.4536686  37.6069164
  60.6041956  73.4848404  37.7125859  53.6303711 105.5388927  23.7484837
  54.2394400 105.0980759  24.3408990  54.1316128 106.2722301  23.3918309
  57.1012497  70.5845213  11.3373613  56.7867708  71.1530018  12.0403290
  56.3212967  70.1145363  11.0423779  60.5153561  37.2357774  37.9203963
  60.2681112  37.5965166  38.7718463  61.3680792  37.6279759  37.7325845
  80.8206940  48.2194424  21.6743112  79.8761368  48.0644655  21.6689658
  81.0771561  48.1040907  22.5892711  61.0360193  22.9454875  42.2983885
  61.2281132  23.8753009  42.1768045  60.1043177  22.9199076  42.5163603
  76.4179182  70.4571152  25.9241438  76.2141943  69.6042776  26.3080645
  77.3743963  70.4884386  25.9041142 116.5867442  25.5646742  41.7755413
 117.0813435  26.1495913  42.3495340 115.9234733  26.1266650  41.3749599
  33.3689284  39.7899485  22.4681878  33.5191011  39.7831869  23.4135103
  33.4059000  38.8680768  22.2131968  39.8713756  62.4825621  20.9068704
  39.1182756  61.9633198  20.6249857  39.9472237  62.3051071  21.8444157
  61.9419718  94.1695213   7.2261834  62.0145416  95.1202011   7.3109388
  62.4783182  93.8238144   7.9396582  65.3497791  73.8630295  19.7202313
  65.6409311  73.6887741  18.8251925  65.4154682  74.8134851  19.8126996
  42.1274233  51.4227915   3.7487072  41.7183733  51.2475824   4.5961806
  42.6512003  52.2107124   3.8938919  70.2618456  89.0878201  29.2155361
  70.9955311  88.5948277  28.8482618  69.7426033  89.3471622  28.4543777
  59.8558140  47.0178413  31.1295366  59.7758150  47.8263426  30.6234169
  59.3667984  46.3690567  30.6234050   6.3543707  73.1712008  27.0874572
   7.0447522  73.7533808  27.4047470   6.4679307  72.3668194  27.5937271
  27.8290081  86.0794067  46.3895226  27.0355844  86.5077114  46.7108727
  27.7235770  86.0625172  45.4382992 110.5472200 108.0687667  85.7083835
 111.1727207 108.0564404  86.4328362 110.4440754 107.1487046  85.4653259
  35.5143695 109.7850228  74.5650788  34.8997777 110.3345299  74.0787144
  35.2687808 108.8890553  74.3345113  65.6950188  64.2931557  17.2222340
  66.3816404  63.6430359  17.0734775  64.9925947  63.8055134  17.6523900
  94.6465969  63.8066578  14.3982363  94.0496254  64.1461182  15.0650346
  94.8243809  64.5572519  13.8314629  63.0129004  63.8901472  33.8495469
  63.5853577  63.5907507  33.1432295  63.3978796  64.7187519  34.1349173
  39.1099429  75.8697796  -0.1598820  38.7875056  75.0126314   0.1186258
  38.5192776  76.4956236   0.2592400  75.3566647  67.9224253  35.6954074
  75.9362507  68.2632113  36.3767099  74.4742584  68.0706358  36.0354376
  52.6250410  89.4527531  12.6836038  52.6716518  90.2553082  12.1640241
  52.9677534  89.7027111  13.5416842  10.4399168  78.6103439  58.5586452
  10.5988300  78.8669825  59.4670057   9.6006286  79.0147114  58.3388376
  27.6723027  48.0371714  12.2575450  27.5079226  48.8754749  12.6893568
  28.5731840  47.8178549  12.4953294  51.8523788  57.1740103  13.3378279
  51.1387157  56.7661333  12.8473616  52.5567055  57.2738647  12.6973748
  32.9150176  44.8892403  29.3795729  32.6347184  45.3313112  30.1809692
  32.1147037  44.8018169  28.8618016  70.3775549  65.9964323  49.2583990
  70.2499104  66.2542677  50.1713419  69.5919466  65.4955721  49.0388918
  17.3913121  45.4402590  16.0315394  16.8971860  46.2160492  15.7665515
  18.3044124  45.6654310  15.8532774  49.8661995  81.5515137  36.5100908
  49.1190052  81.0503674  36.8368721  50.1459408  81.0801888  35.7253408
  85.7616329  54.7705221  37.8756928  85.5464649  55.6988955  37.9654527
  85.9404850  54.6552610  36.9424415  39.1096926  84.0304279  47.9983282
  39.4860816  84.2310619  48.8552475  38.3054209  84.5482254  47.9628181
  57.7949715  85.6644630  28.5373688  56.8803263  85.9448051  28.5699701
  58.2889414  86.4217567  28.8515735  48.0719137  85.4629707  45.4909420
  47.1509838  85.6930161  45.6142187  48.5550117  86.1840534  45.8945322
  70.2484179  52.7516365  30.4757404  69.3457365  52.4560070  30.3574204
  70.4952860  53.1139040  29.6248293  44.5777845  62.1883297  23.8742566
  43.8709307  62.6831865  23.4598899  44.1647577  61.3728523  24.1582227
  40.2220726  54.6054983  34.5681834  39.6553087  53.8344383  34.5462370
  40.5580091  54.6304035  35.4641509  75.1735544  77.3351240  25.6118226
  75.2372026  77.7280664  26.4823270  75.2502537  78.0746984  25.0090098
  43.0127716  71.4041996  64.5181990  42.6008987  70.5544424  64.6747446
  42.2853470  71.9859219  64.2975473  27.7996230  53.6354971  27.7810383
  27.2144628  53.7605286  27.0339179  27.7429199  52.7000284  27.9757547
  51.8219995  38.2941461   1.7611051  51.0123730  37.7943373   1.6565943
  52.1613312  38.3892655   0.8711386  16.8768859  94.2211628  41.3438940
  16.8829358  94.1273308  42.2964668  16.4927351  95.0844002  41.1906958
  28.3604479  67.8059769  31.4526200  28.1433654  68.7354994  31.5240026
  29.3172646  67.7818346  31.4650321  58.5064030  52.8196526  41.7158127
  57.5728941  52.8900003  41.9154119  58.6244631  51.9107771  41.4397097
  42.6450777  98.1845665  69.1808891  42.0036840  98.3794117  68.4976006
  42.7752161  97.2379398  69.1243172  56.2829399  79.1842318  46.2585592
  55.5058861  78.6747313  46.4883995  56.2654305  79.9309492  46.8571663
  61.1195183  70.7056952  19.6835637  61.9480467  70.2356625  19.7776306
  60.4486895  70.0285816  19.7715497  55.5375051  50.4539490  30.0884056
  55.0156164  50.1927900  29.3296814  55.6835413  49.6399069  30.5703187
  34.9947071  79.0364075  52.7816200  34.4582820  79.8173809  52.9178572
  35.5060530  79.2310905  51.9962168  65.9684038  67.2344828  29.0879607
  65.1826191  67.7630520  28.9487219  66.6292191  67.8609037  29.3831849
  60.3924227  29.7641015  34.5888710  60.7348442  29.5361447  35.4531717
  59.8302174  29.0265560  34.3518281 106.2469482  44.9098444   3.0184099
 105.6239414  45.5813360   2.7405554 105.8882523  44.5758533   3.8406143
  38.4364080  78.3100748   1.4571980  38.5658360  77.9289675   2.3256660
  38.8439035  79.1744804   1.5118088  77.9993200  75.3289413  19.0334058
  78.7864256  74.9898243  18.6071527  78.2691717  75.4963160  19.9363995
  63.0470753  51.8738508  28.5973263  62.7333927  52.6084185  29.1248178
  63.1915188  51.1696053  29.2293096  67.2439194  70.8369350  23.9172411
  68.0407381  71.0501289  23.4315896  67.4500656  70.0181103  24.3680882
  13.2893884  93.7849808   5.9961998  12.9754734  94.6605015   6.2223685
  12.7422082  93.5177135   5.2576947  45.4506540 100.8036518  45.3237438
  45.1167250 100.1636696  45.9523487  44.7638941 101.4683247  45.2709103
  60.4907179  67.7966690  49.3444300  61.0248709  68.1161547  48.6172104
  59.5929050  68.0188227  49.0978241  11.0539925  86.0116863  39.3425345
  10.2934361  86.5599537  39.5353723  11.6208506  86.5678406  38.8081217
  53.2033777  77.0256281   6.6397214  52.2777748  77.2219276   6.7844909
  53.5164642  77.7416325   6.0869569  45.2047825  78.1639624   5.4293871
  45.3406429  77.2164583   5.4330266  45.4724312  78.4409380   4.5531005
  78.7346745  76.0531902  21.8089795  78.8861465  76.1108303  22.7523589
  79.4536877  75.5115414  21.4836049  34.9264646  64.0370464  31.0029316
  35.4381156  63.2285881  30.9738374  35.4991698  64.6673489  31.4399171
  53.0038977  36.7581153  18.8008034  52.9916048  37.1684027  17.9360819
  52.1212959  36.4042830  18.9105940  68.6076736  59.9266720  46.2211370
  69.3792963  60.4655933  46.3954735  68.9483738  59.0345383  46.1559391
  34.1624236  47.4481678  76.0386944  33.9254546  46.8555689  75.3253222
  34.4618583  48.2441425  75.5993843  61.8006706  78.0309868  38.8094950
  61.5646076  78.5598278  39.5716190  60.9695196  77.6686859  38.5026360
  83.8934963 103.2930566  93.7937237  83.5443514 102.6085807  93.2229163
  84.7636431 102.9790641  94.0396561  37.8534722  64.3501663  32.6759243
  38.7908435  64.2048073  32.5477028  37.4973154  63.4785748  32.8482985
  47.3821211  67.1557474  71.9558764  47.6108789  68.0157471  71.6033077
  46.4290953  67.1109915  71.8786192  16.9801169  45.3659715  65.4633136
  16.4863187  45.0519933  64.7058053  17.5570565  44.6372022  65.6919356
  75.9483910  66.2009287  13.0400360  76.7815590  66.6619301  13.1376970
  76.0677528  65.3849459  13.5259914  44.0914869  68.4954691  19.1762018
  43.5190582  67.7959538  19.4912267  43.7709761  69.2832708  19.6153748
  62.3990488  60.7007217  13.4082675  62.3050022  59.7497368  13.3533525
  61.9562292  61.0307360  12.6264548  49.4460154  45.7451725  33.4598875
  48.9679718  45.7095194  32.6313734  50.2634764  46.1946869  33.2455897
  76.7167521  75.3689623  23.9875746  77.6493406  75.5083323  24.1521525
  76.2751675  75.9681845  24.5893788  75.2234507  80.0344563  24.5574474
  75.0561523  80.3643227  23.6745930  75.5258036  80.8001041  25.0459099
  68.8929605  84.7114658  21.3130736  68.8869572  84.3168831  22.1851373
  69.7931528  85.0140285  21.1932778  64.2373991  70.6150055  57.2988939
  63.9283609  69.7222805  57.4530649  65.0491428  70.6777382  57.8022528
  15.5551147  58.5132313  31.2305307  16.4061749  58.3124828  31.6199279
  15.2283728  59.2557049  31.7386699  58.2439280  77.7698469  12.1438622
  58.2635069  77.1406603  11.4227688  58.3309317  77.2336626  12.9320037
  62.4446440  71.0515451  55.2655792  62.7007914  70.8207560  56.1585236
  62.6027679  71.9937754  55.2069998  76.3329506  56.8514156  23.0478406
  76.8646145  57.3868847  23.6367655  76.9163132  56.6482306  22.3166490
  67.2293139  73.0499125  28.3136797  68.0242157  72.9585266  27.7883101
  67.2875214  72.3466825  28.9604497  45.9708452  75.9808254   3.8540706
  45.8586073  76.1246395   2.9144156  45.4501581  75.1996183   4.0406880
  60.3880930  95.3629017  13.2313836  60.0191450  95.9767628  12.5963366
  59.8792648  94.5608807  13.1127524  66.5863895  53.2705212  21.7022419
  66.4534712  53.5947037  20.8114719  66.1078930  52.4419498  21.7294693
  55.1389265  69.2843962  15.8981073  54.2992926  68.9404488  15.5932367
  55.3885794  69.9286747  15.2356791  55.9397030  45.6997442  32.2949100
  55.8884478  45.1215219  31.5338182  56.5996599  45.2959251  32.8584862
  87.9307842  46.4702034  47.7361917  88.7262630  47.0001507  47.7871990
  87.5501919  46.6907120  46.8860435  49.7669697  55.3417873  43.9554501
  50.6736040  55.6186581  43.8228130  49.2441511  56.0237980  43.5338449
  46.2991381  66.0269976   5.3245544  46.8093681  66.8263578   5.4546297
  45.3875303  66.3175821   5.3521180  89.0099448   6.2043799  24.9820471
  89.1518706   5.9798850  24.0624332  88.7071818   7.1122302  24.9629951
  48.7219143   0.1152647  35.5791306  48.0675781   0.7259501  35.9184432
  48.4275180  -0.0814783  34.6898293  67.5818777  74.9199533  50.9195137
  67.0093489  75.3070021  50.2572203  68.4607077  75.2106810  50.6758595
  51.3894463  43.3242941  35.2658725  50.5084610  43.0785942  34.9835205
  51.9568157  43.0517244  34.5447397  62.7653933  68.2785559  57.8876352
  61.9855642  68.1373692  57.3508310  62.4235582  68.4695101  58.7610865
  39.3134475  63.0848598  29.9908018  38.3606744  63.0225706  29.9231648
  39.6405697  62.5339699  29.2796469  62.9813957  44.4977760  28.3153510
  62.4677706  44.4843912  27.5077367  63.2877970  43.5969210  28.4192920
  65.6944704  58.1872416  45.7633352  66.6431952  58.1307459  45.6494522
  65.5801582  58.6033630  46.6177368  67.1141338  54.8557901  35.6899834
  67.3276615  54.6639919  34.7768283  67.7192783  55.5555964  35.9355640
  46.4911938  79.9352217  34.5602369  46.6944933  79.3752289  33.8110304
  45.6166172  79.6596813  34.8348737  41.0605431  31.7571521  30.6560659
  41.0504961  31.6380429  29.7063589  40.1901150  32.0967293  30.8640862
  36.9344020  97.2356510  37.1291447  37.8080416  96.9525909  36.8592048
  36.9708800  98.1915092  37.0941830  50.5496597  39.7224522   8.1015366
  50.4693222  40.6686592   7.9812264  50.7480001  39.6152830   9.0318090
  55.8613300  92.1000862  28.9052868  55.8347082  92.9000473  29.4302607
  56.7917204  91.8828964  28.8467145  49.1773176  45.4928112  36.1851001
  49.1630554  45.4182148  35.2309179  50.0734758  45.7586384  36.3911915
  51.0869598  91.1936188   0.5773626  50.8879423  90.2678871   0.7174994
  51.9396305  91.3209152   0.9932700  68.2341337  58.6673021  16.0709441
  69.0770006  59.1207123  16.0859799  68.4363556  57.7971506  15.7271779
  53.2416248  68.8377142  46.2865210  52.9872227  68.9118576  47.2063112
  52.7162218  68.1115866  45.9504843  38.2145619  59.6132040  51.1280060
  39.0973353  59.9832058  51.1214304  38.1200600  59.2037725  50.2679682
  83.0891323  62.1492958  48.5214949  82.5855923  62.8379250  48.9556313
  83.8833237  62.0645094  49.0490437  49.7003841  68.1223249  41.4714336
  49.4637108  68.2905149  42.3835325  49.2315626  67.3186445  41.2466240
  83.6583042  53.9042282  26.9400048  83.1774998  53.3415508  27.5470066
  83.5959911  53.4553719  26.0968709  80.1612282  81.8451691  12.1532273
  80.6828785  82.6472092  12.1241856  80.2637863  81.4610863  11.2824821
  33.4738040  76.5153170   3.5050157  33.1395292  75.8833790   2.8685045
  33.7304783  77.2724867   2.9786697  73.2244539  51.4792585  47.6773643
  72.8065968  50.8024073  47.1449184  72.5974798  51.6526604  48.3795500
  44.3426371  82.2738361   7.9323006  43.4060955  82.1485138   8.0853218
  44.5277262  81.7601109   7.1461326  47.8102827  66.6629553  40.0987911
  47.1205759  66.0011196  40.0486279  47.7418184  67.1432447  39.2736483
  67.7028608  73.3856916  36.9178438  68.0997515  72.6035738  37.3012471
  68.4109402  74.0295458  36.9003177  22.6400042  48.2499218  41.4973831
  22.1487522  49.0490913  41.6877413  22.6787972  48.2145548  40.5416250
  47.2845078  78.1561708  56.0660601  46.8992138  78.4423685  56.8942308
  47.6332140  77.2845030  56.2526894  71.1061382  88.0583382  25.3895760
  71.8034315  87.5495720  25.8032990  70.3085327  87.7836132  25.8418894
  50.7815361  73.9285803  46.7118979  51.0378838  74.1406918  45.8143854
  50.5871820  74.7760963  47.1121168  51.4422750  72.3025084  50.9456873
  50.4864454  72.3209524  50.9934711  51.6967201  71.5780163  51.5171814
  52.7126122  67.6911783  14.9540019  51.8772840  67.9937649  15.3102255
  52.8906918  66.8749905  15.4212952  41.9614840  55.1163054   2.5549266
  42.5873327  55.8382034   2.6133156  41.4559984  55.1713657   3.3659041
  93.4562683  47.2394657   3.7645161  93.8081646  46.7848587   2.9991895
  93.1122208  46.5407133   4.3209428  66.3788128  58.0204916  42.6573658
  65.8450222  58.4263182  41.9742775  65.7438374  57.6205158  43.2515526
  19.4189894  78.0704927  29.4604611  19.2361486  78.9721966  29.7245359
  19.2152107  77.5477886  30.2360177  52.9472685  83.8621235  30.1990294
  53.4348440  83.0406094  30.1389122  52.1165800  83.6803341  29.7595501
  99.3699646  74.9047995  29.5077014  98.6835670  74.2383480  29.4771791
  99.8606396  74.7069025  30.3053904  35.6011724  79.5371819  68.9726067
  36.3258004  79.0149260  69.3166876  36.0101581  80.1254082  68.3378220
  49.4875050  53.1923771  17.2207081  49.4040155  53.7876368  16.4757740
  49.1022348  52.3710632  16.9153547  57.5940275  34.1066384  34.7380757
  56.7300415  34.4426465  34.9765301  58.1888723  34.5013762  35.3757024
  33.2479143  81.5583515  47.2858381  33.8363910  80.9158039  46.8895245
  33.5075116  81.5848827  48.2067776  42.7946138  92.8595257  55.8240652
  43.7449932  92.8414726  55.7114506  42.4466944  92.7875233  54.9352503
  49.9562883  64.4078588  21.7201900  50.2261782  65.3111982  21.8856239
  49.8209286  64.0349770  22.5913167  42.2225904  91.0873985  25.7721710
  41.5324783  90.4576302  25.5639243  42.9359818  90.8678436  25.1729202
  56.4751673  71.8605185  25.5787611  57.4004793  72.0997429  25.5257654
  56.4284801  70.9934950  25.1758647  96.6918468  80.5986881  23.3348870
  95.9620476  80.3759956  23.9128542  96.3885212  81.3670063  22.8512383
  50.9299183  68.9304876  26.3729835  50.4019880  68.9028025  27.1709538
  51.0082769  69.8625994  26.1698604  60.1055002  93.5661125  31.1143708
  59.9982643  93.0421925  31.9082499  60.5310059  94.3697071  31.4133883
  52.7929133   3.7637366  62.8970814  52.7391511   4.6558417  62.5543261
  52.9899591   3.8759173  63.8270378  87.6172447  40.0968266  22.9233599
  88.4967899  40.2184057  22.5658131  87.3789597  40.9563732  23.2706881
  53.8227129 103.0722046  50.0970507  53.8948011 104.0018272  50.3134823
  52.8805590 102.9079056  50.0572824  39.4226789  13.7167573  25.7060838
  39.5108891  14.4128942  25.0550508  39.2410946  14.1768372  26.5255857
  48.9114666 102.1097946  42.7093697  49.6657896 101.5737057  42.4647522
  48.5270071 101.6546345  43.4585381  78.9063686   4.8593749  22.4616170
  78.4784740   4.9687804  21.6124010  79.5772189   4.1941298  22.3078561
  47.0377046 107.6415702   7.4633300  46.5807611 106.8472742   7.1867025
  47.1631795 107.5298362   8.4056699  28.9359903  73.8566446  56.1420727
  29.1965127  74.2901039  55.3293753  29.7625470  73.6351109  56.5709782
 105.2676982  57.5929297  55.1796865 106.0084075  57.3046149  55.7130289
 105.6199902  57.6501883  54.2915154  82.3114395  63.8519812  31.8199420
  83.2472324  63.9443064  31.6410518  82.0012951  64.7492552  31.9422030
   2.3948032  51.2642850  87.3333003   1.8154126  51.3052644  88.0941267
   3.2702476  51.1547078  87.7045478  97.2452086  15.6148280  42.9967928
  97.9362697  15.7040633  42.3405075  96.5120715  15.2244318  42.5210524
  54.7025013  83.6767578  18.9358664  54.8152208  82.7541828  19.1647172
  55.2293825  84.1494656  19.5802093  86.9251251 108.6646461  11.4117575
  86.0830593 108.7324810  11.8618250  87.2811604 107.8226185  11.6954195
  75.0541067 104.4077587  26.0494518  75.8252907 104.9269581  26.2773395
  74.5128155 104.4237518  26.8387413 116.5761918   3.6128939  29.4669795
 116.8878430   2.7212847  29.3116021 116.6911239   3.7462367  30.4078531
  71.6389227  91.7777920  33.1125045  71.2582731  91.6575813  32.2425103
  70.9152842  92.1037674  33.6475968  34.3667889  74.0783834  55.6819868
  34.8610902  74.6986532  55.1461172  34.9356031  73.9031172  56.4316320
  43.6422968  72.1750927  42.0383835  43.9125109  73.0715656  42.2372580
  44.2203856  71.9032526  41.3255358 108.2221764   5.5343188  32.1992373
 108.1316251   5.9592951  31.3463473 107.7149218   6.0845221  32.7960587
  14.4585734  10.0600518  95.0698110  15.0600129  10.3810348  95.7417273
  14.1610843  10.8495797  94.6177267  42.3439980  72.4821806  35.4086304
  42.5598860  71.7615128  34.8168015  41.5224886  72.8349781  35.0667381
  96.0901439  54.1926946  91.8757828  96.9250833  54.1512002  91.4095347
  96.0641014  55.0766076  92.2421874  30.1291418  83.8692760  60.7634592
  30.0315213  84.3811703  59.9605465  29.3347931  84.0552235  61.2641239
  72.6523066 106.2763405  49.8850822  72.5274515 105.6532288  49.1692829
  72.6519156 107.1335793  49.4591951  62.4963856  63.6181974  54.1994381
  62.8540897  64.0797567  53.4409857  61.9315386  62.9426384  53.8242006
  95.0182724  96.6020489  37.5423908  94.9609661  95.6564617  37.6795626
  95.2795982  96.9522095  38.3940506  97.1644306  66.8514872  24.4145608
  97.5399685  66.3543177  25.1412153  97.1215630  66.2247086  23.6923790
  18.8669616  31.7591752  80.2234657  17.9562312  31.9622220  80.4369481
  19.2082673  31.3338460  81.0101290  77.0194197  96.1265945  31.0548091
  77.3736572  96.8043232  30.4791021  77.7146006  95.9672642  31.6932201
   2.9110301  16.5284766  35.4917598   2.1974242  17.1653880  35.4550552
   2.5016177  15.6961764  35.2553558  22.3805046  62.2908068  71.8170643
  23.0813694  62.5066900  71.2019110  22.0115709  63.1380272  72.0667410
  47.7100706  84.1784096  53.5955191  48.4467077  84.1391087  54.2054796
  47.6087952  83.2789993  53.2840109  39.2931300  56.2164678  95.1850028
  38.4993344  56.3521756  94.6676064  39.0350467  56.4331998  96.0809107
  49.1427851 108.4210873  48.2502842  48.5822392 107.9534817  48.8694525
  48.8119411 108.1671429  47.3887205  35.8338070  90.1055050  31.8420959
  36.3502192  90.2795696  32.6290202  34.9258256  90.2266407  32.1198177
  73.8619709  49.7803831  26.0974693  74.4934368  49.5108747  26.7644405
  74.1935349  49.3976593  25.2851748 115.4192162  82.4501133  29.8740029
 115.7260609  82.0959568  29.0393472 116.2137413  82.5499439  30.3984094
  53.5433960  54.9374676  25.1829171  53.5157394  55.8635807  25.4232907
  52.9490948  54.5117855  25.8008409  66.5463495  76.5976763  40.1954556
  65.7134867  77.0384407  40.0272369  66.4073706  76.1289978  41.0184145
  41.1358356  94.1984558  35.3015518  41.8103552  94.7762585  35.6584930
  40.3206158  94.5109272  35.6939936 107.9660672   2.3773230  22.5498176
 107.8625363   1.4636649  22.8157973 108.5721845   2.3441065  21.8097138
  67.0937395  90.6499672  36.5787673  66.7187071  91.4982605  36.3421392
  67.4983835  90.7970715  37.4336672  85.4576397 102.2242737  24.0105677
  85.4086590 102.4944592  23.0935979  86.0571003 101.4780331  24.0086818
  12.5166095   1.3829745   2.3396464  13.4018386   1.0321940   2.2418904
  12.5836719   2.0035494   3.0653310  45.5340576  80.6134129  50.3911448
  45.9661007  79.7907114  50.1614904  45.4098082  81.0605240  49.5539570
  44.3692350  63.8065624  62.0458841  44.7522449  64.5893717  62.4417973
  43.6343145  63.5841990  62.6174402  50.3715611  78.3815765  26.7404532
  50.9596062  78.9473820  26.2401533  50.5214739  78.6276865  27.6532435
  64.1882658  61.6765976  42.6115894  63.5237694  61.0200500  42.8204393
  63.7444162  62.2880936  42.0239687  47.7451515 102.5997257  49.9850321
  46.8199778 102.4122620  50.1435947  48.0970001 101.7842674  49.6280193
  47.0051479  56.8876600  19.8913038  46.7475080  56.0297394  19.5539176
  47.4509907  56.6964912  20.7164764  46.4072084  99.6099472  13.2236886
  46.4852810  98.9236259  13.8863373  46.8971109 100.3486252  13.5850525
  79.6180964 109.9758339  58.1681299  78.7472773 110.0848770  58.5502529
  79.5924091 109.1122532  57.7560663  55.9538221  72.9661751  34.4163966
  56.1948633  73.8643169  34.6432781  56.5269184  72.4209452  34.9553895
  47.7876472  78.1702757   6.8840885  48.4774065  78.4557962   6.2849694
  46.9743776  78.3212519   6.4023942  61.2777662  56.5139866  16.4187479
  60.9573603  56.5167856  17.3207259  62.1217394  56.0648441  16.4657676
  58.8119978   5.9483946  33.0675912  58.4702224   5.0660647  32.9229522
  58.3572990   6.4901007  32.4225807  48.1600618 101.5885162  32.9506874
  48.9402962 102.1029949  33.1575322  47.6218319 102.1735287  32.4174905
  53.7119770 102.9671097   4.6142870  52.9284239 102.6556301   4.1612321
  54.3516254 102.2647476   4.4969258  91.4321011  14.0505827  69.3879747
  92.2467822  14.4346846  69.0639400  91.5687770  13.1057013  69.3190765
  90.2960271   2.1403731  10.1107883  90.8655137   1.4078940  10.3461325
  90.5540914   2.3669280   9.2173088  13.5585809 106.6246796  17.6535475
  13.6492860 107.3826790  17.0761001  13.4778142 105.8789158  17.0589483
  64.6832132  70.2644396  39.2588520  65.5666494  70.0162649  38.9864826
  64.2316341  69.4314861  39.3948460  39.5565605  52.6992893  62.7852535
  39.6573687  51.7496967  62.7193499  39.9626446  53.0391693  61.9878769
  32.8679037  98.5252380  35.3068137  32.4352479  99.0260792  34.6152949
  32.3630834  97.7141953  35.3667808  79.4702166  24.6634329   7.0983082
  79.4721478  23.9078368   7.6859379  80.1075143  24.4407309   6.4197147
  58.8913393  59.2422342  41.3129282  59.1622543  60.0903845  41.6643286
  59.7052813  58.8344765  41.0171795  72.0486355  62.4262953  39.6592116
  71.3764286  62.8038883  40.2264833  72.8599787  62.5112534  40.1599455
  28.4779596  74.6986437  48.9465046  27.8901625  74.5342875  48.2091331
  29.1491199  75.2820492  48.5923672   2.2835029   2.5616301  37.9450059
   1.9117368   1.8542994  38.4719849   3.1672157   2.6805628  38.2930374
  99.3317604  98.7629795  20.9322476  98.8347530  98.1191540  21.4369297
  98.6875343  99.4296741  20.6940722  60.9155893  70.4739714  22.7091146
  60.9115553  71.0500813  21.9447088  61.6804266  69.9126482  22.5819516
  17.9878330  98.6190510  25.2198052  17.9826283  98.5006618  26.1696410
  17.9529357  97.7297592  24.8674107  28.4042883  78.8665104  53.4359264
  28.3377814  78.6665535  54.3696404  29.3452764  78.9201546  53.2688999
  22.4647742   7.1720828  89.4318898  21.7912608   7.2739162  90.1043792
  21.9829398   7.1939553  88.6050953 108.0423450  57.0632601   9.4600236
 107.7730370  56.1646891   9.6504754 107.6138878  57.2708082   8.6296147
  95.7441014   3.6363448  65.2667713  95.3480977   2.7712477  65.3717661
  95.0020188   4.2409457  65.2658796  85.1720524  99.0393448  40.4636669
  85.3226662  99.3876934  41.3424206  85.6122303  98.1893539  40.4642773
  48.6331701  78.8276958  15.3237307  48.9099407  79.7382069  15.2207422
  47.9823112  78.8530827  16.0251343  59.6898603  64.0973616  22.4675488
  60.4146719  64.5106840  21.9984579  59.1405010  64.8280621  22.7512860
  53.1439686 100.2651787  51.8579578  52.5665426 100.9301567  52.2329378
  53.5299397  99.8276615  52.6167965  62.0004559 107.0716953  12.3405290
  61.2489367 106.9245625  11.7662501  62.3808575 107.8938293  12.0313048
  64.3244171  52.2656822  31.7370248  63.4040070  52.1103096  31.9489956
  64.6639919  51.4033031  31.4978123  95.1695413  29.6221674  59.3009281
  95.7892054  30.3487528  59.3666267  95.5698937  29.0220965  58.6717510
  53.7308407  64.3891096  45.5995321  53.8273764  64.3455648  44.6482086
  54.6258879  64.4766617  45.9273434  45.4557085  85.8343220  12.7447832
  46.1247921  86.5187359  12.7326763  45.1297283  85.8339500  13.6447644
  84.2857742  64.9340725  -0.0978868  83.4134102  64.8912859   0.2937562
  84.8372650  65.3130674   0.5865491  83.2073993   6.3932742  58.8957644
  83.8104648   7.1284331  59.0056610  82.6542777   6.6456736  58.1564522
  65.8624649  94.9227619  33.9361620  66.6101313  95.4190445  34.2692327
  65.8926487  95.0515842  32.9881501  28.8456225 104.4630051  29.5903540
  28.0290103 104.0901852  29.9225974  28.9684725 105.2635288  30.1005507
  81.5926552  93.1010342  23.5523462  81.2764454  92.2664165  23.8982415
  82.3998451  93.2711220  24.0378737 108.4601849   0.3688467  44.3161392
 109.3421430   0.1177729  44.0416431 108.5942525   0.8811701  45.1134968
  68.8415766  76.2357903   1.9492646  67.9277325  76.5167856   1.9027732
  69.3195391  77.0193052   2.2210929  96.5877074  14.0177191  38.6788106
  96.2165994  13.3801020  38.0689287  97.4943561  14.1247691  38.3911228
  74.2508554  98.2899189  50.5785704  74.4992971  97.7859688  49.8036194
  74.6379089  97.8098679  51.3106680  48.3309698  97.6323891  26.7556310
  49.1180182  97.5620079  27.2958517  47.6726103  98.0090904  27.3394871
  71.3067150  79.1405439  37.2566700  71.8597412  79.8569727  37.5683165
  70.4244232  79.3771839  37.5426698  57.8264600  19.0937747  38.4776115
  58.4237522  19.7501315  38.1189132  56.9748300  19.3128336  38.0994964
   6.3348657  30.0661363  91.0421343   5.5822497  29.5465841  91.3247402
   6.2560350  30.1030912  90.0889023  55.5534840 100.3244495  26.7130208
  55.6364775  99.5621300  27.2859216  54.7332382 100.1810932  26.2409163
  63.3732796  85.9410095  18.6879754  62.5170898  86.1835957  18.3353722
  64.0013790  86.3116264  18.0680084  14.5525802   6.9299735  49.7270536
  13.6109985   6.8034876  49.8439312  14.8779643   7.1311224  50.6044960
  38.1269961  30.8719434  81.2909348  37.4989348  31.5934266  81.3261123
  37.7048141  30.2135743  80.7390793 112.5313759  96.2866688  37.1158075
 112.5995541  95.6270218  36.4255571 112.7362823  95.8122921  37.9215407
  17.7024043   0.5386294  41.0023785  17.8431380  -0.3017770  41.4384222
  18.2127822   1.1638869  41.5169668  74.2127037  72.1779060  32.0637512
  74.1847706  72.4768257  32.9726505  73.7515497  71.3391685  32.0731854
  15.5197078  20.5570783  94.9864956  14.8689920  21.1450280  95.3700534
  15.5770188  20.8282603  94.0703042  62.9583502 102.9819489  13.6914825
  62.5373602 103.1972694  12.8592300  63.7975883 103.4412956  13.6612666
  60.8399105  66.3306808  51.6042614  60.9741211  66.5694427  50.6870890
  60.4349756  65.4640532  51.5693712  60.8335447  79.5450449  41.1075401
  60.2208662  78.8096189  41.1096478  60.8227396  79.8683691  42.0084143
  46.5424252 101.2654591  34.9620819  45.6344795 101.5350723  34.8235941
  46.9891787 101.5021133  34.1492844  87.4090070   1.0556830  11.7951119
  86.9888848   1.5578784  12.4933457  88.3446855   1.2210692  11.9108057
 100.6819599 108.6392642  77.9219552 100.2220743 108.9067031  78.7177046
 101.6066664 108.6363888  78.1692274  61.3477516  97.0288467  40.2532244
  60.6227207  97.5518703  40.5952930  61.5884495  97.4603558  39.4334054
 103.1129092  47.1633471   6.5214002 103.0922145  46.3147391   6.9637567
 102.9870099  46.9541205   5.5958700  54.0491152  66.7118359  28.3966613
  53.1788349  66.8893909  28.7534881  54.4030142  67.5761938  28.1872106
  36.2326241  61.6022301  30.4217982  36.3635349  60.6545401  30.3905582
  35.6613779  61.7897892  29.6769977  51.3291693 100.9973717  22.8078270
  52.2273970 101.2514305  23.0196643  51.3761997 100.6809425  21.9056678
  56.6959381  51.6460657  22.2877192  57.0148468  52.0344925  21.4730692
  56.1773968  52.3390341  22.6965547  74.0817165  64.1451311  34.8601246
  73.7808371  64.0618420  35.7649827  73.6275482  63.4450150  34.3912959
  57.0176983 104.9630547   5.2059937  56.9863462 104.0678406   4.8685968
  57.3584843 104.8718452   6.0958129  14.5332492   2.4796427  48.8060379
  14.6840347   2.0869673  49.6658659  13.8523639   1.9355525  48.4103298
  51.4743233  87.9453945  30.3811455  51.4039087  88.7594700  29.8825979
  51.1031294  87.2781467  29.8038840  92.8586483 109.5066261  11.8005157
  93.1933117 109.6317863  10.9125030  92.3492336 110.2973080  11.9781506
  56.1080313 107.5019932  28.0556512  55.2403021 107.3106670  28.4115505
  56.6650820 107.6082706  28.8267756  68.6151505 105.9002495  30.2606034
  67.7688837 105.5640984  29.9655390  68.7110853 105.5599594  31.1501169
  81.4752960  61.1957979  32.0868325  80.6540871  60.8744621  32.4590969
  81.4321518  62.1457958  32.1958232  18.9466190  80.8862114  29.7253895
  19.8531342  81.1813545  29.6396279  18.4399974  81.6928673  29.8195934
  61.1843014  88.4842777  35.5379081  60.5250692  87.7903652  35.5267715
  61.9847155  88.0592060  35.2298808  86.1298847  97.7365017   3.8592780
  86.5892220  97.0647240   3.3553445  85.4233932  98.0272865   3.2826051
  79.4039488  83.6813164  18.0915964  79.8466921  84.1864777  17.4096680
  78.9516258  82.9836845  17.6173246   3.5951102   4.5063532  67.5420380
   3.9398063   4.2816008  68.4062719   2.6784671   4.7316206  67.7009487
  64.9645805  99.3939304  39.8576021  64.8660278  98.7434292  40.5528498
  64.9276781  98.8858414  39.0472269  83.5681057  92.7178097  31.8653965
  84.0233231  92.1981621  31.2028337  82.7564430  92.2379208  32.0301414
  85.9142417  21.7763270  54.0049458  85.0784320  21.7451704  53.5394478
  85.9676999  20.9347094  54.4577837  35.5440950  76.2770319  24.4476771
  36.4123130  75.8740377  24.4527411  34.9664116  75.5970049  24.1011572
  91.7409390  10.2263773  40.5119658  92.0776957  11.0239542  40.9202480
  90.8447522  10.1497115  40.8393812  30.7591605 109.4429207  47.6001740
  31.0599756 110.0507736  46.9247103  29.8054433 109.5235062  47.5873804
  87.2007275  90.8176804  46.0305452  87.7954769  91.5669632  45.9977722
  86.3594723  91.1909580  46.2935495  42.2719526  72.8494501  49.4612551
  42.4718142  73.1996870  50.3293705  41.3246822  72.9547358  49.3727732
  69.2585135  98.0346680  29.9142218  70.1974583  97.8897667  30.0309157
  69.1137505  97.9222107  28.9747381  31.5796995  80.6576157  63.8297081
  30.8534265  80.7603455  63.2147217  31.1839819  80.2546024  64.6025038
  67.9754496  72.5423670  33.7834287  67.8028107  73.1928396  34.4641018
  67.4560261  72.8354883  33.0347586  84.7073764  21.9240988  34.3584323
  85.3851623  22.1983374  34.9761915  84.9320096  21.0189951  34.1426587
  39.1254926  73.4533310  64.9821377  40.0317478  73.7608767  64.9634790
  38.6072540  74.2440653  65.1318121  86.3585281 100.6785011  32.9082918
  85.5350494 101.0164261  33.2603335  86.6306210 101.3331509  32.2651458
  66.6015768  86.1664867  38.3144093  66.7292452  87.0189095  38.7307167
  65.6544065  86.0980034  38.1943893  34.1630745  54.3459034  45.2778149
  34.8910880  54.1698599  45.8738327  33.8351750  53.4792709  45.0377035
  59.0876532  98.0943394  41.3287449  58.2077646  97.7475548  41.1812019
  59.1090631  98.3038521  42.2624874  55.0346547  13.1555833  78.7512298
  54.2328816  13.5224046  79.1238173  55.0642854  12.2582521  79.0831204
  14.7274571  37.3186197  83.5497756  13.8827640  37.4461259  83.1179591
  15.0226146  36.4589967  83.2495137  66.0199547  71.9856358  48.2517433
  65.1241207  71.7071486  48.4418964  65.9219933  72.8472519  47.8464603
  59.6925402  93.3720589  16.0808849  60.4441500  93.2112503  15.5103993
  59.8235273  94.2634869  16.4040565  96.0397434 102.2257233  46.8353271
  95.4812050 101.8095112  47.4918604  96.9314480 102.0738125  47.1484280
  44.2000246 101.3860321  51.2861347  43.9007902 102.0113468  50.6260824
  44.7860384 101.8930054  51.8480921  56.3082838  78.6979246  18.1318021
  56.7583275  77.8631973  18.0017340  56.5219927  79.2093945  17.3514450
  74.1177940  59.9144840  31.7148924  74.5427990  59.1184711  31.3955688
  74.7575092  60.3052855  32.3100972  87.5020599  94.5627403  43.9709616
  87.3303413  93.6312771  44.1092443  86.6346455  94.9526691  43.8623857
 109.0981835   2.1532572  49.6354818 108.3842343   1.8269194  49.0877533
 108.8089580   3.0224360  49.9131870  76.7085981  39.2306685  20.4265809
  76.9221878  40.1408243  20.6320620  77.3599672  38.9732099  19.7741544
  51.5065622  65.2635527  39.7265434  51.0601091  65.8655024  39.1310883
  51.6353559  65.7709408  40.5279207  57.8076935 108.4520626  48.9022160
  57.4967670 109.2322540  48.4430218  57.3149347 108.4448051  49.7228050
  62.7530050  84.2952442  40.4242611  63.4247160  83.6911678  40.1078320
  62.0186949  83.7311745  40.6668329  86.8398857  61.6005659  18.2755196
  87.5471401  61.3934946  18.8863838  86.4069653  60.7616901  18.1170893
   4.2378963   6.3187827  49.8597145   4.3303645   6.1028517  48.9317799
   3.4825290   5.8077563  50.1504183  62.3136377  87.1157646  14.0452731
  63.0571747  86.6869068  14.4689095  62.6869631  87.8997612  13.6425257
  40.9173155  76.9914818  32.4267459  41.6627121  77.5840425  32.3293662
  40.9050035  76.7732096  33.3586454  96.5454978   5.1991309  46.7719412
  95.6762809   5.5637682  46.9384813  96.5073079   4.8932494  45.8657312
  71.6033077  91.9292641  26.7164278  71.9813538  91.7786217  27.5828099
  70.9376001  92.6020718  26.8592787  32.2358704  94.9661922  38.0558658
  32.0155764  95.6895924  37.4690056  31.6174340  95.0497532  38.7816668
   4.7390521   2.3233546  38.1932807   5.3893340   1.8851984  38.7422633
   5.0357402   2.1642340  37.2972393  41.9181299  51.0805941  34.3452001
  42.3171902  51.8711853  33.9819551  41.2375689  50.8445120  33.7148571
   2.7667183  69.1070461  40.3533220   3.3231587  69.0835571  39.5748234
   1.8742699  69.1408300  40.0089025  28.0282903  80.6547928  33.6280775
  27.4004602  81.3048458  33.9434958  28.8759756  81.0965633  33.6780596
  56.5584087 108.7745476  45.2539635  57.2361279 109.0361786  45.8772469
  57.0171928 108.2263184  44.6174145   3.4694160   5.6588019  34.7773218
   2.7006782   5.1602591  35.0543118   4.0350879   5.0120390  34.3554759
  38.5500318  15.2222528  86.8169297  38.3579093  14.5800485  86.1336358
  38.4556228  16.0698737  86.3823463  74.9604464 101.6976547  18.7619519
  75.0292301 102.0549870  17.8766203  75.0556517 100.7522011  18.6467040
  73.8368082  75.2355337  35.6812191  73.3474684  75.8270502  35.1094794
  73.1698370  74.8355913  36.2392783  41.7035103  61.8378115  59.0334892
  41.6964579  62.5920057  58.4440994  42.1521330  61.1517620  58.5392189
  75.1924229  81.4682770  16.6828334  74.8134565  80.5947971  16.5846300
  75.0123882  81.7066097  17.5922394  94.5599955  23.1131781  50.4970694
  95.5032844  22.9569758  50.5422401  94.1923732  22.5602377  51.1865187
  35.8250833  98.2705402   5.4198778  35.0537038  98.0006218   4.9215272
  36.4412999  97.5450516   5.3190362  51.5291357  70.9435177  28.6221170
  52.2254562  71.5857220  28.7597585  51.1801147  71.1507559  27.7552438
  18.9275580   0.9232129  87.9298355  19.4197827   0.5460014  87.2006865
  18.9029199   0.2279605  88.5872962 104.1421861  38.1744421  12.8816986
 104.3090505  38.4358824  13.7872577 103.1982106  38.2869853  12.7699816
  91.8829346  45.0063753  28.4134126  92.6341057  44.6040297  28.8494015
  91.1266327  44.7176790  28.9241910  67.2916269 102.8337955  18.8531077
  67.5089836 103.0327892  19.7638166  66.8707371 101.9748688  18.8894999
 116.5738618  20.0654496  92.4568756 116.7731249  20.4233255  93.3220077
 115.9790599  19.3359031  92.6306601  45.2562505  19.0503492  87.0984329
  45.4476148  19.3173446  86.1993636  45.1438695  19.8734464  87.5739481
  19.9834454  93.3631992  29.8362541  20.7632780  93.0701256  30.3076363
  19.8695600  92.7188110  29.1376662  81.2071514  96.5447998  22.1281099
  80.4296303  96.0013771  22.2561121  80.8612537  97.4170113  21.9388270
  14.2440301  30.8938684  93.0449358  13.6763888  30.8921327  92.2742148
  15.0375634  30.4413594  92.7589695  44.0930557  83.8208866  37.6819563
  44.9115229  83.3558846  37.5084019  43.6201668  83.7919903  36.8502283
  50.5212021  66.4011669  37.2310257  49.9531174  65.6308317  37.2214198
  51.2945938  66.1346436  36.7339730  74.0844870  79.5430565  12.7329767
  74.5300102  80.2917957  12.3365760  73.2964468  79.4249773  12.2026145
  82.3095322 103.4287357  42.0525026  81.4244652 103.5490894  41.7084169
  82.2163773 102.7500343  42.7210188  39.9010110  62.3866367  65.3234863
  40.4223299  62.8469849  65.9811640  39.6808600  63.0590153  64.6787596
  83.9666176  71.6648483   4.1502020  83.1455994  71.3304186   4.5112157
  84.6451759  71.2923098   4.7132280  53.5589838  37.2208929  32.5316954
  52.6898432  37.0524716  32.8956509  53.4960747  38.1000519  32.1583939
  62.8417349  89.0488052   9.0203339  62.0721579  88.9772034   8.4556568
  63.3734226  89.7337437   8.6148691  56.0108995  96.0919094   0.2663144
  55.2295494  95.6578159   0.6087690  56.7178774  95.4636097   0.4134701
  15.9725917  21.4211691  13.7429428  16.0761035  21.6304530  14.6712327
  15.6937564  22.2441805  13.3415186  45.5537748  73.8114119  33.3458114
  44.8883677  73.1811905  33.0696106  46.1485338  73.8747406  32.5984931
  76.0039520  70.7526159   5.7855749  76.5552092  69.9833202   5.6422979
  75.1452255  70.4981995   5.4478019  55.0940704 102.2786236  42.9570246
  55.7484722 102.9594421  42.8005648  55.3317785 101.9087982  43.8072968
   9.9218589  64.6845521  79.9047621   9.2361194  64.8640432  79.2615099
   9.9600059  65.4762544  80.4414089  60.4978991 106.2104702  10.2706981
  61.2537813 106.2507534   9.6848214  59.8607588 106.8092537   9.8811549
 100.7003212  77.0169735  15.2132678 101.3636303  76.4431238  15.5966163
 100.5868340  77.7157116  15.8575630  74.6962690  94.0147972  40.7550621
  74.8706150  93.3990574  40.0432396  73.7459087  93.9893150  40.8664131
  69.7898644   2.6299323  30.0903559  70.4470772   3.3015097  30.2727842
  70.2774710   1.8064345  30.1085711  44.0064907  80.4569149  21.2480974
  43.2839775  80.9512901  21.6351247  44.1622162  79.7397089  21.8625855
  91.0799599  67.3669529  26.2959003  91.2925720  68.2891893  26.4391184
  90.1251030  67.3484707  26.2316585  58.2081747  79.8636055  20.1387000
  58.1724977  79.5086622  19.2504585  58.3805418  79.1030788  20.6937909
  81.5095043  91.1357403  19.9842823  81.4763737  92.0851231  20.1018167
  81.7875290  91.0163879  19.0761614 112.4803943   3.8957442  62.9486513
 112.7147454   2.9842127  63.1230640 111.5337342   3.8769949  62.8082132
  41.2803650  63.0966473  15.9534597  41.7083502  63.3398151  16.7743909
  40.6494379  62.4214935  16.2031066  52.1151304  79.1506577  37.0427966
  52.3927546  79.4866514  36.1905861  52.7921820  79.4491148  37.6500487
 110.3340543  50.6924295   1.5294222 110.2678407  50.2534341   2.3774390
 109.9443090  50.0759649   0.9095053 115.4765004   7.1344985  92.5940037
 116.2390775   7.5365485  92.1779919 115.8333558   6.3924254  93.0820656
  77.4079943 102.0505428  21.2908483  77.8706646 102.7007389  21.8194509
  76.4852619 102.1731949  21.5139127  77.1715164 101.1098003  64.3247652
  77.1711445 100.6110477  65.1417589  78.0949736 101.3020039  64.1619110
  63.3946687  88.7936868  93.9153582  63.1674462  89.5431031  94.4657871
  62.7291280  88.1365098  94.1188532 111.2155932  18.9525164  18.0823576
 112.0939320  18.6695899  18.3367229 110.9685821  19.5944632  18.7480295
  87.3957920  94.2383099  32.9183292  87.3492241  94.4655800  31.9896674
  86.8903542  94.9220943  33.3578849 108.5980100  33.2592429  35.1899123
 108.5208196  32.7608527  36.0034752 109.5018929  33.1188811  34.9078941
 112.4004811  11.3385714  49.8589659 112.5166053  11.9650591  49.1446352
 112.5127715  10.4819430  49.4468832 110.1377458   2.9994334  54.9088192
 110.7644528   2.2768630  54.8718929 109.3727225   2.6775588  54.4319868
  34.1834861  54.5071878  89.1584225  34.5062285  55.2008046  89.7337194
  34.5620185  53.7039842  89.5159383  54.9382162  59.5128155  34.0461016
  54.8029804  58.8265657  34.6995592  55.7459545  59.2613125  33.5982966
  17.3375302  58.0720319  80.4058595  17.5673467  58.9311685  80.7598479
  17.8538877  57.9977311  79.6033104  83.4502983  60.1702785  20.3791428
  83.3238411  59.2280722  20.2673769  82.5699997  60.5398846  20.3105354
 101.7787170  83.1482887  49.4850826 102.5078392  83.2292461  50.0999594
 101.2995720  82.3747635  49.7822380  90.4935360  81.5924454  14.8754501
  90.7570648  80.8557224  15.4268265  89.6624947  81.8858910  15.2489388
  91.7325020  31.1402798  34.2061877  92.0142937  31.9957829  34.5301270
  91.0298443  31.3381863  33.5870385  21.7199546   4.9422015  91.1661424
  21.7346126   4.4839038  90.3259172  22.3566133   4.4734801  91.7057710
  13.3655418   7.7921809  55.6445456  13.1044925   7.5738753  56.5392113
  12.5505603   7.7629794  55.1433659  97.6133633  92.8928947  76.7115545
  96.9431686  93.3686733  76.2209368  97.1551037  92.5621891  77.4841213
  22.9635776  31.2668837  47.7408409  23.1339324  31.2632597  46.7989302
  23.7941612  31.5356387  48.1334305  84.0098667 104.0952587  49.2827272
  83.6649704 103.7076187  48.4783554  83.3849239 103.8369560  49.9601889
 101.2683487  97.5756264  13.1193221 101.5507889  96.6711330  12.9838681
 100.4601479  97.6526546  12.6122642  80.0670785  19.4122447  29.4905472
  80.3459186  20.0969542  30.0985336  79.1350860  19.5804347  29.3514848
   9.9437774  15.0437869  43.2124519   9.3457854  15.7882441  43.2788467
   9.3712295  14.2872179  43.0858517 102.1621227 107.3615360   0.4450363
 101.7385578 106.5119171   0.3226935 101.6271400 107.9712582  -0.0631691
  57.6926088  83.1815815  21.2649941  58.0549479  82.5417614  21.8778324
  57.3515654  82.6546001  20.5423522  66.5466499 100.2886486  61.8055916
  66.8358135  99.5485497  61.2718582  67.1235609 100.2730942  62.5692463
  28.5104144  19.7883547  23.9018297  29.0039886  20.0439776  24.6811056
  29.1026653  19.2088641  23.4225988 107.8567410  87.3770618  35.1138830
 107.9534912  87.6718330  36.0194111 106.9548416  87.0609856  35.0599623
  31.7293609  13.1860102  48.5036373  32.6811946  13.0950297  48.4592772
  31.5578807  14.0700758  48.1792021  41.4020616  39.2437352  89.9039318
  41.2496930  39.0158643  90.8210410  41.9033605  38.5070981  89.5542105
   1.1284870  95.0592041  51.5871763   1.9371647  95.0132179  51.0771227
   0.4466957  94.7673512  50.9820175  17.2350753   3.2746066  26.2941051
  16.8920196   2.4290980  26.5833354  16.5816749   3.9105357  26.5854788
  74.3499041  97.8155708  37.2703385  74.1777468  98.6183929  37.7623463
  73.6524439  97.2168159  37.5373197  88.7215900 103.1970882  39.2841077
  87.9750252 102.5983810  39.2633724  88.3397007 104.0614891  39.1317868
  86.9396973 109.4075871  39.2553139  86.4754200 109.3559170  40.0907803
  86.4428329 108.8364983  38.6694670  86.6750908 109.4329071  34.1048288
  87.6317310 109.4633007  34.1169357  86.4046288 110.3356457  34.2725825
   8.6962093   3.0202425  56.5466833   8.8612903   2.7740706  55.6365299
   7.8691543   3.5013045  56.5184450  77.0826674  67.8222084  40.5575562
  76.3939285  68.3255863  40.1234150  77.4363232  67.2577715  39.8701191
 107.1426696   1.1392821  59.1574621 107.7059239   0.5458010  59.6542120
 106.7730349   1.7266024  59.8167515 102.0950222  70.9307384  24.1608810
 101.7324162  71.8130493  24.2400670 101.5582752  70.3976727  24.7473788
  27.1088374  13.8225497  41.8978930  27.6811374  13.1240023  42.2152901
  26.3141025  13.3707369  41.6141844  40.4131842 100.0667286  39.5683622
  40.9041452  99.6678734  40.2867651  39.7315550 100.5812073  40.0007057
  32.1480144   0.5626620  24.5086312  32.5908340   1.0528697  25.2013373
  31.2158168   0.7051409  24.6727562  67.2907162 107.8805637  13.7267995
  66.9207716 107.8503799  14.6091044  66.5431023 108.0703449  13.1599784
  74.7918940  99.1254807  44.7540712  74.7081041  99.8490047  44.1330004
  75.2229452  98.4309769  44.2559814   9.8749953  37.2076406  85.8189853
   9.5128614  36.3996782  85.4552694  10.5235129  37.4908723  85.1744433
 102.2547817  99.7538376  36.1688423 103.0189705 100.3042984  36.3398743
 102.4984646  99.2378330  35.4003406  83.7624836 101.3219547  50.9074593
  84.6496677 100.9909153  50.7676411  83.2693863 101.0142136  50.1469469
  87.8804684  97.8164959  49.9860191  88.3957386  97.1147728  50.3839111
  87.3466206  98.1579781  50.7033968  70.8115339  81.2344170  10.2037466
  71.1932135  81.9478989  10.7151234  69.8661613  81.3529873  10.2956092
  92.0642108   2.5852335  18.1713343  92.2325486   2.9503668  19.0399969
  91.7518348   3.3285750  17.6554918  86.7090034  82.1246338  44.3626165
  86.6096210  81.1726952  44.3494368  86.3053608  82.4189091  43.5460949
  28.3431304   8.8838233  33.4213018  28.8597835   9.5710124  33.8420987
  28.0322040   9.2818583  32.6082087  82.3140973  42.4345721  48.5838032
  82.7493256  41.8229044  49.1776609  82.5421781  43.3003653  48.9223528
  66.2788630  70.2531862  35.0652027  66.5464258  70.1427221  35.9775853
  66.8471289  70.9473276  34.7313190   2.8849107  39.7740831  94.8076992
   2.9276448  40.6320943  95.2298563   3.7790948  39.4365586  94.8601048
 116.5833491   0.4294432  21.6417384 116.6253680  -0.4410612  21.2459159
 117.4908370   0.7338465  21.6478395  79.3996906  62.0206308  28.0933142
  79.5141792  62.7678680  28.6804748  80.1482105  61.4535236  28.2786131
  58.7378484  68.1176557  87.2779252  58.7744313  68.8040723  87.9440548
  58.3629685  68.5488881  86.5099831   6.0428107  31.3938464  26.0914993
   6.0142101  30.4383219  26.0427785   6.0166324  31.5867747  27.0286894
  91.7398042   0.8095397  38.2379603  91.5508765   0.1187933  38.8731003
  90.9423083   0.8767546  37.7128720  34.7590113  95.4774761   9.5742488
  35.2200127  96.2962723   9.3918431  35.0699329  94.8724079   8.9008546
  31.1741508  38.9458407  32.9229736  31.3915885  38.7890948  33.8418770
  31.8015159  38.4131754  32.4341726  74.9876451 103.9171124  45.1882648
  74.6000814 104.6601009  44.7256708  75.9076691 103.9240360  44.9241638
  66.4340019  94.2104530  38.9965725  66.7611980  93.8762569  38.1614113
  67.1413231  94.0367985  39.6176791  65.4130650  84.2199707  33.8813281
  65.3630877  84.8968601  34.5562816  66.0406971  83.5844517  34.2254663
  72.1228075  72.1927834   6.3136512  71.2004805  72.3436213   6.1067843
  72.2671127  72.6732588   7.1288502 106.3317937  11.2619914  16.4838767
 105.8584613  11.6749133  17.2061527 106.4655990  10.3586043  16.7706120
  63.8330650  91.0304260  24.9648309  63.6026859  90.2968788  25.5349779
  64.5103884  90.6804085  24.3860793 109.5156259  38.9079226  32.8674746
 108.6508912  38.9720858  33.2728720 110.0887221  39.4127310  33.4445047
 112.3473758   3.8082636  30.8055091 112.5818271   2.9108180  30.5691457
 111.7334336   3.7115992  31.5334940  85.1557255 103.6471367  61.2005138
  85.1908016 104.0179825  62.0822573  84.8904228 102.7371407  61.3337851
  82.4004716   4.6127738  35.6838608  82.3262471   3.7974490  36.1798096
  82.2521418   4.3541754  34.7742677 101.3218880  95.1314640  34.5902014
 101.5284061  95.5233765  33.7416840 100.5649853  94.5715332  34.4175506
  77.9696465 110.2353001  51.1311960  78.1552649 109.2964935  51.1110497
  78.1428862 110.5329227  50.2380848  43.3874750  78.2762384  32.0523477
  43.9847708  77.6589108  31.6300058  43.5912704  78.2067156  32.9850149
  97.1822262 100.1078606  12.0422840  97.5214100 100.4182911  11.2027526
  96.3156128  99.7577477  11.8357754 104.2753905   3.1751383  38.9714003
 105.1535052   3.3842696  39.2898607 103.7863511   2.9342116  39.7581816
  85.1877785  97.9511547  30.1289654  86.0406017  97.8547668  30.5528045
  85.0121593  98.8917351  30.1553226 112.2257441  16.8224467  56.0035610
 112.3398847  16.7191733  55.0588226 112.1421212  17.7671851  56.1328506
  10.6554855  12.8953875  19.7773647   9.9484981  12.2586859  19.8823190
  10.5735172  13.4717310  20.5371952  73.9136356   9.3378485  42.5783968
  74.1086430  10.1441515  43.0559731  74.7135133   9.1511763  42.0868874
   5.0588668   3.6399306  33.0894136   4.7803081   3.2687319  32.2522449
   5.6736530   4.3337954  32.8510451  65.5023903  25.0494898  11.9725204
  65.2308744  25.9245623  12.2495770  66.3232750  25.1914633  11.5011120
 100.6963319   1.0454024  22.8615808 101.1338538   0.2677477  22.5150800
 101.0698289   1.1610449  23.7352824  20.9423590 104.5487976  22.2903395
  20.6459689 103.6386395  22.2901869  20.9482789 104.7989178  21.3664150
  63.9725560   9.0502203  24.0566063  63.4915632   8.6134661  23.3536720
  63.2963294   9.3190135  24.6784592  42.5004846  44.8045434  87.5696011
  41.8009072  45.4456224  87.6954921  42.9797727  45.1203717  86.8036010
   9.3680347  12.1848525  24.4464946   9.0486968  13.0870570  24.4298100
   8.5987724  11.6546095  24.2383957  90.4846573  91.6627693  29.6307468
  90.3526688  91.9868183  30.5217004  89.6345711  91.7771244  29.2058921
 102.6589012  88.4432125  46.5094757 102.5237370  89.0431309  45.7759523
 102.4923897  87.5749397  46.1425829  80.9769917 109.0994740  11.8316364
  81.4854336 108.4559345  11.3381040  80.3247070 109.4186211  11.2080216
  80.9591579 109.8573017   4.1084957  80.4167080 110.6208515   4.3059045
  81.7402267 110.2199841   3.6906159  30.3457194  58.6394395  79.8133345
  30.2944594  59.5861139  79.9452634  29.4366723  58.3423986  79.8537786
  92.3734856 103.3984375  39.5367837  91.7791939 103.5873508  38.8105893
  93.0709553 104.0483475  39.4507813  66.8773317 105.7709694  27.4969435
  66.7799759 104.8229218  27.5862217  67.2148037 105.8945847  26.6097784
  82.4306363   7.8549326  36.6680312  83.1519240   8.4521903  36.8661714
  82.7032918   7.4075545  35.8669424  67.6575994 104.6569252  76.9436169
  67.1060848 105.0638294  76.2754154  67.5319862 105.2005196  77.7214098
  30.2607560 106.6994190  19.9153936  30.2018833 107.3563671  20.6090641
  31.1486292 106.7941475  19.5705223  53.6296463 104.6303368  42.5043058
  53.2085609 104.8945332  43.3223009  53.8701916 103.7143993  42.6436996
 105.4893035  18.5767210  15.3853142 105.5099267  17.6221503  15.3173637
 105.4068870  18.8794840  14.4810069  78.7631893  88.9587402   2.7838588
  79.1272736  89.4198322   2.0281647  79.0724754  89.4570827   3.5403135
 112.0863914 101.8329811  53.0029249 111.6739655 102.5778770  52.5655890
 111.9073868 101.9720840  53.9328909  55.1376295  98.4261894  23.7969160
  55.3786182  97.7647972  24.4455433  54.2067242  98.5859489  23.9522290
 101.7631835  15.0444067  10.5255866 101.1795348  14.8416270   9.7945154
 101.2295407  15.5735243  11.1184561 101.4662284   9.1744460  61.0425329
 100.8566493   8.7415923  61.6402578 101.0459060   9.1116751  60.1848507
  76.2473583 104.5357323  22.2483945  76.0855627 104.6534252  21.3123369
  76.0050583 105.3745747  22.6406622 104.2196006   4.9700869  12.1704817
 103.7244052   4.6718729  11.4075375 103.6016482   5.5131758  12.6597846
   7.6537383  14.3914736  24.4800258   7.3841441  13.9125670  23.6963177
   7.3090041  15.2751006  24.3511820 106.2070531  50.8467139   8.3873582
 105.4302758  50.4993285   7.9489994 106.4310473  51.6333235   7.8900522
  85.7448167   9.6763552  17.4262166  85.0869340   9.7531737  16.7351890
  85.6390017  10.4723395  17.9472148  95.2659673  26.8154276  49.4265318
  95.9695977  27.3574008  49.7834587  94.4907636  27.0688475  49.9276018
 112.2697038   0.6047667   7.4535865 112.7810210   1.2233866   7.9752070
 111.4313811   0.5412234   7.9111952  88.2065678 100.4973507  34.8893476
  87.7028465 100.6411266  34.0882111  88.1371212  99.5563412  35.0503063
  73.8575935  93.4038258  32.1564460  73.9085770  94.2502499  32.6005173
  73.0593920  93.0014420  32.4987817 106.5487355  20.1972140   9.9210739
 105.7821864  20.7667387   9.8557103 107.2542113  20.7771243  10.2078712
  23.2551349  10.6932868  43.3352852  23.9117873  10.5377520  44.0141392
  23.1184543   9.8354376  42.9332304  65.7449484 108.2842731  16.0985231
  65.4864025 107.3832893  16.2924564  64.9242687 108.7767982  16.1104465
  37.1748603  14.2139185  37.4358726  36.6103614  14.9526537  37.6635742
  36.5828193  13.4627093  37.3984075  82.3680401 106.8079185  59.1592360
  83.0933285 107.4325562  59.1619015  82.7808380 105.9623337  58.9836740
 112.6966733   9.3069018  38.9150620 111.8796939   9.7635973  38.7145567
 112.4209899   8.4325160  39.1901541  89.4510269  81.9839191  33.8107705
  89.8876095  82.7758312  34.1246486  88.5378838  82.2450733  33.6915851
 106.5019101   7.0572890  56.7842770 106.9012469   6.5755976  57.5086594
 106.0712403   6.3840331  56.2575102  62.7728987 104.2481327  40.4935312
  63.0041122 103.3562279  40.2341509  63.1219625 104.7993469  39.7931409
  85.9744662  15.4438342   3.5174307  85.6054658  14.7329367   2.9933295
  85.3516597  15.5607069   4.2348456  39.9612403  67.9655409  35.7450533
  39.2627072  67.9032707  36.3965178  40.5246162  67.2129726  35.9252858
   5.8542598  22.8218115  11.6524231   5.1487411  23.2207812  12.1616352
   6.1824287  22.1161688  12.2097480  53.3929491 102.2648335  16.5021265
  54.0958357 102.2393799  17.1513855  52.6040316 102.0374107  16.9941807
  23.2838882   9.8782099  38.9303303  23.4927047   9.7787798  39.8591661
  22.4206985  10.2918089  38.9218426  96.3396090  11.6131915  72.4367332
  96.5302915  12.3511542  73.0157709  97.0182055  10.9689368  72.6384115
 115.9411907  69.4144011  30.1967049 115.5970764  70.0943136  29.6174479
 116.3194275  69.8956251  30.9326363  80.0744343 100.9884167  59.5657349
  80.6595993 101.6007042  59.1197491  80.3264236 100.1283264  59.2296124
  29.8837548  58.0525102  73.6236020  30.5525142  58.6979951  73.3948203
  29.2838269  58.0545320  72.8777357  92.3251724 102.1137142  29.7393990
  91.3729858 102.1424294  29.8328948  92.6553726 102.1571445  30.6367946
  61.5915269  21.0841788  35.5400968  60.7750553  21.4401473  35.1895261
  61.4368123  20.1412810  35.5969882  75.0507784 101.8418503  16.0801017
  74.4879389 101.4419460  15.4171443  74.7500610 102.7489853  16.1340261
  85.0732535   2.9325140   5.0724149  85.0765962   2.7945841   6.0196191
  84.8532695   2.0758475   4.7064057  60.9730864  64.4004250   6.1979109
  60.0548029  64.6702957   6.1855125  61.4489031  65.1827526   6.4768261
  45.4129947  16.7006529  21.9495034  44.8091472  15.9586371  21.9813442
  46.1051238  16.4206732  21.3504982  97.8003472  13.5595740   7.6464534
  96.8952149  13.7069071   7.9207897  97.9377717  14.1802348   6.9308275
  15.2819598  24.4184149  26.9301844  15.7643378  24.4190920  27.7569509
  14.6432746  23.7119425  27.0261049  26.0638107   2.4474848  47.5165892
  26.0656703   2.2020091  48.4417725  25.8702529   3.3849181  47.5179100
  81.8086433 102.0617676  37.0763016  81.4993382 101.7323780  37.9201412
  81.9334507 101.2762547  36.5437365  14.5200217  20.8538760   7.2562557
  14.8574126  21.0674227   6.3863170  13.5925258  20.6650294   7.1137202
  98.1753129  20.3153552  30.2356005  97.2682208  20.0207652  30.3170347
  98.2514161  20.6082285  29.3274879  59.0691090 101.6535664  42.3909807
  58.4380054 101.2220860  41.8149900  58.8801622 102.5871754  42.2966719
  43.0419207  93.8495255  22.0461369  43.2132149  94.6502399  21.5504050
  42.2035694  94.0106010  22.4791026   4.1655791   7.1212138  22.5360036
   3.7929214   7.9686965  22.2928667   4.9271835   7.3396719  23.0731010
  86.5335578  22.7494372  36.3469148  86.2155980  22.1565093  37.0277691
  87.3816127  23.0531062  36.6706824  92.6141739 103.4532261   3.0797145
  92.3097324 103.6692429   3.9611241  93.5520840 103.2923603   3.1829932
  47.6074886 107.3612595  29.1152024  48.4732294 106.9735718  29.2433691
  47.0219135 106.8200207  29.6447253 104.1640395  28.9275778  18.9993024
 104.6696204  28.3737315  19.5941699 104.3961686  29.8219241  19.2492962
  57.3437929  90.0917625  25.5892229  57.8337240  89.2822933  25.7339811
  58.0137825  90.7437134  25.3835344  38.8407803  66.0763550  23.4752560
  38.4645963  66.8341064  23.9230704  39.3697691  65.6412601  24.1439056
  12.8521026  12.2274912  21.6988063  13.7799991  12.1792925  21.9288516
  12.7650130  13.0558051  21.2270641 110.6394643   6.2769831  30.4168797
 111.5889567   6.3963831  30.4379702 110.4293031   5.8789481  31.2616467
  90.3641129  93.5210800  16.7893279  90.0317383  94.3959141  16.5882838
  91.2340641  93.6742687  17.1580315  63.8368654 100.2875328  25.7104683
  63.4557343  99.4945240  25.3334951  63.1188536 100.9205341  25.7129693
  89.9519157 100.2052498  19.9555516  90.4236031 100.3316212  20.7788205
  89.9004459  99.2550182  19.8524189  16.2177051   1.4669550  57.3676014
  15.5770934   0.8097876  57.6396084  16.5837348   1.7984141  58.1875992
  17.0541442   0.7830752  47.0483541  17.5347579   1.2609709  47.7242661
  16.2805522   0.4441870  47.4988461  11.5857471  24.2370165  15.2735865
  12.1641982  23.9907397  15.9953666  12.1689952  24.3303908  14.5203745
   1.4347757   6.8113841  65.2176332   2.0604385   6.5712298  64.5341873
   1.3852990   7.7662314  65.1722574 103.5331077   9.4323100  41.3479137
 103.0465049   8.6921252  41.7106342 103.1475181   9.5716799  40.4829693
  96.5781230   8.3755339  34.9079919  96.6141194   7.5897158  35.4533672
  96.1654300   8.0841197  34.0949750  62.3217058  97.9616547  27.5536013
  62.5247526  97.7536297  26.6416097  62.8193283  98.7592220  27.7338529
  88.3954239 106.5833569  42.1889257  88.4174728 105.6304359  42.2766256
  87.8572845 106.8790722  42.9232216  46.0348463  86.2896729  62.5773239
  46.5164137  87.0621014  62.2812128  46.1406708  85.6551647  61.8685055
  26.7042602  51.4438284  26.0565305  27.5467075  51.1029471  25.7559943
  26.3757671  50.7749022  26.6572475  82.0500946  59.5562220  13.1784201
  81.3064194  59.6704531  12.5867033  82.1226215  58.6085272  13.2917523
  42.1320724  77.3214340  15.8665395  41.5256834  77.6897335  15.2239811
  42.1112108  77.9394054  16.5972269   5.9377921   0.2598704   7.0753771
   6.5146793   0.0529231   7.8106385   6.5143836   0.2604044   6.3113266
  78.7922907 100.8703613  18.0849957  78.8272429 100.9856415  17.1354067
  78.2225037 100.1120090  18.2133853 109.9466515  93.4493351   8.1073385
 109.7575951  92.5697231   8.4341061 110.3966904  93.8826561   8.8325459
  28.2291759   4.6233214  32.2373605  28.8066352   3.9356459  31.9058728
  27.4139083   4.1693152  32.4505830  28.3036102   0.4770506  51.4974546
  29.1017116   0.3552474  52.0116901  28.6124004   0.5843962  50.5978107
 107.0221233  69.9729776  33.1643772 106.1530209  69.7907305  33.5216904
 107.3548508  69.1167450  32.8953314 105.5410165   1.9291819  70.1409101
 105.7858008   1.0038413  70.1331377 104.7232074   1.9564379  70.6375790
  41.6800642  63.7863588  10.4783750  40.8850050  63.5347652  10.9482813
  42.0536566  64.4951487  11.0020888 101.2547511   1.2579859  59.8230314
 101.9364613   1.4640845  59.1834784 100.8067244   2.0905913  59.9722624
  19.0052444  76.7244901  64.5334573  18.6894303  77.2462930  65.2711673
  19.8330480  76.3537683  64.8392911  91.2990093  84.0069199  34.3349814
  92.1728992  83.7804604  34.6532035  91.3107109  84.9612236  34.2615199
  83.9440918 102.0534706  33.8459206  84.4793797 101.9346428  34.6305060
  83.6829567 102.9740047  33.8712931  74.1651678 106.0353565  79.1339064
  74.0764713 105.2229977  78.6354637  73.3062077 106.4524174  79.0669870
   1.9859928  88.5733032  29.4248176   1.4128060  87.9792213  28.9403152
   1.5836281  88.6412716  30.2906799 111.2628859   7.9418219  19.9744880
 111.6431016   8.0785407  20.8422303 111.7245120   8.5621394  19.4102752
  52.3358822  97.6349735  28.8647127  52.2379303  98.4656715  29.3300962
  53.0133915  97.1659851  29.3518090  77.6246023  86.3865948  18.0681038
  76.7832327  86.8410969  18.0261958  77.8765535  86.2641907  17.1528077
  59.4898081  90.3327656  30.0458503  59.8622417  90.3409290  30.9275866
  59.5109510  91.2486362  29.7684288   2.7815593  20.9785307  34.3858576
   1.9741977  20.7888545  33.9079142   3.2578243  20.1482428  34.3905091
   0.5280793  12.0338381  16.6315591   1.1598314  11.3299502  16.7786968
   0.1785672  12.2276629  17.5013316  79.0031338 100.3070736  50.9365368
  79.8309374 100.4591846  50.4806519  78.5671282  99.6283817  50.4212666
  47.9487306  45.2232255  93.7276103  48.1930810  45.3775968  94.6401317
  47.5156289  46.0323037  93.4554716  75.3582430  67.6419497   2.8655699
  74.7645378  67.4983168   3.6025307  75.0414896  67.0494080   2.1838120
  50.5645257  33.0967797  87.7702560  50.6968003  32.1490659  87.7944674
  51.4492494  33.4617032  87.7522440  85.6987381  90.9392166   6.0086358
  85.6032276  90.3919697   5.2291268  86.4951134  91.4458656   5.8494860
  85.2853966  79.3151093   7.3724198  84.8576450  79.5985174   6.5643734
  85.1547241  78.3670855   7.3928124  78.3473349  66.2471628  28.5861754
  79.0664053  66.5085602  29.1613626  77.8568506  65.6011057  29.0943766
   0.9948201  70.9318686  51.0544062   1.3359494  71.0562515  50.1687479
   0.6816239  70.0274277  51.0656118 116.6039103  20.0878752  17.8947902
 116.7369384  19.1770495  17.6322281 117.1082515  20.1802290  18.7030876
  61.6510391 103.6851692  17.8088892  62.1722078 104.4859505  17.8668725
  62.2972918 102.9791737  17.7964473  74.7191238  88.8865566   9.3925869
  73.8189030  88.7411308   9.6835834  74.7255182  88.5975361   8.4800863
  82.8677940 104.6816730  37.5487161  83.5988522 104.5977211  36.9365525
  82.2928905 103.9460659  37.3375416  68.0667686 101.0340118  63.8549757
  67.7514315 101.4807510  64.6406078  69.0049362 100.9182453  64.0055513
 104.6012306 104.3204021  35.4710293 104.7087669 104.5392990  36.3966393
 104.3749714 105.1513004  35.0531244   6.1533321  12.1913851  41.9845772
   6.4424575  11.9089926  41.1168861   5.3089870  11.7578543  42.1085453
   5.4477531  59.6280374  84.9172540   5.8834344  59.8053159  85.7509132
   5.8223277  58.7977494  84.6230586   2.4024547  17.0809020  43.3022881
   1.9301522  16.7832507  44.0798283   2.4781860  18.0282916  43.4161091
  31.8110686  45.2837266  92.2477974  31.0600501  45.2836408  92.8412609
  31.7195493  44.4740285  91.7455472 105.8254147 101.1064148  51.1675215
 106.5096283 101.5001011  51.7089033 105.4524040 101.8414783  50.6809282
 115.5486316  33.4453524  49.9116325 115.6828135  34.0932787  50.6033087
 115.0900144  33.9237727  49.2209721  11.8786491  22.6087607  91.1212826
  11.9289554  23.5331763  90.8780575  12.5110782  22.1755255  90.5480671
 110.4976940 106.9918633  29.6944571 111.2351322 106.4330101  29.4492841
 110.1083660 107.2542953  28.8603210  97.4290103  22.9310168  49.7377777
  98.2497853  22.6514567  49.3323088  97.6992005  23.5065688  50.4533005
 100.4192275   0.4907835   6.5164137  99.7940797   0.9033621   5.9204292
 101.1606378   1.0956610   6.5421420  76.9544792 110.1328564  43.1063652
  76.8871021 109.3271637  42.5939703  77.7567816 110.0254154  43.6172390
  96.7897767  27.0617045  25.8305812  96.9929809  26.1354674  25.7000756
  96.3103694  27.0873679  26.6586781  98.9912415  97.8723049  24.4650507
  98.2557774  98.3377266  24.8634315  99.2038727  97.1799946  25.0909305
  20.7342876   2.0207728  28.9543962  20.6468070   1.2560214  28.3854222
  20.4420531   2.7554167  28.4148312  20.7087005   1.5968836  76.6526699
  20.8545364   0.7783640  76.1783266  20.6500114   1.3341845  77.5712490
  85.4996109  99.0187168  24.6120167  85.4430008  98.1052494  24.3316603
  85.5232048  98.9748573  25.5679202  85.6842297  11.1222781  27.2751594
  84.9357528  11.7068995  27.3944569  85.5812234  10.4589880  27.9575539
  18.7648071  27.1997584   9.6281832  19.1284717  26.6982211  10.3578711
  18.2075847  26.5758742   9.1628867  87.3002500  17.2629870   1.8578809
  86.9255227  16.5429533   2.3651810  87.2123450  16.9848288   0.9462166
 114.6619243  38.2045687  24.7523999 115.5644483  38.5158766  24.8214793
 114.7447604  37.2781600  24.5262671  90.3096312  42.7125586  12.4848616
  89.6670646  42.0481432  12.7336335  90.3426904  43.3064402  13.2348228
  20.7816756   6.9252146  36.8941903  21.0736812   7.5105036  37.5930429
  19.8809684   6.7022456  37.1292257 105.4551286  31.2262381  20.2261996
 105.7524318  31.3916529  21.1208963 106.2317532  30.8988894  19.7724080
 110.5439061  11.0779036  33.1730556 110.9719819  10.7648314  33.9699078
 110.9407872  11.9331969  33.0081725  81.3881779 108.5926342  89.7467232
  82.3424625 108.6671448  89.7417831  81.1260414 108.8137054  88.8530540
  78.1861752   7.6057662  34.9257183  79.0266818   7.1534766  34.8535180
  78.2646054   8.3530653  34.3327332  79.5172453  86.7938423  27.6649714
  80.2521515  86.3172626  27.2789598  79.0411234  87.1487427  26.9142509
  12.7681697   4.5311202  34.6600914  12.4436153   3.6748541  34.3813252
  12.8660072   4.4528330  35.6090546  58.0544168  56.1279191  93.2294499
  57.5369149  56.9329728  93.2115507  57.4254972  55.4344358  93.0300197
 105.8062476  20.0540102  18.7328303 106.2815207  19.2334784  18.6021531
 106.3595694  20.5590189  19.3286824  11.6243613   7.7580679  12.8907037
  10.7387222   8.1210936  12.8995836  11.5955985   7.0726908  12.2231269
  95.4819077  17.5476683   9.4953483  96.3797397  17.2501219   9.6423334
  95.5757398  18.3402956   8.9669847  14.0736926   0.5582083  61.5466690
  14.3513358   1.4563788  61.7267704  14.3078006   0.0720538  62.3372841
   2.8244842   9.8267497  19.5737171   3.3978523   9.6683348  20.3236461
   2.0616306   9.2712058  19.7338974  36.4200462   7.1886481  55.8548689
  37.0768607   6.6918028  55.3670549  36.8950141   7.9492987  56.1896181
   5.3933395  46.6550768  52.5225067   4.6752132  47.2337950  52.2663307
   5.4462207  46.0116995  51.8157578  15.7177413  18.9135397  15.2092385
  15.5015624  19.6432246  14.6286714  16.0263408  18.2235278  14.6219754
  64.4981337  97.6446438  14.2172837  64.8316288  98.2171535  13.5264564
  65.1407003  97.7209949  14.9226248  99.3744630  26.2693633  49.0987349
  99.1126412  27.1816386  48.9744663  98.6871404  25.7619799  48.6670113
  94.0026569 105.9092712  26.0333252  94.1711521 106.3382816  26.8722439
  93.1000710 105.5977726  26.1006236 102.3428983   1.4358176  17.2066009
 102.7882928   0.7702292  17.7308512 102.9699105   2.1570242  17.1522439
  32.1179461 105.5401134  24.2099977  32.0457792 105.3965950  23.2663727
  31.2230754 105.4442978  24.5359683   5.3824962  -0.0888311  61.3061047
   4.4490779  -0.2993642  61.2809277   5.4125941   0.8385218  61.5413523
  93.3992386 105.8333111  56.1474085  92.8831768 106.4504910  55.6287575
  93.3853149 105.0226498  55.6386232  10.4551280  23.7254561   6.3287777
  10.1894916  23.7673319   7.2474271  11.2419475  24.2685545   6.2819749
  18.1968940  10.7924880  34.8069859  18.1341518   9.8843039  35.1027918
  17.7425063  11.2962569  35.4822493 111.6611689  33.7767161  53.6175871
 112.1936196  33.4058226  54.3212652 112.2972888  34.0726508  52.9664326
  41.4507885   0.9401644  22.2614288  40.9262726   1.3662947  22.9393101
  42.1336597   1.5771235  22.0511913  20.9721244   8.7879027  45.3893852
  20.6508125   7.8891219  45.4613352  20.1969684   9.3020190  45.1634645
  57.7419740  17.4535312  71.0168643  57.1302014  16.7273320  70.8960290
  57.8832704  17.4928035  71.9627638  80.8428001 109.0251160  22.0394588
  80.6792545 108.3068752  21.4282250  81.7009926 109.3647957  21.7857552
  97.9159832 102.2816658  23.2636833  98.5330296 101.6901684  23.6945128
  98.3832932 103.1150723  23.2064438  85.0285244  98.7427521  27.3463225
  85.3416061  99.6443748  27.4190855  84.9353027  98.4477520  28.2521439
   9.7110904   9.1758955  15.4483497  10.5081619   9.5497263  15.8240509
   9.9507011   8.9566458  14.5479333   3.1611980  21.4733733  56.1427546
   3.6331046  21.8864287  55.4196215   3.1778587  22.1255530  56.8431902
  90.7158727  21.1647070  34.4548011  89.7719640  21.2778510  34.3431139
  90.8750695  21.3748587  35.3749752  34.4998897  20.8399619   4.3371120
  35.2107394  21.4637316   4.4848701  33.9413417  21.2633551   3.6851990
 101.8284416 103.2606697  22.2708678 101.6262054 103.9686680  21.6592479
 101.2638569 102.5381947  21.9960833  79.2425794  29.6736468  50.6739521
  79.0094537  29.1298903  49.9214840  78.4661383  30.2110041  50.8308697
   9.7911609  22.7726210  37.1888494  10.6323016  22.7125967  37.6417518
   9.1393626  22.7427042  37.8892064  62.6007157  59.0675344  91.7235209
  63.2002050  58.3303441  91.8392359  61.8247109  58.6834230  91.3154699
 106.5484828  33.9474524  10.8413899 106.9960374  33.5298956  11.5773046
 106.3822717  33.2335127  10.2258492 116.9926471   3.4102858  32.4925661
 117.4852914   2.7717246  33.0080962 116.0949201   3.0781497  32.4943304
  96.5121555  87.0499897  47.0981646  97.0594120  86.3179302  47.3824644
  96.3214684  87.5329113  47.9023170   8.5165352  99.4704342  61.6808176
   7.5771946  99.5952988  61.8160391   8.8827652  99.4326496  62.5643778
  37.5373012  42.4507894  91.8425568  37.9534942  42.7921094  91.0510318
  36.6050702  42.4179162  91.6278450   1.4444555   6.5578497  29.1277146
   1.5585817   5.6881178  28.7446189   0.9581960   6.4011038  29.9371672
  30.9117377  17.2230948  38.6216116  31.5570415  16.8813551  39.2405009
  31.0667003  18.1676138  38.6111403  67.9544449  91.6684914  17.9029214
  68.6153126  91.0211849  18.1488311  67.3081207  91.1720753  17.4008572
 102.5444221  97.6296616  45.2803755 101.8290043  96.9939327  45.2640057
 102.9685020  97.5349998  44.4274807  88.9843863  18.5521449  56.0302162
  89.0128249  17.6308287  55.7721567  88.0864448  18.8257349  55.8429003
  74.2394161  87.0352268  22.9912734  74.8195457  86.7725563  23.7058973
  74.2890644  87.9910946  22.9814959  37.3887027  -0.0322019  46.5695047
  36.5299857   0.3731192  46.6901302  38.0064166   0.6976641  46.6138840
  42.7339042   7.8120650  17.0009792  43.2063831   7.9291380  17.8251708
  43.3206809   8.1711806  16.3354278  30.7690967  27.0599974  20.1601362
  30.2769054  27.8628767  20.3314996  31.3837589  27.2993124  19.4664824
  46.5436805   2.8225459  46.5043449  46.5803779   2.1773756  47.2104931
  45.9557307   2.4348963  45.8560562  99.6075058 106.3948441  37.0491767
  99.6852016 105.8443165  36.2700033  99.6761703 107.2901726  36.7176557
   5.5361218 107.3945522  73.6989403   5.3455872 107.1117973  74.5933580
   5.9655136 106.6401291  73.2955885  95.4335022 103.3957767  22.7287292
  94.9817276 103.1778717  23.5439897  96.2168312 102.8456974  22.7345729
 104.5712727  20.5844534  47.7641344 103.9628762  21.1592902  48.2285166
 105.2486819  20.3814448  48.4092188  12.4535430   4.0036715   4.4274044
  13.2278217   3.5485018   4.7583771  11.8432296   4.0053690   5.1648021
  29.9338687   8.4110964  38.4886408  30.7363952   8.2279623  38.9771533
  29.5219291   7.5545825  38.3749723 108.3523846  97.3671150  13.9330995
 107.6738453  96.8837357  14.4044387 108.9722919  97.6333237  14.6121264
  69.6778011 109.1192913  23.2288837  69.8124123 108.3209419  22.7182412
  70.2807331 109.0356159  23.9676023  58.3684695  13.1939257  22.2755480
  58.2355750  13.4869898  23.1770349  57.5630534  13.4421862  21.8217897
 107.3194981  54.5756292  14.1352344 107.1465778  53.7917137  13.6138892
 107.7572060  55.1741266  13.5298824  18.3446468  17.1707190  11.9469368
  18.3638061  18.0004443  12.4238265  17.4184573  17.0278395  11.7520106
  55.6943607 106.5648556  62.8071928  54.9166870 106.9810104  62.4353456
  56.1618853 106.2114048  62.0504093  90.6247044  85.6142044  14.6162760
  90.3219128  86.3597107  14.0978551  90.9846973  85.0047779  13.9718759
 110.2645987  14.7907198  39.4756007 109.3543834  15.0515879  39.3352938
 110.6787700  14.8963488  38.6191320  14.4711078  15.8187521  42.7441216
  15.2331603  15.6331576  43.2928133  13.7274993  15.4854525  43.2463121
  78.6644077  85.5066872  29.9324846  78.8083601  86.1186123  29.2106414
  77.9575348  85.9010315  30.4434180  93.2376784  48.0357016  14.0423846
  92.6541108  48.7782038  14.1985118  92.7757615  47.4993838  13.3980107
  61.9693518 102.9667091  32.0072412  62.2700977 102.1794415  32.4611115
  62.4660969 103.6793995  32.4091744  88.6557579  94.4444656  41.6600084
  88.5823727  95.3438377  41.3406706  88.4088230  94.4972229  42.5832987
  79.0306997 106.3778496  42.8803492  79.5095587 106.8421173  43.5669279
  78.2542086 106.9154358  42.7244902  42.3777628  20.6760049  13.1031561
  42.7871656  20.9994173  13.9056695  42.5916529  19.7431993  13.0842817
  90.2061605  92.3006021  32.1210027  89.3790256  91.9052850  32.3963261
  90.8591162  91.6161083  32.2671175  33.2402611  43.5385466  37.3824096
  32.3726821  43.9421463  37.4078512  33.7028289  43.9177322  38.1297255
   4.4546443 102.0406323  27.4103904   3.5014230 101.9744282  27.4671364
   4.7775584 101.3711785  28.0135417  16.1865652  23.9603806  50.2015114
  15.4695654  24.5571113  50.4161167  15.7544565  23.1324172  49.9917746
  76.7112213  25.0754857   2.5512210  76.6467910  24.9616623   3.4994429
  77.6285225  24.8907328   2.3495933  86.4369552  93.8362480  93.5920280
  85.6336229  94.3483329  93.6850771  86.7605036  94.0549064  92.7181079
  60.0363398  40.0046682  24.9467993  59.8013926  40.0935078  25.8704567
  60.3487587  40.8735514  24.6944857  26.8312502  19.3830013  48.2665110
  26.2417436  19.5331597  47.5274801  27.0685649  20.2607036  48.5657644
  38.5980725   3.6438647  33.9980149  39.2806911   3.6630079  34.6687579
  37.9822278   2.9771093  34.3019938  52.4668550  49.8255777  15.0490439
  53.0620384  50.3994179  14.5666647  52.6459217  50.0146198  15.9701467
  39.7494841  12.2747922  11.4692807  40.4849815  12.6850927  11.9241714
  40.1091146  11.4598668  11.1188591  35.0971556  58.8918209  10.3472745
  34.7740722  59.5490074  10.9636760  35.5952358  59.3932819   9.7017622
  68.5784864  18.1432462  21.3914037  69.1777420  18.8087535  21.7293811
  68.7174273  18.1545818  20.4444098  14.2875939  87.8669249  42.8317404
  14.9108249  87.4698888  43.4401608  13.5509807  87.2560274  42.8108168
  51.6774702  18.7181354  43.4536648  51.0587549  18.4407210  42.7780437
  52.3421097  18.0294359  43.4671211  20.5927968  47.1788406   7.8301936
  20.6491303  46.8412828   8.7241256  19.7569776  46.8478632   7.5014210
  88.3330726  97.5180708  40.2941370  87.4620461  97.1216427  40.2744150
  88.5133683  97.6539611  41.2243319  59.5012665  29.0600061  22.8231931
  60.1129198  28.3240318  22.8445053  59.0656471  29.0341473  23.6751294
  97.9036968 101.6657973  53.2287498  98.2344597 100.7751513  53.1122394
  97.8592985 102.0227576  52.3417087  30.8713436  22.9278874  48.8268852
  30.4451180  23.3723736  49.5596886  30.7362366  21.9963098  49.0005064
  47.3553753  22.2681832  41.4489412  48.2860756  22.1609807  41.6452503
  46.9712257  22.5753736  42.2700977   6.1819964 101.9665741   8.7644780
   5.5418521 102.6539217   8.5800856   6.0648709 101.3338428   8.0558431
   8.4768450  32.4821424  10.6595933   8.3994609  32.0866776   9.7913468
   9.4192702  32.5183153  10.8231723  42.6768923   5.1025194  16.9918442
  43.0886412   4.9989480  17.8497326  42.6935482   6.0458767  16.8305027
  42.4292231  25.0413489  28.5373640  42.9577208  25.7391143  28.9247251
  42.5710106  24.2875195  29.1099620  16.5673619   2.5037564  59.9367066
  17.2509938   2.1699800  60.5176349  15.9165793   2.8842963  60.5265398
  26.3444167 100.0119936  44.5781469  26.7789727 100.6022190  45.1938009
  27.0611220  99.5913409  44.1031551  13.8676107  71.1843777  56.5845490
  14.7057462  70.7236814  56.6235018  13.7324309  71.5112877  57.4739790
 111.2290698  29.6786189  34.5602512 110.7539290  29.4803309  35.3671932
 111.6732048  28.8607025  34.3366694  48.6251831   8.4675330   5.9765959
  48.0642414   8.3978665   5.2041149  48.0546236   8.8284653   6.6551411
  64.6102469  95.8466912  90.2940019  64.5237916  95.7712842  89.3437012
  63.8184183  95.4349280  90.6399651  50.6051922  33.6038709  25.7814455
  50.7710028  34.3454933  26.3634515  51.4747810  33.2577729  25.5807996
 104.8026245  84.4365717  90.5431979 104.4927709  84.5597172  91.4404486
 104.0302484  84.1403604  90.0616099  99.5774495  94.3537115  38.5860586
 100.5172455  94.4099330  38.4132743  99.3381607  95.2272843  38.8956428
  35.1317763  18.5069621   5.8263075  34.9321699  19.2872739   5.3091002
  34.8132610  18.7140214   6.7048895   6.3796973  13.0164838  14.4422770
   5.8462936  13.7824655  14.2301810   6.9951701  12.9437864  13.7127972
  56.6055470  59.4540346  84.2660876  56.1484557  58.8588459  83.6719079
  56.9220202  58.8909609  84.9725039  53.6379671  45.5204678  33.7881207
  54.5095062  45.4254675  33.4038973  53.1863689  44.7075081  33.5614347
 101.4941257  27.7704263  41.3693857 102.4401897  27.9107404  41.4081860
 101.3979119  26.8746829  41.0459375  42.0851421   3.8310954  55.2479029
  42.0534325   3.4799618  54.3579960  41.2070656   4.1810480  55.3987312
  62.0750492  92.3436452  91.6199841  61.2991517  92.1516133  92.1466126
  61.9672077  91.8114663  90.8317028   8.6553985  43.9320278  24.9749565
   9.4325072  43.4072590  24.7827411   8.0200392  43.3028889  25.3166199
  49.9799442  12.6767588   2.8016567  50.2030468  13.4764194   2.3252119
  50.3087950  11.9684887   2.2480838  54.6464062  11.9296122  24.8006988
  54.1226482  11.2541044  25.2315164  55.3420973  11.4457321  24.3556070
  48.8375473  14.6249187  41.8107176  48.7331152  15.0062037  42.6824665
  49.6530724  14.1265500  41.8633938  25.9582853  54.9366713  25.8310866
  25.7254529  54.2584515  25.1970220  26.1478305  55.7084465  25.2975392
  57.4696701  95.2127982  79.7960372  56.6856616  94.7813535  79.4563075
  57.3412614  96.1389304  79.5910449  12.7952468  51.7298746  18.0906188
  12.5052822  51.2016058  18.8343167  13.6438775  52.0798731  18.3618379
  83.5592716  90.3362108  95.8089402  84.0968769  90.6677390  95.0897009
  82.8433245  89.8697782  95.3775552  41.2830210  27.5333929   3.3996814
  40.4362726  27.0894599   3.3530915  41.4256763  27.6795864   4.3348333
  25.4148507  29.3221545  33.1464696  25.3871942  29.0293121  32.2355843
  24.5190239  29.6013689  33.3355927   1.0035123  20.2527237  54.3101454
   1.0536706  21.0161591  53.7349224   0.9029405  20.6205487  55.1881123
  27.9529810  40.5179548  29.0038013  28.6771250  41.0477018  29.3372917
  27.7040148  39.9611163  29.7414875  28.0496097   8.7005514  23.8781762
  27.5094914   8.7976164  24.6624470  28.9496899   8.7201959  24.2032981
  10.4578555  27.2780633  35.4251385  10.8151698  26.5477324  35.9302902
   9.9080503  26.8632150  34.7604227  32.5116134  33.9645195  26.5933943
  32.3464489  34.9045038  26.6667795  31.6507649  33.5607576  26.7036104
  67.4885028 100.2945376  86.4337678  68.2145040 100.7807017  86.0428740
  67.9047506  99.7127009  87.0697202   7.2014129  41.6455746  25.8012319
   6.3586915  41.2851000  25.5253482   7.8515208  41.1071634  25.3498936
  27.9000998  15.4966652  22.3856997  27.7121329  16.2540722  21.8314123
  27.7878928  15.8202541  23.2795310  68.1265736  21.7164087  15.5707896
  68.6868000  21.6366076  16.3428056  67.4274445  22.3110151  15.8426249
  23.7861133  32.9932237  28.1163383  24.5495605  32.7531600  28.6414576
  24.0605259  32.8423381  27.2118163   3.8244769   0.4260290  13.9325166
   3.5570073  -0.0332384  14.7286105   3.3572030  -0.0233591  13.2282889
  43.7049484  91.1331367  10.4891253  44.3186331  91.5858841   9.9106425
  43.4880352  90.3255653  10.0232863  79.3089598  94.9333788  68.4698601
  79.8722570  95.6746960  68.2476373  79.9132126  94.2561031  68.7738533
   9.0345007  17.5650644  50.4530573   9.6423620  16.8927395  50.7608175
   9.2393380  17.6657307  49.5234632  14.6206892  10.9467888  39.2317557
  15.0591338  11.3997161  39.9520707  13.9812458  10.3779197  39.6603966
  32.4496775  97.9631806  90.6812947  32.9863381  97.3442889  90.1861186
  33.0778491  98.5867215  91.0457532  58.3961058   0.3806713  22.4102330
  58.6117125   0.5150458  23.3331037  59.2371082   0.1955272  21.9922924
  13.7651765  16.8717992  27.5882077  14.7171164  16.9406247  27.5153661
  13.4516358  17.7705336  27.4872160  37.3679066  66.2787294   8.1898755
  36.7977667  67.0087862   8.4311020  38.2129669  66.4942980   8.5843801
  63.0402279   5.1513427  23.5381317  62.5246429   5.4521823  24.2863965
  63.1069088   4.2040890  23.6585331  36.3665009  34.3272233  22.9052114
  35.6841969  34.7375321  23.4365678  36.6213989  33.5495019  23.4016061
  11.7050677  98.2483720  41.4061260  11.5222627  97.8787195  40.5423164
  11.3667899  97.5978827  42.0214844  36.8339849  59.5472431  20.5015993
  36.7674470  58.9625311  19.7466695  35.9410548  59.6012259  20.8421755
  64.7967052  48.0578327  36.5814805  64.6939373  48.2120466  35.6423926
  64.9773169  48.9234400  36.9479966  45.9353542  42.1202278  29.1112328
  45.5186367  41.7339039  28.3409524  46.6672087  41.5349865  29.3064594
  43.7603045  34.6410012  24.2934203  42.9438686  35.1359177  24.3621731
  44.4147158  35.2923751  24.0410495  63.1057596  39.3030882  83.4861279
  63.2637930  40.2276468  83.6770535  62.3341513  39.0795326  84.0065861
  16.6689646   9.0364903  22.4597001  16.9332361   9.0975595  23.3776689
  15.8543324   8.5342205  22.4778891  41.3442516  74.8323202  26.7727733
  41.7007494  75.6405544  26.4041281  40.5784893  75.1145601  27.2729516
  11.8361497  35.5948400  27.8877258  11.2975156  35.9826756  28.5774279
  11.2048650  35.2345109  27.2649288  59.8868942  22.8882599  39.4488549
  59.4004345  23.6350918  39.7978878  60.7679987  23.2281494  39.2927742
  32.1361542  27.4561739  27.5629711  32.8916192  26.9531417  27.2588897
  32.2032332  27.4356031  28.5175967   8.7253582   4.2402938  10.2120471
   8.9174551   3.3783862   9.8426616   7.9672736   4.0947580  10.7780504
  50.6737471  33.0136275  36.6068983  51.3852644  33.4424376  36.1313963
  50.0759983  32.7121782  35.9227538  10.9098089  25.6568122  37.5779486
  11.2138760  24.7668433  37.7560878  11.1840582  26.1613965  38.3437252
  56.0896254  30.5102515  37.9907250  56.4226818  30.7270527  38.8615322
  56.5737820  31.0860872  37.3989153  85.0116705  97.1982383   0.5810408
  85.4763132  96.4242171   0.2628734  85.0201940  97.8041350  -0.1599379
  58.3482647  20.3251863  12.1934283  58.8995314  19.7492313  11.6637003
  57.8490067  19.7305286  12.7532101  70.6372690  10.7370341  22.6570463
  71.2777615  11.4483237  22.6488018  70.6633615  10.4016078  23.5531712
  64.1285610  19.0705335  20.1401734  64.1866446  19.3606424  19.2298460
  65.0261354  19.1282511  20.4676795  27.7737999   8.0082518  48.9107609
  26.8187475   7.9623938  48.8659906  27.9566741   8.3412898  49.7893238
  17.1219182  34.1889238  43.1939793  17.9401374  34.4041562  42.7462912
  16.4533293  34.2454958  42.5113249 115.0116127  30.9065771  46.2123394
 115.6098486  31.6437554  46.3344669 114.8617464  30.5707860  47.0960903
 107.6477920 101.4272045  41.0553980 107.6909267 100.5249321  41.3720560
 108.5533273 101.7357819  41.0872889   0.2849769  68.0299664   4.8264700
   1.0220187  68.6311388   4.9341238   0.6916505  67.1817493   4.6493253
  23.3147764  31.1742115  30.5225539  24.2050028  31.4574862  30.7310820
  23.0223799  31.7830682  29.8442984  21.2540936   0.9025358  47.1867895
  20.7359409   0.3848867  46.5705204  22.1407986   0.5504949  47.1089792
  37.5071549   6.0669434  33.2476878  38.1681824   5.4212385  33.4973645
  37.5666404   6.1139357  32.2934961  57.6034927  52.9678011  20.0019622
  57.6356268  53.8762999  19.7022510  57.0194960  52.5314665  19.3816483
  38.5075045   0.8269001  18.4318757  39.2858195   0.3688673  18.1146002
  38.7553072   1.7514580  18.4276247  86.3836592  86.5279341  87.4494751
  85.6514614  85.9993959  87.1320333  87.0411175  86.4671422  86.7564471
   2.1404910  44.8808813  25.0650644   1.4021876  44.7189379  25.6523561
   2.2489838  44.0600586  24.5847440  44.6288776  38.8389516  34.7705793
  43.8054037  38.9547157  34.2965341  45.1363754  39.6238899  34.5643044
  49.9330378  71.0042000  17.9127979  49.4524622  70.2124071  18.1543589
  49.6636057  71.1823797  17.0117474  44.8873425  42.2523165  40.8778048
  45.7225132  41.8876648  40.5849695  44.4953012  42.6194096  40.0854826
  21.6290927  21.8592572  73.5043716  21.2447619  22.7335286  73.4397888
  22.4430013  21.9907451  73.9906788  14.0591598   8.5646373  14.0243328
  13.2613230   8.2104117  13.6316347  14.6390688   7.8081965  14.1122854
  76.5810793  94.3823147  83.8595386  76.9198196  93.7067676  83.2720681
  77.2298591  94.4368125  84.5612116  46.2883139  68.2640648  20.6488991
  46.6078568  69.0818167  20.2675748  45.6022692  67.9719162  20.0487185
  31.2166619  33.8204169  15.0982666  31.4178729  34.7243094  14.8559427
  30.9679818  33.8695884  16.0212898  66.2721777  44.3353844  19.3181646
  66.4569664  45.0761986  18.7408602  65.5666208  43.8600302  18.8794613
 101.3754749  35.2800226  12.5686014 102.3176098  35.1243949  12.6350069
 101.0834789  34.6892500  11.8743730  30.5936480  36.2480712  29.9932218
  31.1610055  36.8900418  30.4200864  30.0931811  36.7572141  29.3556166
  35.4655576  41.3973475  37.9700089  35.7329202  41.3898563  37.0509362
  34.5566559  41.0973930  37.9574966  83.5568397  94.8336435  93.9011511
  83.9006441  95.7221699  93.8086808  83.7609928  94.4098664  93.0675048
  16.5051079  24.0108848  38.4591722  17.0153725  24.6306467  38.9804745
  16.6310501  24.2979956  37.5547719  20.8668351  29.5765400  36.7046881
  21.1100292  30.0773835  35.9260726  19.9991810  29.2263031  36.5028429
  54.7927094  17.0008922  20.6527662  53.8532925  16.9672108  20.4722190
  55.2012491  16.6465199  19.8629892  85.3526592  45.7609129  52.2696590
  84.5751572  46.2744474  52.4887657  85.6941414  46.1706114  51.4748240
  31.0518909  21.8729234   9.3747622  31.2230778  21.7413378   8.4422320
  30.4398561  22.6082897   9.4044936  41.3345146  71.9378185  27.1312165
  42.2915411  71.9547462  27.1248198  41.0776615  72.8343105  26.9154286
   3.8153630  91.5698682  31.1552453   2.9103976  91.3392388  31.3652039
   3.7413674  92.2094761  30.4469657  56.5185022  16.1941457  18.7496138
  57.0316887  15.3917217  18.6548305  57.0402670  16.8654847  18.3099580
  30.8962297  78.7189531  28.3444023  30.6173611  77.9427290  27.8586650
  30.9461737  78.4268141  29.2545605   3.6272269 107.8010026  46.0720348
   3.1348735 108.6037976  46.2433147   4.2808658 107.7672792  46.7704964
  10.7965404 108.8540465  18.9477611  11.2451964 108.4228480  19.6750891
  10.0754672 108.2642553  18.7276912  89.0076654  67.7641714  77.0763822
  88.6939018  66.9603635  76.6620417  88.6812179  68.4666610  76.5140887
   8.2022905  20.8011556  19.8006797   9.0596402  20.7849741  19.3753314
   8.1414467  21.6762519  20.1837444  46.9839525  32.7374458  18.0041611
  47.3244429  31.9490528  17.5813854  46.0527182  32.7447414  17.7828467
  38.6806774  16.8072069  14.7943985  38.9369678  15.9007013  14.6247089
  39.5082903  17.2688854  14.9290907  53.4445667  22.5395012  10.5681896
  54.3757725  22.3370266  10.6581664  53.3713150  23.4548974  10.8382177
   6.0705358   4.2294778  92.7853348   5.9218818   5.1675643  92.9042073
   5.7830936   3.8351859  93.6088269  13.7738448  16.6064491  86.9961412
  13.0452663  16.0713805  87.3109569  13.3597785  17.4021568  86.6620346
  54.1802883  46.4860344  38.2658935  54.8922205  46.9662476  37.8430653
  54.6189356  45.7937145  38.7603807  99.6630573  41.3159370  23.1546950
  99.9225235  42.0459938  23.7167668  99.3675613  40.6385612  23.7630367
  67.1051264  76.5365410  16.7492545  66.8110418  75.6417465  16.5786910
  66.6765261  77.0623493  16.0739338  47.1723127  22.2729373  35.3108621
  46.4527178  21.8019199  35.7310462  46.7415619  22.9299879  34.7640824
  25.0411677  44.8976755  28.5723734  24.8506927  45.3338957  27.7419138
  24.4633818  45.3243637  29.2050910  35.1673055  30.4114461  18.8102996
  35.5612564  29.5417809  18.7416255  35.0862765  30.7098913  17.9044318
  20.0569868  43.4955263  13.9992762  20.8210135  43.6257887  13.4375596
  19.8408926  44.3722820  14.3168175  40.7627630  36.6220903  33.3621216
  41.1307812  35.7493067  33.2241130  40.9519339  36.8194842  34.2794442
  26.3403153  15.5878544   4.8304802  26.1683679  15.4267347   3.9027378
  25.5703950  15.2402949   5.2806544  35.9280539  28.5728717   3.5426503
  36.2205505  27.7038002   3.8172251  36.6790676  29.1422820   3.7099263
  58.1128197 107.2096587  84.4202359  58.9281528 107.7070523  84.4839592
  58.1399362 106.8160105  83.5481461  74.7757523  83.0272151  87.0782270
  75.7106583  83.2160426  87.1590270  74.4661587  83.6337639  86.4055588
  59.3795013  54.9346399  40.2659941  59.1367817  54.6148825  39.3970442
  59.2280197  54.1888475  40.8465815  13.3924508  41.9134665  30.9985161
  13.9412713  42.6278687  30.6750107  13.8845348  41.5472889  31.7333627
  50.4636526  40.6262445   5.1726377  49.8486710  40.5694675   5.9039420
  51.3229990  40.4884338   5.5710977  18.6432147  42.7639914  23.9835501
  18.4356678  43.6350632  23.6453366  19.3802071  42.4687815  23.4488297
  39.8591065  85.5090904   6.4372373  39.3317318  85.4340076   7.2325164
  39.3217778  85.1070595   5.7546842  61.4747095  76.7896795   8.0302095
  61.7170954  77.2539520   7.2290051  60.6258965  77.1591187   8.2736462
  45.2955866  20.7555795   3.4425595  44.7161722  19.9951017   3.3957803
  45.7717180  20.6436658   4.2653620   8.5015178  25.6641579  33.9887357
   7.7970815  25.5143619  34.6192622   8.1931466  25.2507067  33.1823874
  72.5064278   5.2040935   1.9200808  72.0406294   4.5830327   2.4800357
  73.3371115   5.3564340   2.3706201  17.4340141  29.9279809  41.4175463
  17.4520981  30.4011130  42.2494411  17.6606965  29.0273380  41.6492605
  48.1892347  42.4862003  24.8306775  48.6259556  42.7243853  24.0128922
  48.1114054  43.3112240  25.3097510  11.1278248  11.7696905   8.7619913
  11.8492198  11.8071663   8.1339657  11.5507734  11.8450415   9.6173674
  49.1600990  50.1889563  18.7181675  48.8999367  50.8996964  19.3041635
  49.0769577  50.5601549  17.8398001  54.4984007  16.9659817  16.1186218
  53.8467598  16.3911259  16.5200412  53.9832067  17.6487088  15.6888664
  22.8338981  54.5138454  26.3689399  21.9520402  54.7811556  26.1098957
  23.3049178  55.3368092  26.4997101  22.0908880  23.3718085  27.3365545
  22.3521066  23.2035589  26.4311886  21.1341810  23.3884048  27.3106623
   8.4052902  46.9316387  40.5785036   9.2997158  47.1430254  40.8459902
   8.1262058  47.6855087  40.0588608  95.7562733  21.9433808  22.3410916
  95.4250050  22.1586728  23.2129526  96.3780403  21.2310791  22.4902725
  50.3733492  33.2371569   4.2887932  49.6501637  33.7055492   4.7057381
  49.9677181  32.7736187   3.5561082  51.4678144  30.7448053  39.8211479
  50.9256840  29.9638224  39.9324751  52.1031809  30.5013418  39.1478992
  56.1114550  25.4149604   6.9569635  56.2997389  26.2621975   6.5532702
  56.2373257  25.5629826   7.8942353  26.3307362  64.6144725  94.7819404
  26.4843278  64.9684960  93.9059787  26.8316596  65.1870144  95.3628921
  50.4411411  44.6569061  14.9746931  51.3627434  44.7218227  14.7243464
  50.1442862  43.8348103  14.5844793  63.0307245  73.6898756   4.7666979
  63.2256079  74.6057701   4.9651769  63.4687853  73.5273933   3.9312723
  48.2540494  20.7327737  77.6901265  47.4875718  20.1701535  77.5796648
  48.8668901  20.2048721  78.2019587  40.9491730  23.1006479   1.8270846
  41.4846039  22.7011085   2.5125864  41.2934828  22.7365899   1.0115205
  40.0266838  43.4895515   8.8895142  39.7809553  42.5822926   8.7086087
  40.9504843  43.5409594   8.6441875  34.4649982  16.5718651  20.9349346
  33.9135003  15.8405244  21.2128234  34.9481845  16.8204069  21.7229629
  39.0415621  27.6021767  32.9861927  38.8515496  28.4451580  32.5744748
  38.2815552  27.0580983  32.7797961  23.1710696  50.7800579  24.0892053
  22.8583670  49.9852896  24.5213962  22.4384117  51.3925314  24.1549468
   5.2789384  38.0202150   8.8861477   5.5579758  38.9134169   9.0875423
   5.4624307  37.5260663   9.6851349  76.6932099  95.5848981  75.5565675
  76.4065831  94.8790813  74.9770017  76.3861316  95.3219701  76.4242096
  45.4961300  13.9726543  28.5055161  44.6188259  14.2357767  28.7836051
  45.8062649  13.3967805  29.2043853  24.3564320   3.0351737  26.0923648
  23.8764238   3.8406408  26.2848425  25.0295782   2.9894426  26.7713428
  53.9344025  33.0743623  22.4206114  53.9183569  33.2167006  21.4741898
  54.1922283  32.1579838  22.5206590 116.5714466  31.5009488  91.8824376
 116.4707648  30.6808843  92.3657338 116.3046991  31.2864579  90.9885313
  39.1491508  43.4785223   5.3613448  40.0474977  43.3243704   5.6536502
  39.2114115  43.5190058   4.4070303  61.8854332  26.0528159  42.5278997
  62.0472956  26.1985660  43.4599876  62.5652647  26.5602469  42.0845318
  67.0084708  87.4863840  88.5633548  67.8876179  87.1079064  88.5726030
  66.7399710  87.4908949  89.4821151  64.3867963  84.9215174  80.9693237
  63.9934271  85.7875467  81.0764785  65.0994985  85.0577594  80.3450449
  28.5228753  59.5055914  67.8456545  28.8686061  60.3353834  68.1745005
  29.0788388  59.2949581  67.0954704  42.1475124  26.8201661   5.9058863
  42.9735184  26.8387175   6.3892108  41.8534088  25.9114599   5.9690475
  32.4428225  46.5073633  31.7696738  32.4599147  47.4080467  32.0932627
  33.1885195  46.0853672  32.1963835  37.8165340  42.3650408   7.5095046
  37.7324796  42.2163582   6.5676659  38.4569430  43.0725336   7.5840801
  68.4110975  16.5694511  17.3439312  67.5006914  16.4510775  17.6148069
  68.7377691  15.6802154  17.2069025  45.6456518  31.0674548  10.3195548
  44.8364305  31.5707803  10.4093158  45.9001160  31.1843133   9.4042271
  58.4405661  65.5083323   6.1327040  58.1965876  65.9604883   5.3250778
  58.6289549  66.2120295   6.7536336  22.0765448  63.3353186   9.2205590
  21.8506932  62.5272322   9.6812397  22.2019553  63.9806223   9.9163198
  30.2079320  18.5872436  46.2593412  29.6817374  17.9807699  45.7382488
  30.3709269  19.3268263  45.6739521   0.5770355   1.8741073  84.2687519
   1.2919551   2.1106137  84.8596759   0.3411466   2.6954259  83.8374503
  21.8073845  49.4661427   1.8036513  20.8514166  49.5001650   1.7690034
  22.0149803  49.5112228   2.7369803  62.2393322  28.2979465  36.7800093
  62.2365856  27.7590132  35.9889507  63.1078434  28.7001348  36.7928076
  20.5624753 107.8958624  12.3726654  19.7463828 107.9517331  11.8755686
  21.1356336 108.5456984  11.9659340  57.7397633   0.9624141  43.3063745
  57.1209574   1.1306112  44.0170193  57.2904873   0.3338441  42.7413225
   6.7506087  52.0752144  12.4049985   6.2498790  51.8784237  13.1966889
   7.3226655  51.3166285  12.2886682  60.3766537   8.0240124  29.1348767
  61.0134268   7.3782843  28.8286352  59.8535156   7.5549048  29.7848749
  60.9956837  29.8023224  30.8567476  61.5981531  29.1071415  30.5922031
  61.4458895  30.2495813  31.5733433  16.4848566  31.6291666  17.9351461
  16.7958224  31.4191484  18.8157284  16.1718798  30.7945633  17.5862670
  63.5386753  51.8897152  39.9690580  64.3460798  51.6721678  39.5032239
  62.9094553  52.0912933  39.2764735  41.6612148  41.4471579  37.5380015
  41.8782806  42.3782969  37.5837493  42.4794006  40.9996128  37.7536631
  33.1026077  43.4756136  24.6035480  32.1676421  43.3177280  24.4726229
  33.4856439  43.3827591  23.7312555  16.2538970  32.7025723   8.4599155
  16.3731134  32.9140568   9.3858171  15.4913187  33.2159781   8.1932294
  89.4122601  15.3938520  25.2502704  90.3050995  15.0502431  25.2186060
  89.3678665  15.8692575  26.0798788  20.9731936  27.1788096  26.1123013
  21.1092973  28.1261206  26.0946226  20.0393271  27.0676446  25.9340668
  24.6473789  63.1721926   8.8240016  24.9353409  62.3012209   9.0973389
  23.7255263  63.0581093   8.5929114  50.1868105  43.2463408   5.0411457
  50.2089882  42.2957659   5.1513624  50.9822321  43.5562849   5.4741192
  20.8396673  38.1541753  19.0372133  21.1251044  37.6726604  19.8136806
  20.4504991  38.9573789  19.3831098  36.0366845  33.2580519  13.2058084
  35.9187675  32.4168348  12.7645791  35.8047414  33.9099956  12.5444424
  41.6884518  34.1510010   8.8955867  42.1500540  34.8079467   9.4167215
  40.7818747  34.4572973   8.8725543  40.1365662  73.7702751  20.8663607
  40.9285831  73.5483265  21.3559270  40.4289007  74.4062757  20.2134609
 109.2452824  22.8633809  16.8122244 108.6322522  23.0195451  17.5305831
 109.8544639  23.6006021  16.8526781  98.6427753  58.1396381  86.3569446
  99.5323294  57.9489914  86.6545613  98.1989401  57.2916574  86.3700171
  40.0918913  12.2967911   4.0391213  40.3082943  11.3659024   3.9857489
  39.4196463  12.4251652   3.3699152  89.1951387  73.1589771  85.2015801
  89.0318697  74.0467370  84.8830564  89.9439257  73.2498813  85.7908900
  58.9661174  97.0412255  92.5948246  58.9653426  97.2277642  93.5336715
  59.6388119  96.3692237  92.4847074  67.9268074   4.5268586  24.4893646
  68.7521887   4.3153647  24.0531850  68.1696939   5.1539952  25.1704955
  48.8634591 100.7025195  83.3394237  49.0950828 100.6804229  82.4109335
  48.3469795  99.9083424  83.4763988  44.5919418  56.6348553   2.1937236
  44.8517656  56.7823744   3.1030980  45.4188061  56.5695620   1.7159566
  42.6964998  12.0342886  19.0444148  42.7200603  11.7884624  18.1196189
  43.5158491  11.6939378  19.4036639  96.1856239  82.8990126  83.7068971
  96.4147442  83.5159302  83.0118080  96.8240803  82.1912790  83.6190339
  55.5964613  56.3223600   9.9579626  56.2352610  56.1742878  10.6552756
  55.2487755  55.4521322   9.7629046 101.1135834  57.6336429  87.1350624
 101.1541860  58.1282047  87.9535927 101.3657682  56.7434315  87.3803379
  98.0827778  71.6086508  87.1104796  98.8580387  71.6754735  87.6679219
  97.6795357  72.4755681  87.1560903  44.3586206  44.2825699  24.3673444
  44.8992920  43.5752678  24.0157318  44.6957350  45.0735283  23.9466715
  52.4059820  36.0252762  29.9080729  51.5186453  36.3439798  30.0732589
  52.8712606  36.1747670  30.7311177   7.7803707  42.2561264  45.1305199
   7.5639921  42.3246861  44.2006207   8.6245263  41.8051815  45.1473856
  40.5035925  18.5154319  21.2513328  41.1590147  18.5970831  20.5585217
  39.7775602  19.0672302  20.9604287  28.0844879  32.3570228  31.7369723
  28.8651013  32.7927113  31.3948488  27.5522113  33.0667472  32.0964241
  32.9927397  47.6104450  52.7260160  33.1309891  47.5318289  53.6699152
  32.2496176  48.2078552  52.6417303  30.8682799  60.9000778  37.3185778
  30.8718038  60.4831886  36.4569354  29.9541616  60.8610106  37.5998139
  57.2709220  70.4931141  91.3435473  56.4941483  70.2121008  90.8599286
  57.1742766  71.4422405  91.4213263  70.2685404  34.5860887  45.3428888
  69.8489475  34.2027092  46.1130810  69.6730423  34.3853402  44.6208715
  39.8139310  70.0617504  12.3174536  40.5990314  70.0897551  12.8643227
  39.3164659  70.8386993  12.5726151  50.3280544  37.4437904  10.7888794
  49.5631742  37.0139837  11.1715710  50.8910990  36.7232680  10.5059254
  41.9668436  37.5732279  26.0271120  42.0386171  37.8805184  26.9308019
  42.8716612  37.4263358  25.7515025  26.3792610  14.5985794  36.5246129
  27.0987916  14.9554002  36.0038543  26.7843080  13.9112961  37.0535851
  23.9395452  79.5924139  36.8862081  23.2545376  79.5471764  37.5532532
  23.5020161  79.9595833  36.1181021 111.5268075  36.9471717  16.1166453
 111.5826624  35.9921098  16.1477923 110.6816941  37.1243215  15.7035685
  39.7369981  27.0483446  26.1999607  39.2891574  27.1448588  25.3595114
  40.5978107  26.6962099  25.9736156  55.0969296  81.9923497  76.2348803
  55.8960300  81.9571782  75.7091113  54.6617358  81.1568189  76.0653837
  29.9030328  24.5229888  51.0189295  30.5005050  24.9366999  51.6419077
  29.0319681  24.6745276  51.3856888  60.4204226  19.5618427  20.9487176
  60.6427813  20.4705906  21.1511183  60.4425573  19.5170462  19.9928224
  48.1442595  12.0092118  36.4683127  47.4732876  11.6065872  37.0196056
  47.6805782  12.2554219  35.6679296  47.9710644  79.7546125  89.7292204
  47.9917990  79.1173268  89.0153100  48.3845960  79.3033815  90.4651649
  50.1195478  48.1596136  16.1335993  50.9532166  47.9251766  15.7258427
  50.2221966  49.0797138  16.3767171  40.8496475   5.8902591  29.8766875
  40.8009815   6.7935723  30.1895595  41.1216021   5.3856087  30.6432390
  61.2065506  43.9738989  26.4702797  61.6286278  43.3702612  25.8589697
  61.0328102  44.7586489  25.9504533 101.0233723  99.1781365   9.0962821
 101.7038023  99.6437799   9.5825124 101.4087593  98.3232759   8.9041317
  42.8127289   3.4182876  22.1892357  43.1015682   3.6838984  23.0623078
  42.1554279   4.0701455  21.9457889  29.7954082   8.6187935  56.2441730
  28.8879848   8.7832153  56.5006542  30.2031279   8.2513356  57.0283747
  19.2641002   6.3612260  92.6253794  19.6168786   7.1290960  92.1757682
  20.0233728   5.7951392  92.7642398  13.4757483  75.5731607  79.2840107
  13.2890761  74.8921002  78.6378344  12.6903402  76.1202932  79.2890211
  27.3486924  28.6586022   5.1430994  26.9835210  29.4713473   4.7933438
  26.5834785  28.1258154   5.3594697  34.1920757  72.6529884   3.3526400
  33.7771297  72.4562979   2.5127804  34.9958301  72.1331787   3.3502463
  26.7977643  46.9717550  44.3657398  27.2620034  47.8088236  44.3706083
  25.9443688  47.1689129  44.7518444  21.4126587  61.0669899  28.8835120
  21.5823197  60.7092571  29.7549915  21.4380383  60.3061819  28.3031988
  26.3029552  86.9750690  14.3392026  25.4451251  87.3826408  14.4585502
  26.9001198  87.7101231  14.2002189  41.8245649  14.3658590  39.2859030
  41.1558867  15.0071228  39.0453196  41.3617802  13.5279882  39.2917991
  58.7305450  68.0137062   4.0975010  59.2982483  68.7123442   3.7721688
  58.1483269  68.4487200   4.7204119  60.5601168  67.4008656  34.3410826
  60.8298588  67.3333454  35.2570033  59.6040678  67.3635864  34.3695879
  51.0299683  33.3507037  16.8808174  50.9550619  33.2271981  17.8270555
  50.4158211  34.0575218  16.6821694  52.4558353  38.3810472  45.9642124
  53.2981348  38.6027265  45.5671930  52.1277332  39.2114329  46.3092279
  54.5823240  50.9891367  27.3049736  53.9174366  50.3300428  27.5043607
  54.3123198  51.7602348  27.8037095  44.7676373  16.5297318  26.4801168
  45.1665258  16.3106334  27.3222065  44.6706009  15.6879914  26.0348201
  19.7120076 105.9413229  36.5975070  18.9993268 105.3028142  36.6225624
  19.3022090 106.7678012  36.8529129  37.0997739  25.6479645  30.2130723
  36.9388270  25.5994034  29.2707515  36.9989443  26.5757704  30.4257751
  56.0061925  83.8046027  91.3584437  55.2185672  83.3558870  91.6659047
  56.5907078  83.8089181  92.1164383 106.3939243  60.8288002  51.0865259
 106.1964374  61.6644001  50.6634426 106.7300337  60.2764845  50.3806877
  38.8355780  36.4692092  35.4787660  39.6023989  36.4538741  36.0514641
  38.2121754  37.0396447  35.9284377  62.7444410  58.9889669  41.6952848
  61.8648577  58.9189291  41.3242579  63.2990456  59.2292356  40.9530449
  92.4558370  73.1698013  76.5574308  92.0104616  73.9096404  76.9703610
  92.5723379  73.4386564  75.6461807  81.2322044  10.4092896  42.0944738
  81.2520027  10.6547201  43.0194616  81.1598778  11.2416172  41.6273260
  17.7030575  56.8159342  27.1531773  17.9869723  56.0979700  27.7189994
  17.0157206  56.4335394  26.6076708  53.5723734  57.7319288  29.4783068
  53.0267954  58.5017967  29.3174481  54.4669485  58.0719614  29.4968271
  39.4994164   0.8892635  27.4296641  40.2209711   1.1299267  28.0107570
  38.8515759   0.4851637  28.0069304  76.0682344  11.4019036  32.0554614
  76.5467310  12.2308731  32.0461583  75.5878019  11.4119458  32.8833008
  64.8976946  38.3343673  17.5341308  65.7385778  38.6423349  17.1960473
  64.9521208  37.3803329  17.4785805  65.0337505  56.6876888  36.3948798
  64.1145468  56.5945673  36.1446309  65.4975843  56.0598183  35.8409262
  46.8230391  66.9892740  25.6368661  46.7832804  67.1319199  24.6911883
  46.5929747  66.0670280  25.7498574  89.4546604  23.2115054  69.7852182
  89.7877884  23.7720251  69.0844536  90.2342987  22.7875137  70.1438618
  40.4763031  77.5914431  13.3879042  39.6338367  77.1452284  13.4737706
  40.5551004  77.7763748  12.4520493  23.2298517  12.7472007  55.8929539
  24.0048957  12.3371661  56.2768936  22.7608085  12.0263088  55.4727793
  62.2846603  19.8534465  43.1452847  63.1092882  19.7456074  42.6713705
  62.5121117  20.3939342  43.9018345  40.6093502  25.3793335  17.7704406
  40.8850384  26.1457396  17.2675967  40.9118795  25.5558419  18.6612558
  21.0407472  45.7773638  41.8115330  21.5976715  45.4430628  41.1084604
  21.5076613  46.5445375  42.1426964   9.7541171  83.1077372  35.0527549
  10.6799203  82.9590546  34.8603654   9.5426065  83.9224373  34.5969510
  59.3955231  53.9800692   9.8801929  59.4244242  53.1837177  10.4104960
  60.3124857  54.1677237   9.6796942  24.4277287  51.5762711  35.0876737
  25.1283574  50.9249258  35.0545335  24.8091292  52.3143196  35.5631208
  20.7676029  25.0937009  22.5248599  21.5008688  25.1057982  23.1400061
  20.2295184  24.3544650  22.8081107  89.6537226  86.7445875  94.0782479
  89.6680229  87.3584414  93.3439399  88.9330404  87.0481921  94.6302250
  18.0799210   8.0341792   8.1526476  17.7534521   8.7244093   7.5753856
  18.1891382   8.4633815   9.0012276  67.2059488  38.2136703  28.6605120
  67.2285032  38.0458450  29.6026158  67.7610350  37.5316644  28.2823825
  56.0776472  45.7428503  18.3531332  55.6153393  45.1021004  18.8934481
  57.0047998  45.5650902  18.5113192  91.7631929  95.0471020  85.3129371
  90.9846228  95.1006175  85.8671875  91.4383285  94.7184349  84.4746812
  86.4499443 100.9011889  94.6449590  86.3485782 101.3637639  93.8131045
  87.3963421 100.8062745  94.7524564  55.9206963  57.0021105  38.2957554
  56.5644169  57.6254845  38.6322975  55.3246832  57.5343227  37.7687383
  73.7771242  89.6868730  72.4810286  73.2214754  90.3184558  72.0243116
  74.3195598  89.3029357  71.7921277  70.0483179  16.7255795  29.4371676
  69.9329710  17.0306134  28.5372329  70.1803923  15.7811141  29.3548632
  11.6081792   7.8102674  92.9093687  10.9176618   8.1904449  93.4523989
  11.3384753   6.9008817  92.7808939  75.6929207  31.0449290  37.6812720
  74.8691702  31.3818192  38.0336595  76.3709164  31.4958858  38.1844544
  22.1923685  74.3766356  27.2521687  21.5406084  75.0606298  27.4057817
  22.8385448  74.5010662  27.9472971  65.0817680  23.7874317   7.2536248
  64.5945263  22.9861259   7.0619625  64.4521379  24.3479300   7.7070963
  50.6597090   3.8563505   2.5123522  51.2009859   3.0709499   2.4323653
  51.2456751   4.5139125   2.8871700  31.6958451  22.3185802  39.2020655
  32.0387173  23.2101440  39.2635798  30.8913469  22.3350573  39.7204661
  25.2492857  60.3083324   8.0183220  26.0690260  59.8150253   7.9882312
  24.6155286  59.6970463   8.3937049  65.3267193  41.2782764  22.5525236
  65.0012493  41.6238689  21.7213416  65.8048820  42.0088053  22.9448557
  87.5359075  79.9880696  83.1505425  87.0775431  80.4092742  82.4234112
  87.0873182  80.3073049  83.9335413  39.4671631  22.2089219  31.2418437
  39.6572542  22.8703380  30.5765438  38.5261703  22.0526409  31.1622095
  63.5634129  94.7811342  93.0711450  64.4832175  94.5172168  93.0478983
  63.0792086  93.9798165  92.8719796  28.8219213  49.7844601  35.3514242
  29.7588134  49.6394777  35.2193499  28.7684965  50.6485558  35.7597327
  45.0884438  38.8516593  22.3177528  44.9653101  39.4083905  23.0865979
  44.2228794  38.8098621  21.9112062  50.1598840  93.5572482  95.2475390
  50.4358368  93.2892276  94.3710427  50.1392799  94.5134998  95.2102069
  81.9308298  76.1462594  90.3351464  80.9786718  76.2146664  90.4054995
  82.0758741  75.6273390  89.5439966  10.8056861  11.7243089  90.5762623
  10.7627517  12.5950135  90.1809682  11.6906577  11.4160814  90.3812005
   1.9780314 110.1214743  83.8142903   1.7194855 109.6346474  84.5968385
   1.5058148 110.9513617  83.8815876  61.5159750  69.3825197   5.9251440
  61.9185925  69.3975210   5.0568652  60.7836723  69.9955034   5.8602101
  44.5342541  69.2721891  34.0137887  44.0433455  68.6156988  34.5080209
  45.1536512  69.6349621  34.6470165  40.0695896  78.0185175  26.7427063
  40.9943008  78.2118702  26.8968415  39.6856332  78.8614702  26.5013742
  74.4815588  52.5542927  13.4975028  73.7648153  53.0407810  13.9047289
  75.1111889  52.4180365  14.2054832  25.7967877  36.4103150  23.0923080
  26.3989925  36.5127611  23.8292527  24.9302006  36.5664458  23.4676504
  63.1378698  55.8684254  30.6075501  63.6729240  55.8363104  31.4005947
  62.9937220  56.8020916  30.4535270  53.2193947  33.4793234  14.9945927
  52.5381708  33.5065484  15.6664753  53.0730295  32.6505685  14.5385504
  53.6952114  42.7646828  40.6821823  54.3799973  43.0002546  40.0562382
  53.4665966  41.8624306  40.4587793 102.8993385 103.1100226  77.8826352
 102.6306360 103.1290818  76.9641204 102.1017187 103.3165503  78.3698543
 108.1995678  43.8607645  19.6460855 108.0827522  43.0303383  20.1075745
 107.3919487  44.3453503  19.8168612  90.6079006  45.0872993  10.6173635
  90.0713730  45.0873423   9.8246628  90.6719875  44.1644192  10.8631527
  89.5604336   7.6894750  86.6527017  90.3439020   7.3198594  86.2455245
  89.7920679   8.6002149  86.8347307 112.1189677  23.4101953  82.4580880
 112.7230417  23.8040389  83.0875440 112.5405847  22.5897016  82.2026248
  61.4423561   6.1828446  33.3421564  60.5025291   6.0023642  33.3227229
  61.5135622   7.1077490  33.1061220  90.7472437  97.9281426  86.8118794
  91.5016382  98.2752896  86.3358440  91.0020035  97.0357896  87.0464690
  79.5214081  59.0071774   1.1487447  80.2392197  59.0986156   1.7753376
  79.0870905  58.1918383   1.3993861  63.5066843  52.9182196  13.3890045
  63.6442471  52.7606297  14.3230677  64.3101406  53.3495092  13.0980003
  67.6948786  13.5346353   1.1723515  68.5250521  13.2851589   0.7663938
  67.2632742  14.0832090   0.5173565   4.1781694  24.8717345  95.4679242
   4.9398452  24.5043887  95.0194434   3.7249976  24.1113891  95.8322662
   7.4084836  21.5450706  71.9147630   7.9740029  20.7895078  72.0745965
   6.5673143  21.3005246  72.3005887  58.3456707  69.6879673  19.7312903
  58.0552673  70.1596737  20.5119276  57.7295017  69.9528313  19.0483439
  73.1078482  37.3787141  34.7871947  73.8700533  37.9577303  34.7909403
  72.6967907  37.5293732  33.9359808  44.8508883  41.4591503  10.2260005
  43.9643097  41.2229300  10.4987812  45.1812887  40.6777620   9.7827196
   6.4593220  41.4308357   8.2150376   7.3998266  41.2618351   8.2709104
   6.1315018  41.2546062   9.0969157  62.3800087  29.0112400   0.9694277
  61.9628000  28.1824207   0.7344152  62.3093367  29.5473766   0.1796206
  83.1558578 105.3751088  95.6353674  83.3373468 105.2534962  94.7034323
  82.2597044 105.0582267  95.7481993   3.1035930 106.1293968  48.5910320
   3.9568311 106.5208193  48.4039402   2.5001412 106.5748714  47.9963636
  21.7103463  46.4779748  80.7485505  21.6361028  47.0576562  81.5066393
  20.8917886  46.6049375  80.2688892  48.0054617  47.0903921  18.6385632
  48.8105679  47.2619152  19.1270459  48.2976103  46.9453239  17.7386546
  54.5413208  32.0204473  45.0720119  54.4146776  31.4628601  44.3043613
  54.4136810  32.9109240  44.7449207  44.9039412  17.4843740  32.3347473
  44.9530315  18.3997560  32.6102424  44.2246866  17.1029508  32.8909540
  47.7382565  69.7902727   8.5611153  48.5994864  69.9335527   8.1687057
  47.9259682  69.4009447   9.4151753  49.3984699  57.3222923  35.4887676
  49.6819830  57.7835178  34.6993852  49.2735767  56.4166355  35.2051806
  58.3445168  45.6175566  38.0889869  59.2577839  45.8470392  37.9172039
  58.2127094  45.8340263  39.0120268  52.6374626  52.9428530  34.0526748
  52.1566725  52.7664375  33.2440019  53.3712006  52.3284340  34.0339732
  46.7168951  30.8565688  33.2570148  46.4940453  29.9284768  33.3292341
  46.2229252  31.2769771  33.9609241 101.2469118 109.3256427  92.5581668
 100.7436722 108.5882188  92.2129245 101.0401838 109.3401051  93.4926649
  53.7683725  34.0532041   4.8835176  54.7109413  34.1836786   4.9873108
  53.6091280  34.1894603   3.9495435  52.6758289  40.5444765  16.4525783
  51.9217062  40.4721403  17.0376360  53.4145498  40.2305698  16.9741011
 103.6833477  35.2108145  38.5037804 104.2848206  34.7774816  37.8982353
 104.2133808  35.3904057  39.2803383  26.4924216  40.6575632  24.2752194
  26.4584732  40.9761810  25.1771975  27.1065164  39.9238539  24.3033338
  63.0280542  33.2837725  59.6652031  63.0549765  33.3776498  60.6174088
  62.1671295  33.6195874  59.4156694  21.9688773  79.0055704  28.3124447
  21.1720109  78.6618137  28.7162590  22.2333336  79.7282076  28.8817406
  44.2462969  22.1406150  40.3060436  43.9730978  21.9116354  39.4176936
  43.4800720  22.5670242  40.6898499  16.3523769  30.3713536  47.7801800
  16.2879860  29.7626138  48.5160637  16.5195370  29.8126864  47.0211172
  46.5797377  40.1460314   8.4470773  46.6112471  40.4868650   7.5531685
  47.2610903  39.4741702   8.4713930  48.0640936  66.3164997   8.4726715
  48.5203123  67.1472073   8.6068988  48.6228704  65.8318043   7.8651571
  54.9338770  59.8191214  28.2726121  55.8827782  59.9336290  28.2206011
  54.6098232  60.6548691  28.6083865  36.3443732  22.9130197  17.2509110
  36.8423605  22.7481198  16.4502573  35.4349065  22.7408957  17.0070362
  52.7648211  21.9928694  26.7972040  52.5859928  21.2396026  27.3600912
  52.0491648  22.6022625  26.9780469  55.8723927  74.3661213  23.0049372
  56.0074568  75.2957010  22.8208876  56.5802050  73.9238644  22.5362754
 101.3725155  82.0559335  85.8576115 101.1904352  82.0256711  84.9183770
 100.7211511  82.6633001  86.2084110  22.5043130  45.4939556  12.8413403
  23.1979966  44.9676037  13.2388151  22.8133869  45.6650543  11.9517171
  37.1155715  62.2425747  19.3039441  36.3230681  62.7658224  19.1840184
  36.8338704  61.5003252  19.8386776  12.6072723  15.3680028  79.1878076
  12.0856839  15.3941907  79.9899860  13.5061818  15.2397098  79.4906850
  91.8216133  68.6137199  23.4071994  92.0625591  68.9924002  24.2526460
  92.5312042  68.0032015  23.2072544  34.1059399  21.0654902   7.8016257
  34.3947768  21.0889935   8.7139052  33.8094401  21.9575477   7.6212108
  69.2030573  29.9397397  16.6390777  68.4583807  29.4486427  16.2919235
  69.3555260  30.6309104  15.9946656  30.6231856  56.6800642  16.4943957
  31.2874365  56.9642067  15.8664930  29.8033071  56.6990423  16.0007644
  24.9751818  93.4924460  81.4997764  24.6516859  92.6137329  81.3011582
  24.2260229  93.9403320  81.8927010  63.8422155  48.3855391  33.1206155
  63.8763714  48.2552242  32.1729422  64.2776585  49.2260408  33.2626534
  96.4025497  66.1673594  30.8138514  96.8259144  67.0254660  30.7885242
  97.0852089  65.5552721  30.5389571  43.9212370  41.0750961  24.4848537
  43.0047655  41.3434792  24.4194245  44.3734312  41.6049623  23.8283491
  53.6602402  71.1561584  21.5322185  53.5335302  72.0701647  21.2777257
  54.6052599  71.0715675  21.6587472  12.8393555  53.5847759  34.9710107
  13.7050545  53.9203215  35.2038360  13.0172467  52.8495884  34.3844199
  52.9456377   6.5515703  22.6935649  53.7152243   6.5868980  23.2616496
  52.2207546   6.8266767  23.2548928 100.6512945  92.1145201  57.7504559
 100.9507578  91.9149972  58.6374422  99.7008484  92.0077062  57.7888461
  63.7152672  68.7200165  35.4096913  64.3837452  69.4047880  35.3882742
  64.0064144  68.1225443  36.0985255  57.0726299  73.9292765  47.1074867
  57.0734739  74.0262222  48.0597687  57.6133585  73.1563377  46.9449472
  48.7337399  46.8647099  22.1365190  49.1785336  47.4797821  22.7196813
  49.2208290  46.9192696  21.3143253  68.3012390  66.4658022  18.6609530
  68.2751989  65.5322599  18.8708532  68.2736254  66.9034576  19.5117915
  63.7262726  41.9879723  35.6182981  64.1571379  42.5398827  36.2709713
  63.0025101  42.5229645  35.2924347  59.3612719  54.9628544  15.6183219
  59.3495464  54.3088341  16.3171446  60.1114798  55.5203962  15.8246422
  57.6988130  89.7857905  93.7370712  57.2504752  89.0770603  93.2756309
  56.9923442  90.3170109  94.1044092  58.3641034 100.6572009  91.8529387
  59.2985576 100.4976369  91.7203893  58.0454462 100.9399081  90.9957551
  65.2947903  23.3797550  27.5809550  66.0066080  23.6973476  27.0253658
  65.7335758  23.0347943  28.3585811  24.1686130  37.5479794   1.2792663
  23.6943173  36.7547703   1.0300732  24.8275399  37.6583529   0.5937991
  14.8955089  18.4538068  84.1727205  14.5444280  17.6128520  83.8798578
  14.1443616  18.9064302  84.5563086  33.5446405  34.4422054  31.5649748
  33.1582880  34.1401172  30.7429624  33.5407090  33.6693811  32.1297383
  25.8309150  54.4357300  19.2795837  26.3042474  54.3203545  20.1035237
  24.9126625  54.5104790  19.5393121  14.2211658  20.3183021  92.5368388
  13.7653810  21.1002864  92.2254001  15.0964051  20.3830899  92.1547567
  39.0519285  58.7064981   5.8888721  39.9969935  58.8165903   5.9935808
  38.7320566  59.5809603   5.6670064  40.0051451  16.3596535  38.5925603
  39.6537971  16.2918770  37.7047586  39.4571519  17.0196140  39.0172815
  37.2974300  78.5299921   8.9666373  37.2825003  79.4734287   8.8056058
  38.0023551  78.2027626   8.4078562  39.7119069  37.9509926  22.1650529
  38.9125776  38.4095335  21.9061208  39.7569084  38.0654955  23.1143141
  77.4171066  39.3686295   9.9814254  77.8971577  39.6387196   9.1985887
  77.1513367  40.1900816  10.3947222  69.2166328  21.4631438  37.6115274
  69.7957993  22.1002197  37.1932769  69.7374773  20.6615114  37.6598597
  95.5801647  96.0535336  92.3907449  96.0764997  96.0799456  93.2087816
  95.0765531  95.2411605  92.4422784  48.0943489  34.2353296  40.4045486
  47.8607273  33.3607864  40.7157087  48.9461517  34.1200781  39.9833727
  94.2120075  62.1189213  23.3767319  94.1241646  63.0276585  23.6643434
  94.5238113  62.1824980  22.4739790  54.0280581  31.1968517  35.2971244
  54.4749308  30.9045935  34.5026946  54.4343805  32.0383048  35.5047107
  47.0097446  46.5045929  44.0460062  47.4936628  46.5712833  44.8691750
  46.7577457  45.5828381  43.9903212  33.5104942  64.3035984  15.9801316
  34.2070389  64.9212456  16.2027693  33.4406853  64.3547583  15.0268531
  82.5453186   8.7648267  27.8307295  81.9444466   8.0197322  27.8348875
  82.7567959   8.8968205  26.9065595  51.7744350  79.6514893   9.8122698
  50.9838963  80.1899910   9.7762597  52.3567104  80.1205063  10.4099345
  74.7669077  28.6515141  49.2992306  74.8848820  29.3098831  49.9839640
  74.5696068  29.1580558  48.5113716  25.5465651  36.9151521  38.5137367
  24.8532605  37.3987174  38.0645990  25.1439190  36.6234636  39.3316770
   9.2162859  99.8852158  80.5420526   9.0896189  98.9406872  80.6317814
   9.3552839 100.1943398  81.4372356  26.7589974  12.0358908  33.2594419
  27.1487808  11.8676054  34.1173363  25.9714293  12.5454605  33.4499931
  63.2946253  39.6541333  33.8578391  63.0698776  40.4293585  34.3723774
  62.7223015  39.7007799  33.0920053  45.6455898  31.9217110  35.6144905
  44.9117804  32.5335336  35.5559325  46.0287714  32.0889902  36.4755464
  38.3088136  40.0115395  11.9428921  37.7886224  40.7980299  11.7783630
  38.6661792  40.1402092  12.8215086 101.0200422  89.8670722  91.3422944
 101.8564480  89.4155384  91.2292765 100.8899944  89.8966623  92.2901569
  43.4120607  69.1908503  28.1712437  43.9893675  69.3715572  27.4294257
  42.6859093  68.6941051  27.7941751  65.5881691  81.8087482  27.3167586
  65.2574015  80.9141350  27.2361588  66.0955477  81.8042946  28.1284094
  46.8408823  51.9326258  27.5606227  47.2995377  51.2874365  28.0987692
  47.1295500  52.7786541  27.9028869  33.5440969  17.1722066   8.6517972
  32.8493905  17.0185769   8.0114734  33.1814957  17.8296947   9.2454833
  21.5360957   5.2677621  83.7382384  20.8911878   5.3395642  84.4419213
  21.3306457   5.9943999  83.1500025  42.7238083  53.5408974  33.6786270
  42.0407152  54.1926098  33.8363719  43.4746265  54.0500164  33.3731794
  12.1909868  63.0919690  75.0034900  12.4360239  62.5393397  75.7456406
  12.8308355  62.8784884  74.3243428  62.1124935  57.6554298   9.4228685
  61.7911291  58.2380438   8.7347454  61.4993382  56.9204044   9.4200623
  45.7863808  50.3622770  19.8774278  45.2989244  49.9484873  20.5897474
  46.3289547  49.6599293  19.5188808  46.8366289  34.6410275  23.3981323
  46.7163992  33.9841676  22.7123380  47.0750427  35.4390121  22.9263163
  68.8595057  80.7900333  28.3005047  68.5410595  81.2213898  29.0934515
  69.3889666  80.0599194  28.6211824  85.9100914  44.1800117  42.0465326
  85.9188366  44.6830559  42.8608465  86.2920475  44.7698069  41.3965464
  29.6630746   1.2031736  82.8700097  29.5396691   1.5231361  81.9763501
  30.3776485   1.7361249  83.2186921  54.4354486  40.0633764  37.2330999
  54.1635895  40.2622557  36.3371253  55.3621340  40.3015614  37.2606707
  48.1575346  59.0870857  19.2078316  47.3410225  59.5574188  19.0395248
  47.8793287  58.2054758  19.4560122  70.8725452   7.7333641   9.5768440
  71.4236021   8.1315124   8.9030159  70.4115772   7.0277369   9.1231608
 104.3490707   3.6206617  81.9119556 104.8649298   3.9816751  82.6329215
 104.0078437   4.3885793  81.4535912  83.3563995  56.4959383   8.4780586
  82.4911594  56.0928726   8.5496956  83.2720280  57.3284483   8.9428610
  50.0042534  50.6798267  41.5816212  49.1600132  50.9238863  41.9609976
  50.0766945  51.2172031  40.7928181  18.7603551  37.2512998  91.0806306
  19.4138080  37.1673860  90.3862335  17.9223138  37.1151723  90.6386055
  62.5861168  33.3321857  46.9035721  61.8444443  32.7340746  46.9953537
  63.1967974  33.0635667  47.5899696  40.4801226  45.7366180  23.8595366
  39.8061275  45.0586796  23.9081502  40.0041437  46.5571785  23.9874458
  28.1940937  29.9258304  32.9340839  27.2617292  29.7344851  33.0356526
  28.2206631  30.8329749  32.6297569 104.4276428  28.7426639  16.2616551
 104.0445995  28.6844659  17.1369386 103.7775993  29.2210674  15.7470620
  44.7049379  33.0111098  38.6463737  44.9529839  33.8595510  39.0135980
  44.8579550  32.3885226  39.3571496  62.1306944  81.9834518  13.0900085
  62.2676945  81.1756420  13.5848987  63.0117607  82.3292542  12.9472983
  74.2782688  64.1810036   6.0387963  73.4090471  63.9210129   5.7336837
  74.4092751  63.6800432   6.8438476  68.1010246  60.3605413   1.1989086
  68.3146715  59.4690371   0.9235679  67.1792030  60.3182411   1.4532450
  47.2996235  25.7492948  36.5055203  47.2052670  25.5560255  35.5727959
  46.8733501  25.0145197  36.9466901  34.3530941  54.8453665   2.7271125
  34.8995662  54.1258430   2.4110645  33.6130977  54.8684692   2.1203962
  85.9892624 109.1844512  78.0050762  86.2129705 109.8620606  78.6430676
  85.6717222 109.6686078  77.2428484  52.6855421  42.7892876  32.9517055
  52.3839569  42.5582981  32.0731139  53.6384869  42.7115488  32.9059792
  95.8295744  99.6177579  90.6141322  95.7909506  98.7579299  90.1952894
  96.7534511  99.7351838  90.8352505  48.5455275  68.3778429  10.8528054
  48.3059549  67.5230360  11.2107742  49.2383480  68.1870651  10.2204776
  60.1003504  24.9142718  55.0252676  60.5447912  24.7939754  55.8644533
  60.5636549  25.6422901  54.6110582  69.4381285  36.2135196  35.1202989
  70.1331902  35.5612850  35.0324607  68.7107849  35.7361627  35.5194616
  30.5482268  68.8069010   1.7783520  30.0834346  69.5232725   1.3458991
  30.3274107  68.9028597   2.7047777  50.6384420  11.2284267  49.4777203
  50.6587124  10.8051836  50.3360224  50.9263468  10.5485380  48.8685465
  49.5453978  30.6235719  22.5886464  49.1837215  31.2747598  23.1897902
  49.9771023  29.9861646  23.1574798  54.4780064  53.8795376  17.0646882
  54.1896486  54.5821810  16.4821315  53.6815453  53.3836508  17.2543609
  77.0360422  48.4325266  29.4237208  77.7624273  49.0193605  29.2134333
  77.3343277  47.9485941  30.1938295  60.9062386  80.6688976   1.9550981
  60.4840899  81.4852905   1.6876437  60.9245300  80.7107639   2.9112074
  42.3843336  21.1488390   9.3114930  42.3926592  21.9268918   8.7540013
  41.7117310  21.3314939   9.9676001  31.4576888  39.5125866   6.8205345
  31.6831422  38.5937023   6.9656390  32.1976280  39.8656154   6.3264805
  35.8546472  44.0999603  16.9181454  36.7470050  44.3107510  17.1929073
  35.3914046  44.9371338  16.9459736  56.4710951  26.9174480  27.6299977
  55.5317640  27.0337749  27.7726531  56.5684223  25.9883380  27.4213982
  38.8464236  83.8429260   4.0472698  39.1677094  83.0690765   4.5100582
  39.5226717  84.0306854   3.3963746  33.5130358  21.2047410  23.9043832
  33.8760924  20.7415342  23.1494927  33.5579181  22.1296859  23.6621165
  65.5181265  59.0541172  16.3715339  65.1866388  58.3959198  16.9823778
  66.4696932  59.0104675  16.4655745  88.4484386  58.1969261  37.4756217
  88.3205223  57.4349213  38.0406165  88.7674427  58.8808441  38.0644560
  63.6341715  84.4990349   7.8010839  64.2898989  84.1837311   8.4230471
  62.8378725  84.5991230   8.3227402  64.2714071  57.7343845  18.4375203
  64.0506458  56.9604540  17.9193258  63.5328245  57.8397703  19.0372050
  54.7057343  44.0218973  19.9178398  53.8014889  44.1341639  20.2110434
  54.9111509  43.1088972  20.1190209  21.4672685  84.2234802  38.5032868
  21.0343742  84.8428440  39.0908384  22.3795438  84.2161083  38.7929988
  84.2237282  44.6744728   4.4864458  84.1842270  44.5849895   5.4386353
  84.9908829  44.1629553   4.2294258  85.3650475  47.1685839  23.5514092
  86.1034584  47.1374130  22.9431272  85.7195854  47.5842428  24.3373895
  61.4923286  71.5307236  41.2908030  61.2299442  71.2741470  40.4067469
  61.5070200  72.4875402  41.2680769  63.9647818  59.9712420  11.0251975
  64.0055180  59.9290991  11.9806004  63.7806034  59.0721035  10.7534266
  65.5905676  26.4252567  23.9393020  65.3645229  26.3323760  23.0138230
  64.8009968  26.1533833  24.4071579  42.7676487  29.2234397  20.2974200
  41.9397449  28.7535715  20.3975916  43.3011866  28.9286160  21.0354257
  29.1287684  41.5467167  42.3283243  29.1182208  41.3810587  41.3856268
  28.4947324  42.2526169  42.4545670  73.2061481  53.1513786  24.0565872
  72.8211784  54.0086317  23.8745213  72.6503134  52.5334835  23.5817385
  75.1198101  54.9722862  33.3163333  75.1326656  55.6159449  34.0246916
  74.1900063  54.8284912  33.1402159  45.4297638  82.4080276  23.2991242
  44.9334764  81.8020821  23.8493633  44.8735762  83.1844807  23.2358670
  73.8430738   8.6902237  35.6095195  74.1387892   8.6540741  36.5191770
  74.0336323   7.8193569  35.2609348  13.4894359  55.1227856   5.3754890
  13.5978615  56.0142374   5.7068300  14.1129053  54.6017170   5.8814567
  75.4032510  74.1599477  89.2251344  75.8547371  73.3813346  89.5509465
  74.6462386  73.8167728  88.7503781  15.1127899  81.0880375  42.2887993
  14.4536936  81.2026787  41.6041946  14.6179390  80.7819366  43.0488396
  70.0228453  52.5813770  45.4461861  70.4106092  51.7393064  45.6844807
  70.3736353  52.7687883  44.5755243  48.7501097  30.0546169  44.4663095
  49.0805387  29.1777062  44.6614408  49.5103550  30.5270457  44.1270924
  72.4892902  49.5110655  35.4956889  71.9317055  49.5752954  34.7203159
  72.0982313  50.1192045  36.1229610  91.1023235  74.6879148  13.3552730
  90.3791714  74.4553518  13.9376760  90.6924343  74.8005342  12.4976397
  63.5223532  41.6993999  15.9427834  62.8092289  42.1226788  15.4647458
  63.1313038  40.9019041  16.2995887  41.3507032  52.8726339  17.5016868
  40.6016922  52.9450750  18.0932641  42.1002340  53.1482601  18.0293906
  45.7532310  44.1688585  31.0608292  46.0667706  43.3763266  30.6251502
  45.4764795  43.8720751  31.9277549  70.1056767  56.1968946   8.5467535
  69.1781139  56.2311125   8.3128881  70.3672552  55.2957392   8.3577234
  91.3640308  60.4439831  19.4686127  90.7860851  60.3130150  20.2203155
  91.1167049  61.3016129  19.1228855  58.1744289   6.7944896  14.8638344
  57.9991913   6.3945323  15.7156312  57.8122282   7.6776648  14.9348605
  54.8863459  56.1427116  42.7757549  55.5026436  55.4392624  42.9796410
  55.4370356  56.8604040  42.4628830  46.3422537  22.1136498   8.6666536
  46.0687447  22.3329663   9.5573413  46.2149096  21.1670804   8.6032265
  43.1448030  50.4066849  13.3192194  42.4432230  51.0025358  13.5818613
  43.9332771  50.7743359  13.7184322  42.0064783  32.8631091  38.5376811
  41.6062546  32.5078130  37.7440691  42.9415560  32.6867485  38.4339547
 109.5056974   7.7738275  82.5780280 110.1082169   7.5950326  81.8560620
 108.6370479   7.6080264  82.2117050  58.8359165  11.7696762  38.6510205
  58.9984798  11.1512625  37.9387212  58.7964821  11.2247515  39.4369793
  75.6659508  57.6905155  31.7156291  75.3925085  57.6681280  32.6326680
  76.5954447  57.9167938  31.7483091  25.0607443  18.7961018  26.0313916
  24.5469522  19.4842982  26.4540410  25.5635095  19.2526102  25.3568101
  56.2208271  46.9290924  23.8473940  55.9214067  46.4638710  23.0662704
  57.1750879  46.8613338  23.8154626  62.9946232  27.4902558  33.2224870
  62.2175550  26.9886112  32.9760075  63.6796045  26.8311191  33.3346105
  42.6261759  35.1206303   4.4777805  42.7927208  35.6264758   3.6824089
  42.5610876  34.2145371   4.1761336  61.8160152  15.7050514  14.2382061
  61.3241577  15.1195002  14.8139131  62.3963022  16.1878252  14.8267853
  34.8623657  28.4510851  24.4007969  35.1805401  29.0261817  25.0966859
  34.9105859  28.9851713  23.6079192  38.3043480  32.6919508   5.5103111
  38.8819528  32.7655482   6.2700397  38.1234384  33.5975027   5.2583623
  30.5185318  60.6959629  28.0764675  30.5349231  60.4510736  29.0016651
  31.1342835  60.0940275  27.6584339  75.5904245  37.6734543  25.4059124
  75.4335022  37.3193169  24.5305872  74.9193287  37.2655559  25.9531617
  76.7188549  50.4535007   4.4059277  76.3365316  50.0701952   3.6165366
  77.3391438  51.1053228   4.0794277  90.9285229  99.9529458  53.9109989
  91.2097519 100.7259083  54.4005628  90.4352539  99.4336272  54.5460029
  64.0961504  55.5784750  16.9592142  64.6188402  55.3585815  16.1880648
  63.9563942  54.7407293  17.4006701  44.3551302  82.0443249  33.9263272
  43.4997177  82.4337006  33.7449765  44.1540861  81.1734867  34.2690444
  88.5394859  48.9757252   5.9741616  88.1954384  48.2127714   6.4386708
  88.2322216  49.7252417   6.4841115  55.0989246  48.4865904  16.7185020
  54.6996403  48.6740255  17.5680149  55.5233717  47.6366758  16.8356502
   0.5302679 104.0668584  80.0175162  -0.1588571 103.6899663  80.5645867
   0.0595438 104.5313359  79.3254824  19.9355590  77.2250414   7.0739847
  19.3014598  77.9180717   7.2580099  20.7749224  77.6801682   7.0064163
  47.2638941  57.2621393   0.2253703  47.9579401  56.7139292  -0.1406893
  47.5139093  57.3854113   1.1410818  38.8142824  32.0062804   0.9158374
  37.8809643  31.7982054   0.9588897  39.2529511  31.1901999   1.1562849
  11.3459140 102.7359622  35.7577682  11.7654878 101.9787966  35.3492475
  11.7133361 103.4906172  35.2976298 101.9453907  60.3061914  18.2075012
 102.1053600  59.3828201  18.4025192 101.2179852  60.2970648  17.5853813
 113.3749359  74.3088937  91.5019660 114.2238825  74.5921255  91.1624102
 113.4830492  74.3155719  92.4530174  62.0249701  45.4996967  31.3107085
  61.3375473  46.1519480  31.1756134  62.2297049  45.1818466  30.4313421
  94.4971657  76.9917107   2.7210683  93.9306259  76.5061283   2.1215084
  94.2138481  76.7174673   3.5932785  83.5191934 102.9717351  87.4916990
  82.7941864 103.5952378  87.4488034  83.2282131 102.2292615  86.9622709
  52.1487379  45.3847980  23.8548326  51.7202759  46.1993885  24.1176820
  53.0483627  45.4751492  24.1690660  52.2740650  55.9824944  42.7886486
  51.8612289  55.4181862  42.1349192  53.2104111  55.9236002  42.5988722
  77.2480440 106.1088943  26.5040565  77.2536898 107.0224571  26.2183952
  77.5290203 105.6152821  25.7335782  26.1730480  42.9049110  11.1970043
  26.9692612  43.3858967  11.4226842  25.4594254  43.4814978  11.4699876
  76.7013836  55.2468300  47.1969795  76.0598564  55.7844114  47.6613951
  76.1766481  54.6961641  46.6159010  33.4024143  62.2869682  32.7926922
  33.8956428  62.6666498  32.0655060  33.5212111  62.9069424  33.5122442
  79.3056250  80.5462456   6.2239486  78.6237526  80.0915146   6.7184132
  78.9209414  80.6864357   5.3587341  63.5109758  76.2450504   5.3179115
  63.8151836  76.4419079   4.4319454  63.4767342  77.0964098   5.7540870
  54.9419928  84.1776276  25.3850245  55.6821442  83.8853550  25.9169841
  55.2655649  84.9559784  24.9314857  50.4251766  47.5994587  28.1286764
  49.6242666  47.9014301  28.5571551  50.1205063  47.1536589  27.3383141
  35.7949257  58.7971783  35.7469296  35.8902812  59.2602539  36.5792155
  35.0499225  59.2211294  35.3209424  48.2328987  96.1081791  35.6031823
  49.0394545  96.4956284  35.2632213  48.4610653  95.8157349  36.4855933
  78.5365074  93.5361028  90.8450364  77.7090209  93.0818511  91.0036393
  79.1444939  93.1543041  91.4781328  61.7170143  50.7173634  13.6754632
  61.6730928  50.1598501  12.8986204  61.9897699  51.5720510  13.3417809
  48.3214712  44.1391468  16.8730605  48.7931204  44.4219732  16.0896158
  47.5535631  44.7094393  16.9092739  50.7252502  53.7577724  35.6954241
  51.4924431  53.4483051  35.2138972  50.1944351  54.2065859  35.0373721
  44.0240556  29.6958055  91.2336658  43.5214978  30.2578153  90.6439127
  43.3821755  29.0743436  91.5771730  82.4148941  65.3414536  24.1884589
  83.0831051  64.6863031  24.3896914  82.7120495  66.1325550  24.6379995
  97.5217152  51.2789202  23.3783007  97.3008728  50.8773518  24.2186594
  97.9801655  52.0861292  23.6116958  36.1235762  39.0671730  34.5926356
  36.3239217  38.1508493  34.4017339  35.3313637  39.2494464  34.0872550
  17.1127855  92.2957350  93.8418982  17.2564280  92.4583102  92.9096057
  16.9419539  91.3555480  93.8975360  45.6391811 100.1394272  37.5058007
  45.6131077 100.0844002  36.5505409  46.5366840 100.4052162  37.7059889
  66.5002918  33.9488220  23.1433129  67.4077177  34.2506695  23.1020856
  66.2571812  33.7954450  22.2302938  36.6710234  39.7143364  15.0980008
  36.1895561  40.4484367  14.7165346  37.5903463  39.9120545  14.9191689
  59.7268915  34.7826648   5.4868793  59.8398161  33.8353205   5.4092985
  59.6386528  34.9371266   6.4274043  95.4856491  59.2789268  13.9783537
  95.1279354  60.0029755  13.4645200  94.8783398  58.5547304  13.8268554
  49.3006420  54.4772053  19.8043644  49.0591335  53.5766935  19.5876145
  49.4652748  54.4607162  20.7471561  42.2891951  41.2408495  11.1059821
  42.1796179  41.6680145  10.2564204  42.0830631  40.3209782  10.9399104
  76.9185925  34.9236965   5.1684815  76.2262487  34.5444369   5.7098287
  77.3067808  35.6043243   5.7182860  82.7609634  63.0582666  35.4976511
  81.9523907  63.0909109  36.0089040  82.9639339  62.1253014  35.4298067
  60.1956224  70.8428431  47.0731163  60.4146767  71.3051701  47.8821278
  59.2394876  70.8668613  47.0348930  70.5883551  60.3778505  15.7402205
  70.7403231  60.9641886  16.4813995  71.4226151  59.9246359  15.6183827
  57.4057770  44.0304899  34.0833783  58.3244801  44.1333342  33.8351083
  57.3583460  44.3764496  34.9746108  24.2994767  32.3431291  93.3927545
  23.5290843  31.9354524  93.7883872  24.8659545  32.5550069  94.1346733
  72.4049711  63.1511307  24.8621988  72.1633053  62.8018713  24.0043831
  71.6567755  63.6890268  25.1212382  78.0766344  72.0118570  10.8501899
  78.8481665  72.0444775  10.2845895  78.1735277  71.1955738  11.3406277
  41.5899849  42.3723650   5.7716876  41.7961788  42.2091007   4.8513284
  42.2817087  42.9623747   6.0710907  79.2546575  98.9222813  75.3574820
  79.4162338  98.1110573  75.8391865  78.3145802  98.9108372  75.1776023
 115.6318855  48.0486917  59.9553585 115.4516983  47.1263742  60.1372766
 114.7704792  48.4660769  59.9580336  59.8111773 105.7724762  17.9705846
  60.3995514 105.0279045  18.0957425  59.4996357 105.6828117  17.0699549
  83.2661438  57.4220276  19.5619452  83.8632011  56.8370962  19.0954494
  82.4580765  57.3979044  19.0494251  82.0431709  67.9070759  17.9536486
  81.6560173  67.4637794  17.1987796  82.4625015  67.2067404  18.4535682
  63.4456444  73.2429171  15.1210701  64.3775320  73.3465147  14.9284887
  63.4183836  72.9910564  16.0441399  44.6333265  61.3248587  15.8199501
  45.1400948  60.5281448  15.9770143  44.2490721  61.5359449  16.6708446
  87.1813583  79.4750118  45.2189064  87.2115993  79.1774607  44.3096352
  87.6816559  78.8178587  45.7027340  88.9305782  98.9915085  27.5462341
  88.5613632  99.4943142  28.2722497  88.4554291  98.1607628  27.5641513
  84.7105026  29.7273850  32.7221918  84.8971176  29.9601030  31.8126583
  83.8973808  29.2242217  32.6786780  75.5979109  73.9140129  22.0719218
  76.1054230  74.2487097  22.8112721  74.7506905  74.3535423  22.1444225
  23.0055547  92.4172211  44.1963434  23.6601353  91.7784595  44.4787264
  23.4127617  93.2672405  44.3633127  55.4009962  61.3886070   5.8881783
  54.4823933  61.5515184   6.1023426  55.8680010  62.1433544   6.2466389
  74.0257168  82.5244236  11.0476291  73.4887314  83.2357693  10.6985295
  74.7406435  82.4327278  10.4177904  78.9961147 105.9430885  28.5342526
  79.5012474 105.1576710  28.3240366  78.5507488 106.1672497  27.7171636
  34.0208507  82.7831459  32.2444177  33.8329697  81.8594456  32.0779419
  33.5216904  82.9904938  33.0344009  33.4591222  96.5098190   4.7135583
  33.8885021  95.6586266   4.6278909  32.5287390  96.3223457   4.5891654
  28.0341101  91.3879299  36.1258006  28.2052326  91.1203766  37.0287752
  27.1116543  91.1754799  35.9837699  82.0756340  64.1536760   1.1820835
  82.7010632  63.4350729   1.2752606  81.4170456  63.8204861   0.5725994
  63.2768488  49.6027899  19.1710091  63.4078360  49.5976114  18.2228267
  62.3276806  49.5481157  19.2819762  76.6582060  80.5467224  10.5930841
  75.9745789  80.7077217   9.9427235  77.4074841  80.2404690  10.0821829
  33.7233716  34.9501027  87.6385935  33.9333850  35.4505719  86.8501456
  34.1950542  35.3991880  88.3400692  44.9399185  77.9682589  15.4656136
  44.0555525  77.6648569  15.6707406  45.4811764  77.1804094  15.5161858
  56.7205954  69.8016739   5.0407600  56.4806843  70.0871515   5.9223360
  56.3093567  68.9424133   4.9470395  49.7878075  83.1484318   4.1222066
  50.1171875  83.2301044   3.2271796  50.4458284  83.5881329   4.6606350
  59.0324020  86.7299461   8.6434108  58.2271194  86.6967678   9.1597891
  58.7876034  87.2029305   7.8480542  34.7740126  83.5682106  43.5315418
  35.6572461  83.2025242  43.5805511  34.8619580  84.4545364  43.8821459
  85.5046749  59.2908764  23.1722713  86.3502121  58.8443756  23.1282258
  84.8935795  58.6890221  22.7473426 114.0651720  98.3324195  89.1468103
 114.4831961  99.1227914  89.4885762 114.2122953  98.3731509  88.2018615
  13.6562884  93.9440132  66.7306252  14.0484583  93.3845068  67.4009891
  12.8275931  94.2317868  67.1136137  59.0116769   0.9801664  86.4675625
  59.6186715   1.5381517  86.9538130  58.7782746   0.2860393  87.0839586
  69.5440388  43.5429764  26.6881943  68.9093733  44.1775465  27.0209932
  70.0750494  44.0393877  26.0654306   0.4774839  19.3624772  80.5496426
   0.4726440  20.3027047  80.7290347   0.3537041  18.9544906  81.4066477
  88.4842968 104.3770313  49.1684532  89.3117714 104.2178917  48.7143707
  88.6443901 105.1640224  49.6892691  84.6700764  74.4278431  15.2658105
  84.7924995  73.5155869  15.0030649  85.4680538  74.8697901  14.9757087
  50.1788312   7.5274600  90.7308160  50.3931123   7.9001846  91.5860309
  50.8972341   7.8043355  90.1620718  42.0032501  28.1171298  13.5605061
  41.3902807  28.3274102  14.2649758  41.8621159  27.1858263  13.3902514
  62.1918106  65.6392717  15.5974901  62.3223495  64.9943352  14.9023306
  62.5573158  66.4501047  15.2436674 114.5069855  87.6655389  95.0888387
 114.5258968  88.4429336  95.6469909 114.8817270  87.9580236  94.2580243
  70.2534914  46.5111542   2.7487293  70.3875303  45.5917168   2.5187123
  69.4190025  46.7410803   2.3400888  35.4581070  46.4627218  20.1856279
  35.5887532  45.7012081  20.7506537  36.3375258  46.8170595  20.0540900
  50.1659060  64.4923925   1.1899333  50.7811403  63.7822342   1.0071826
  49.3257618  64.0532684   1.3224693   1.1385023 101.2860156  90.3226473
   1.8887341 100.7272864  90.5256398   1.4544165 101.8700457  89.6331938
  69.0316677  75.8576298  36.1215472  68.8386488  76.6336679  36.6476130
  69.9875402  75.8270931  36.0815120  93.9315605  79.6225262  27.3673964
  93.0530930  79.9943829  27.4464917  94.4712257  80.3478146  27.0528412
  69.5555162  38.8221145  27.5451565  69.3840456  39.4182277  26.8161297
  68.7070322  38.7210178  27.9765344   8.6643725  26.1996068  81.6950651
   9.5658666  26.3663758  81.9702681   8.5347348  26.7726602  80.9394010
  85.0805378  35.3389120  31.9852877  84.8880386  34.6959090  32.6677275
  84.2419434  35.4802179  31.5459418  63.6610079  29.9683976  33.8704944
  62.8257561  30.4157543  33.7346458  63.4488153  29.0378094  33.7983155
  89.0117168  89.7653866  27.0763588  88.9106655  89.8823166  26.1317182
  88.7610340  90.6100559  27.4504209  78.8823557  72.5798035  31.2311029
  78.1946325  72.4717665  31.8880677  78.5307741  73.2278633  30.6206632
  71.4193344  81.6478157  15.7827568  71.9736147  80.8693218  15.8370876
  72.0360661  82.3791122  15.7497370  64.9213886  95.7536602  37.4865222
  65.3109169  95.2365303  38.1915641  64.9451303  95.1753998  36.7241001
  22.3231107  20.1980437  93.0643132  21.9270831  20.0973167  93.9299046
  21.7395955  20.8001317  92.6025449 116.7315518  30.4148473  89.3044605
 116.8468439  30.9728803  88.5353507 116.5046775  29.5567979  88.9459671
  53.5294819  73.8944387  22.1496177  53.6953449  74.4456148  21.3848162
  54.2906141  74.0319252  22.7135348  25.0483781   9.3228044  79.6087714
  25.4688626  10.0749053  79.1919084  24.1616756   9.3139352  79.2483337
  67.4282026  97.2829819   3.4240249  67.3494434  98.2363415   3.3905447
  68.2628441  97.0963573   2.9941571  52.2126341  86.6876507   4.5038101
  52.1521091  87.4104881   5.1283604  52.2070217  85.9000397   5.0477517
  47.6706457  91.9054699  36.0867167  47.7927589  91.5103245  35.2234769
  47.4428272  91.1707497  36.6563845  50.4628515  33.7882328   9.8485565
  51.0164404  33.0603147  10.1312339  49.5866108  33.4094572   9.7781616
  66.4010239  54.4784546  31.3520551  66.9265985  54.6936083  30.5815268
  65.7152224  53.8990831  31.0200334  71.9296694  43.6283636  37.0357037
  72.4383736  43.0360126  37.5893950  71.2374783  43.9571238  37.6093078
  42.7755928  47.4448872  14.6034920  42.8173542  46.4888811  14.6266115
  42.1470690  47.6404381  13.9085484   8.8435870  17.9655828  88.6432071
   8.5429555  18.0516423  89.5478882   9.7030240  18.3869304  88.6353053
  74.2708826  54.5042372  16.5361083  73.8627434  54.9523973  15.7952940
  73.5399866  54.2775488  17.1111178  57.2139025  50.7789373  10.2598405
  56.8671227  49.9145651  10.4808295  56.5905571  51.3933325  10.6473887
  26.7893314 109.6296978   8.7154859  27.1045017 110.2615929   9.3617076
  27.2390223 109.8708153   7.9056251  29.2399341  11.2559261  87.5597717
  29.3552524  11.8179454  86.7935689  30.1298457  11.0879935  87.8697451
  68.0946207  54.1731215  33.3455467  67.5082254  54.4091082  32.6267433
  68.3412409  53.2659340  33.1654692  67.1338511  69.4732714  37.6475787
  68.0261564  69.8143673  37.5869298  67.2422743  68.5226727  37.6765704
  58.6256266  58.9154291  19.5376658  59.1121435  59.7380304  19.5911598
  57.9574156  58.9876080  20.2192235  50.1865292  64.7013760   7.0798349
  50.8733892  64.5818281   7.7357024  50.6555796  64.9577284   6.2857914
  87.4239349  93.5509872  18.5371339  87.9788971  94.2475796  18.8878584
  87.4843407  92.8480434  19.1840184  54.5216274  67.4662018  38.0071211
  53.6545086  67.8694487  37.9655695  54.8773909  67.7494574  38.8493991
  83.6884594  52.1059465  11.7628694  83.1787395  52.8367043  12.1127403
  84.5279694  52.1590996  12.2196329 109.9079704  81.3455582  11.3199902
 110.3246307  81.8097019  12.0460749 110.3790665  80.5140972  11.2654066
  84.8062229  47.5928545  11.1759400  85.7314777  47.3476410  11.1758125
  84.7935295  48.4797192  11.5358579  26.5349132   3.9865054  88.0488332
  26.1325198   3.1553020  87.7970226  25.8225089   4.4865216  88.4471961
  10.8792668  23.2220115  95.2705730  11.6138536  23.8261832  95.3782127
  11.1404162  22.6541843  94.5455847  46.3849449  71.0554409  47.1330595
  46.2114096  71.2468100  46.2113762  46.7703438  70.1792765  47.1273184
  79.8319054 109.1976166   0.5197483  79.4501877 110.0591660   0.3516582
  79.0903473 108.5940838   0.4742508  86.2891674  73.9442062  43.1011438
  87.0291805  73.9653111  42.4943733  85.7987213  74.7433519  42.9086304
  74.5994949  29.2796874  23.1764078  73.9513063  29.5634484  23.8210487
  74.1046858  28.7378645  22.5617337  68.2482958  87.1827221  17.0659578
  67.8130007  87.7448177  16.4250183  67.5922012  86.5229511  17.2906268
  78.4637785  51.0002947  15.5804586  77.6876640  51.5178585  15.7949591
  78.7230253  50.6017733  16.4112449  67.8279543  78.0679035  21.1059546
  68.0564499  77.2454262  21.5390277  68.0849314  78.7466574  21.7300439
  74.1715431  16.8468404  42.4649048  74.6201181  17.6909971  42.4157953
  73.2443333  17.0620954  42.3640156  43.2756901  43.1257486  29.7561812
  44.1977930  43.3639622  29.8521900  43.0940342  43.2423544  28.8236380
  99.4347382  75.5463219  38.2962155  99.4327068  76.3102531  37.7194715
  99.3421173  74.7994375  37.7047610  93.1942844  72.5288010  39.5792699
  93.8186455  73.0926704  40.0358295  93.7371826  71.8634558  39.1564131
   0.6060230 107.2714568  91.6025873   0.6082737 107.3910762  92.5522806
   1.0541308 108.0459357  91.2625705  68.1943226  21.2644815  27.6251793
  68.6194229  21.3222933  28.4808564  68.2742786  22.1448541  27.2580504
  54.8736715  54.6729755   2.0965727  55.1426697  53.8810158   2.5620511
  53.9538336  54.7897339   2.3342632  65.6703186  79.6043682  29.7093964
  66.5537453  79.6395111  30.0762057  65.1891470  80.2864265  30.1779008
  59.4705009  70.5538416  31.7534399  60.0067806  69.7647047  31.8302488
  58.5720873  70.2452850  31.8712306  42.3025942 103.4471512  17.2458696
  41.7102957 103.6060810  17.9808235  42.6062870 102.5483513  17.3730266
  30.3775865  45.6342782  89.5177408  30.0584107  45.8658494  90.3899391
  31.2715274  45.3249635  89.6641435  64.9925900  60.8759212  35.1213861
  65.2068758  61.0377455  36.0401511  64.0871906  61.1730003  35.0306988
  75.1323032  66.5460682  17.3812127  75.4335260  67.2313452  17.9777801
  74.4180536  66.9526434  16.8905210 110.1461380 106.8581534  92.3288794
 110.9988706 107.2318602  92.5511833 109.8014276 107.4361516  91.6482003
  77.9010582  98.8902950  42.2554016  77.4319410  98.3033943  42.8484488
  77.5064230  98.7301445  41.3981676  62.3448896  64.8152876  21.0914040
  62.3911238  63.9025545  21.3760376  63.2238865  65.0095272  20.7660294
  28.7676191  63.1802082  20.1543307  28.0440688  63.4060907  20.7388687
  29.3601942  62.6597500  20.6967449  34.2657351  65.7315636   8.6408859
  33.4094477  65.4302597   8.9445585  34.8447633  65.6043148   9.3923962
 116.5054595   0.4262914  86.2813147 116.0874497  -0.3830205  85.9871866
 116.9596516   0.7566776  85.5062093  67.3753500  44.5308113  37.8137469
  68.1699562  44.5764971  38.3454847  66.6778660  44.8249578  38.3996081
  77.1930742  24.9849033   5.6501889  76.8951368  24.0837812   5.5259097
  77.9382753  24.9107170   6.2463462  60.3346252  86.0912609  16.0007060
  61.1343861  86.5159512  15.6904674  59.7415257  86.1198902  15.2499402
  85.1933783   0.4544295  35.9056139  84.7466439   0.9897364  35.2497864
  84.4890708   0.1148356  36.4577532  26.7288762  34.7997560  84.2654570
  26.6383153  34.9950875  85.1981302  27.2723847  35.5097284  83.9237328
  34.9829865  92.3869038  47.8641558  35.7720804  92.8883839  47.6590204
  34.4153833  92.5117493  47.1035814  68.6550856  46.0033321  20.7994819
  68.5548162  45.0545073  20.7226181  68.5409832  46.3293314  19.9067688
  89.2876625  64.3570423   8.7259251  88.3957481  64.1677856   9.0172988
  89.2752361  64.1791296   7.7854872  50.3075886  89.6255398  18.3486652
  50.7354927  90.4300976  18.0557179  50.5433035  89.5519543  19.2734659
  28.8846540 103.1959820  12.0408559  28.1512260 102.5811577  12.0233035
  28.8314795 103.6562061  11.2032449  85.5065250  70.8578300   6.2278384
  86.4551067  70.9755516   6.2784970  85.1956654  71.0329819   7.1160501
  50.7553768  36.6368461  26.9502711  49.9457026  36.8692040  27.4048781
  51.2803364  36.1857939  27.6114845  64.5459747  74.4728518  51.0085249
  64.8702621  73.6918926  51.4570475  64.7522068  75.1937580  51.6035032
  40.1254034  64.6887064   5.9138697  40.2525139  63.8289881   6.3150632
  41.0117626  65.0265312   5.7855183  42.4857426  78.5599899   9.6284503
  43.1514454  78.5826921  10.3158784  41.8605137  77.8974390   9.9222994
   6.5100235  47.9533052  13.5310125   5.7149452  48.3896589  13.8370740
   6.2821430  47.0237589  13.5152197  61.0902786  70.1116180  36.0870910
  61.5454102  69.2699671  36.1136413  60.1615000  69.8828983  36.1230278
  90.0005531  27.5973511  24.8438621  90.0548744  27.1692204  25.6982541
  90.9117889  27.7534628  24.5958281  53.7394953  86.1180305  45.1587009
  53.3802223  85.4632854  45.7574272  53.2416439  86.0014153  44.3495178
  92.5461292  38.2825422  26.4342856  92.3645210  37.5639534  25.8285785
  92.8027725  37.8501678  27.2487903  83.1636047  39.9429893  29.7718120
  82.2627449  39.6598315  29.9283147  83.5912704  39.8632932  30.6244445
  80.2544785  44.0470886  11.9745493  79.6914530  44.3273783  12.6961267
  80.1048756  44.6968079  11.2877285  44.6315575  67.9251814  49.3958807
  44.7955084  67.7064037  50.3132057  44.1720676  68.7642622  49.4282007
  88.3046055  44.2590618   3.3624449  88.2943344  44.5193148   2.4413615
  87.4218750  43.9277744   3.5275888  46.9245434  78.9403486  17.3357892
  46.7509985  79.4502211  18.1270814  46.0566378  78.7308645  16.9906950
  47.0559359  69.3767500  40.6649446  47.0068216  68.9944458  39.7887802
  47.9922152  69.5024300  40.8192873  61.7066336  66.9592524   7.0672297
  61.4784288  66.8783522   7.9933023  61.5154457  67.8722048   6.8523097
  86.0124176  84.1045213  76.5397127  85.1455849  84.1462541  76.1358722
  85.9189384  83.4603167  77.2414930  66.1399841  87.3759747  24.3259454
  66.1964226  86.8512154  25.1244926  65.8372450  86.7620754  23.6568332
  35.0658256   6.2107887  83.5996588  34.2677623   6.7296066  83.7004478
  34.7546321   5.3137149  83.4786518  31.6711169   7.8459682  61.7360492
  32.2166949   8.5680236  62.0478316  30.8149177   8.0035867  62.1339388
  96.0184193  75.5770302  20.1958919  96.3186741  75.2208567  19.3596959
  96.6615295  76.2517500  20.4135871  73.1568241  77.1467495  17.4750650
  73.2196903  76.6779852  18.3072555  73.9972210  77.5969410  17.3896754
  68.5518456  43.1848717  17.2462535  67.6652050  43.4922123  17.4350512
  69.1220188  43.8724375  17.5903261  40.3484899   6.5144910  84.4388969
  40.3911239   5.6611003  84.8703356  40.2832442   6.3084592  83.5064145
  62.5372791  68.9626217  41.0957718  61.8884802  68.3628654  40.7275486
  62.1159983  69.8214579  41.0618210  67.7108049  39.7907043  33.6914682
  67.8033829  40.1930046  32.8278613  67.4328661  40.5078888  34.2612314
  76.3501787  91.1142445  34.5656395  76.4705276  91.4519978  35.4531479
  76.5456343  91.8592453  33.9973021  50.2341127  97.6613712  20.0163007
  50.2016211  96.9255829  20.6276798  50.6528330  97.3038578  19.2332983
  97.0794678  91.9653130  11.5327787  96.6839600  91.7260647  10.6945848
  96.3389778  92.2214794  12.0825803  83.0391788  51.1725473  18.5173082
  83.4993362  50.3968716  18.8379610  83.3343315  51.2689066  17.6118636
  83.5262394  86.3562775  22.9552317  82.8451061  86.8855762  23.3701253
  83.0503750  85.6391430  22.5362992  71.6895771  76.5757132   8.3037841
  70.8646774  76.0908651   8.3301198  71.9061613  76.7300224   9.2233014
  81.9867294  51.4049620  95.0000256  82.4052303  50.6424106  95.3995333
  81.3602417  51.7064688  95.6579299  73.8200855  61.3359737  48.2884979
  73.7407398  62.2893763  48.3195353  74.4388247  61.1701584  47.5772333
  56.2104368  74.5474052   4.1136864  56.5808678  73.8361025   3.5911289
  55.8433104  75.1521826   3.4689456  42.1877050  79.2540646  18.9344060
  41.5653324  79.6557951  19.5406210  42.5537395  78.5157013  19.4213104
 103.9634514  92.1878052  25.5894780 104.5959949  92.8275490  25.2625871
 103.1907463  92.3118305  25.0383282  86.1717796  78.8743067  17.4490774
  85.4221249  79.0993977  16.8980920  85.8021641  78.3337021  18.1471944
  56.0315657  85.8057976  20.6511021  56.7461824  86.2550068  20.1997042
  56.4200354  85.5017185  21.4713812  49.9408960  55.6622505  12.1800649
  50.3185415  55.6325054  11.3010120  48.9952803  55.6875467  12.0337749
  49.8408365  42.7334166  28.1601596  50.1148653  43.4540701  27.5928879
  49.2171717  42.2360134  27.6311421  84.8299789  75.5130959  37.1087289
  85.5812740  76.1008358  37.0289922  85.1340961  74.6841431  36.7391658
  64.5282507  62.0179224   9.3217731  64.2849684  61.3223076   9.9326503
  65.3669024  62.3423290   9.6498746  48.5455084  56.1015749  17.3970985
  48.9700270  55.6275654  18.1121695  48.8053513  55.6268835  16.6075552
  54.2363739  54.3225098  38.3946657  54.9528170  54.8301411  38.0135489
  54.2860794  53.4724617  37.9574251  75.1513147  90.9164238   2.3381771
  75.1216412  90.9066391   3.2948670  75.3190565  91.8315411   2.1131039
  85.0137329  61.4184427  31.9464469  85.7969570  60.8714390  31.8867111
  85.3090668  62.2116184  32.3935318  83.5438824  56.5864754   4.5986217
  83.5898399  56.5490055   3.6432603  84.3081570  56.0920811   4.8947519
   5.0487071   8.3502139  76.1638113   4.5678979   9.1658153  76.0229142
   5.8068162   8.6067476  76.6888805  47.5824070  51.2109375  42.9332399
  47.0320415  51.5645695  42.2344732  46.9878435  50.6755352  43.4586620
  19.3660480  19.8540677  81.4221151  18.9429647  20.0884380  82.2481318
  20.2895433  19.7443475  81.6487070  15.4405814  44.0726365  72.8052469
  16.3832313  44.0282335  72.9654689  15.0498086  43.6063184  73.5442110
  87.4921989  60.3247499  31.7170334  88.4391975  60.2735281  31.5874672
  87.3058319  59.6650791  32.3851156  17.5190192   7.4848546  87.1554931
  17.8076345   8.3845176  87.0020838  16.9727689   7.5389756  87.9396542
  56.4686662  19.7054900  78.6545022  56.5095025  18.7493076  78.6714216
  56.8607694  19.9471559  77.8154059   8.7173617  72.2155560  80.2847906
   9.6313917  72.0356954  80.0647254   8.6371290  71.9585920  81.2033566
  90.9193134  38.8860297  14.6728396  91.0102844  37.9361868  14.5969772
  91.7995739  39.2247438  14.5095980 109.6161079  57.5017691  43.3455849
 108.7125015  57.6238823  43.6367941 110.1478481  57.8309631  44.0702391
  68.9614391  49.5038462   3.5490796  69.6240044  49.7634840   2.9088998
  68.4925032  48.7826204   3.1293640  92.7456188  36.6879916   9.3075812
  91.9064522  37.1031427   9.1083735  92.9965305  37.0505977  10.1571655
  65.7629919  31.7635560  21.1984253  65.8144188  31.0182643  21.7968631
  66.2928677  31.5028501  20.4451036  28.0209851  51.0853386  28.7178755
  27.6713848  50.2149773  28.9088988  28.9647007  50.9993124  28.8528967
  51.3952112  60.0866032  28.0863261  51.9457769  60.8075762  28.3917904
  50.5794048  60.1834774  28.5775566  58.1194496  85.1186275  17.1876419
  58.3035278  84.9684906  18.1148982  58.9544487  85.4105949  16.8219078
 105.7064742  26.6054572  45.5832529 106.2594432  26.4234770  46.3430834
 104.9285954  27.0269621  45.9485817  66.1457968  70.8223486  51.5253067
  66.3714647  71.1075163  50.6398773  66.1193991  71.6303968  52.0377493
  71.7947578  74.5191383  37.1385169  71.4435863  75.0523376  37.8516817
  71.6685343  73.6161757  37.4299979  64.6627092 107.5159931  19.1310430
  65.3766298 107.0667267  18.6785984  64.9179697 107.5029564  20.0534868
  84.7123051 103.1164169  14.6086323  84.3394089 102.2909355  14.2991805
  85.5690098 103.1661129  14.1845906 108.1224728 109.5092392  30.6034279
 107.2764683 109.0889454  30.7578969 108.5124779 109.0067768  29.8881221
  79.8787832 103.9724159  53.5656977  79.7628069 104.5805740  52.8356791
  78.9892387 103.7097263  53.8022280  43.4228563  67.8613710  15.4070890
  42.5515318  68.0399132  15.7608545  44.0210581  68.0821323  16.1209881
  28.9888364  49.8713102  74.9573751  28.8535338  50.7605066  75.2848669
  28.8383466  49.9378671  74.0144248  72.0454216  32.7343106  13.8599205
  71.9700241  33.3840752  13.1610978  71.3271952  32.9412413  14.4578838
  20.5872565  26.8340482  93.4572023  21.1031514  26.2748899  94.0380843
  21.1436683  27.5975694  93.3033259  85.0853920  73.2259750  35.7230663
  84.6058083  73.1443977  34.8987007  85.0206566  72.3594713  36.1245775
 113.6691380  76.4547157  17.1584558 114.2721748  76.6368246  17.8791547
 114.1603374  76.6873980  16.3705397 100.4805660 105.0174522   7.8392994
 100.9805393 105.3929615   8.5640419 100.4948330 105.6941795   7.1624947
  74.5302343  76.5958643   8.8574505  73.7552881  76.0999489   8.5933274
  75.1610088  75.9285450   9.1277093  25.5305940  32.1401109  88.9642336
  24.9722987  32.8807344  89.2009022  25.3539449  31.4824380  89.6369113
  42.2117215  37.1457090  92.3229905  41.7458898  37.7673330  92.8822826
  41.6143209  36.4022340  92.2418328  81.1565417   0.6988657  59.2906141
  82.0833033   0.5748213  59.0857935  80.9323043   1.5375269  58.8873816
  93.6585617  96.8916130  20.1814818  94.2814732  96.3369370  20.6510997
  92.9458523  97.0322704  20.8047819  39.7976428  47.7466954  83.7724491
  40.4617768  47.8804006  84.4486721  40.2972299  47.5255670  82.9864808
  88.4648895  98.6259079  31.5547991  88.1725597  99.2486572  30.8892417
  89.4202423  98.6467838  31.4991665  95.9570503  94.6485710  41.5213060
  95.0985718  94.3579674  41.2134171  96.5539742  93.9455223  41.2651157
  59.7240686  51.1514282  20.0409651  59.0613842  51.8393326  20.1031923
  60.1762533  51.1774826  20.8842230  62.2103786  77.3428535  21.2995267
  62.5864363  77.7656078  22.0715952  62.4437046  76.4194059  21.3945770
  22.5566131  28.5462369  92.7373542  23.3843022  28.0837335  92.8686939
  22.5558549  28.7767495  91.8083249  78.1431961  95.3483677  47.9313231
  77.7127361  95.2949524  47.0780468  77.8175211  94.5873356  48.4119463
  92.4918842  83.4199905  22.3263192  92.8371334  84.1682529  22.8133011
  92.2708321  83.7757587  21.4656210  85.0162792  88.7770271   8.7232465
  85.5531120  89.1122723   9.4413352  84.8258018  89.5467186   8.1870365
  56.5363359 100.9326553  23.7306452  56.2951708 100.6711960  22.8419900
  56.0909367 100.3010273  24.2953467  73.9998531  92.2229385  38.8997269
  73.5087252  91.4108753  38.7748909  74.4426966  92.3660088  38.0632758
  97.4925155  24.0349043  22.5063872  97.7993363  23.7313784  21.6520095
  96.6885919  23.5392416  22.6621151 111.1412811  76.8382931   0.8114263
 110.9930038  77.6762056   0.3730813 110.4582882  76.7938805   1.4805856
  98.9878464  28.6697912  37.3755097  98.7827682  27.8535700  36.9194818
  99.8691559  28.5346723  37.7237582  31.3414174  35.4808702  94.3939074
  31.5966874  36.1518754  95.0270073  31.5770179  34.6535100  94.8136787
 111.2638778   0.4884280  21.5808558 110.8054751  -0.2177297  22.0363164
 111.5216845   1.0940016  22.2758698  83.8123035  67.1777344  29.8009777
  84.5650959  66.8482542  30.2918720  83.5967255  68.0094957  30.2227998
  89.3672371 100.1765156  56.4090157  88.7231064  99.8641682  57.0444441
  90.2126122 100.0316429  56.8339634  86.5054035  78.7547588  27.2251987
  85.9707165  78.2839441  26.5859199  87.2853088  79.0187693  26.7370725
 100.0515556  91.2553596  32.1048188 100.5319595  91.7251587  31.4231038
  99.1359043  91.3055229  31.8304157  99.6861267  63.0565643  28.9490795
 100.3212643  62.3436117  28.8818097 100.1733017  63.8370562  28.6850381
  87.9439735  95.3827953  20.7212019  88.1586266  96.2737370  20.4448557
  88.7383938  95.0678062  21.1523819  45.4104614  79.9767351  47.0419121
  46.2354898  79.5097160  47.1740150  45.5737972  80.8540916  47.3880386
  70.8188993  26.1143007  79.7600980  71.6949349  26.0102262  80.1315125
  70.3564817  26.6684999  80.3888066  88.0623722  87.9709339  22.5033021
  88.3236980  87.4330807  23.2507348  87.1205711  87.8222370  22.4188542
  74.5352554  81.1457634  21.8242812  75.4470730  81.2172127  21.5419412
  74.0808439  81.8378448  21.3438964  75.5841684  73.1259060  12.9823327
  76.4353895  73.5268927  12.8066611  75.7828569  72.3808527  13.5494733
  52.3465681  88.5792732  35.2231455  51.6291142  89.0605450  35.6352901
  52.4725580  87.8122997  35.7818198   3.1638461  10.1227416  79.9050601
   3.9255601  10.5090608  80.3372438   3.1921893   9.1981401  80.1511069
  54.4977093  95.8128929  41.9257116  54.1488838  94.9218464  41.9011211
  55.1602125  95.7917690  42.6162720  60.8111143  82.7007294  40.7870007
  60.2152920  81.9873810  40.5581713  61.4933205  82.2835445  41.3130999
  33.1094676  51.7588891  85.6318243  34.0271932  52.0036020  85.5129357
  33.0002338  51.6925611  86.5804549 105.3768253  60.5696249  29.4750929
 105.8529472  60.4117489  28.6598492 106.0005283  60.3420925  30.1646256
  61.4790821  48.9336729  34.6451449  61.2218952  49.8552322  34.6166611
  62.3070145  48.9011383  34.1658735  63.8909674  43.5179853  41.9061565
  64.7542429  43.2110643  41.6290569  63.5329103  42.7940369  42.4198914
  58.1517792  79.2369175   4.1375384  57.5573921  79.2219448   4.8876786
  58.8310385  79.8652029   4.3826807 110.9328193  20.7640112  42.6003504
 110.0546092  20.5541171  42.2826624 110.7881278  21.3964213  43.3041668
  29.6146232  34.0370359  90.8875956  29.3342906  34.7542276  91.4561676
  29.1186839  33.2787694  91.1963274  38.7455487  79.2974329  33.4694815
  38.5194588  78.3763552  33.5988069  39.6606755  79.3601227  33.7430596
  80.9895039  87.6375198  23.5706758  81.1982059  87.6331234  22.6365161
  81.0069752  88.5626793  23.8156438  32.1312696  56.5283765  90.9130411
  32.3363143  56.6456117  89.9854393  31.1779815  56.6017522  90.9587483
 101.2901275 106.9238377  83.7422355 101.7138594 107.7815724  83.7109240
 100.3557842 107.1151591  83.6608000  40.0329494  78.5266256   5.5395126
  39.3040347  78.2731056   4.9732557  40.7778311  78.6167908   4.9451637
 116.5250111  82.2706223  45.4926300 117.2325897  82.3562717  46.1315536
 116.1368084  83.1443501  45.4466009  99.2755890  72.8211737  13.3730829
  98.8028049  72.0787048  13.7491667  99.7275829  72.4566793  12.6121116
  48.1427002  74.3956614   0.7346649  47.5982809  73.7970257   1.2460053
  47.5214529  74.8764515   0.1877452  29.8005801  40.5200662  93.1910119
  29.5365745  41.3837136  92.8737687  30.4376679  40.2125062  92.5462188
 114.3812370  69.7185040   1.4664200 115.1619053  70.1835823   1.7672473
 114.5334435  68.8075113   1.7177312  11.0276646  90.3705215   4.3531173
  10.2051682  90.3943062   3.8640717  11.6503472  90.8392715   3.7974548
  60.2217627  83.2569790  25.8783960  60.1698875  82.6157188  26.5871501
  59.9120092  84.0732574  26.2707949  23.3771258  15.7390441  88.6247327
  23.3136874  16.4670791  88.0065282  23.1280070  14.9687614  88.1140162
  75.0803232  89.8323250  20.5466390  75.5431938  89.0293503  20.3074431
  74.9589491  89.7657299  21.4937735  93.3324528  96.4304924  31.0026383
  93.3213997  95.4885292  31.1723900  93.7070465  96.8125248  31.7963409
  59.8862791  57.0266342   7.5000829  58.9897823  57.1360064   7.8172106
  60.1925468  57.9184294   7.3353738 100.7896709  78.0546379  57.5766802
 101.5655899  77.5676918  57.8542757 100.0617886  77.4515820  57.7274895
  60.8868361  94.1785049  37.5289392  60.1066351  94.1528034  38.0828857
  61.5820694  94.4895744  38.1086969 107.8309917  69.7990274  12.3498416
 107.0731449  69.4833279  11.8576646 107.4861050  69.9950743  13.2209587
  87.8208542  85.1152229  15.3301787  87.1195793  85.7630348  15.2609897
  88.4936905  85.4249287  14.7238684 109.4739151 109.6994019   9.2405778
 108.9529037 108.9316559   9.4758129 109.1267776 110.4020023   9.7901976
 112.3950833   6.2699545   3.3575559 111.9505757   5.6432570   2.7866909
 113.0140561   6.7202795   2.7828240  52.4323988  84.8182583  43.1559706
  51.4899111  84.8956203  43.0077744  52.6724243  83.9885712  42.7433729
  68.4656000  97.5210953  23.3222342  69.3026018  97.3970222  22.8747272
  68.3344412  98.4692574  23.3263445  73.5815859  85.8218384  12.3312950
  73.3593178  85.4963017  13.2035661  74.4482994  86.2144089  12.4358237
  10.8991128  23.6918678  73.8231678   9.9613648  23.7503041  73.6402841
  11.2975627  23.5034694  72.9734774  64.0082550  85.7068729  15.6897652
  64.1869736  84.9039841  15.2002180  64.7536802  85.7962990  16.2835467
  90.2561378 102.0344353  35.7233596  90.2940750 101.8007755  36.6508269
  89.5885563 101.4542770  35.3573179  56.4301014  85.7209873   0.9575877
  57.1246338  85.4673100   1.5654561  55.6478548  85.7934856   1.5044597
 108.3783829   6.0339584  91.1265423 109.2603266   6.1437263  91.4820101
 108.3721720   5.1450624  90.7714872  17.9306775  52.9101075  82.9270645
  17.6828509  53.7241162  82.4886520  18.6106568  53.1701936  83.5485239
  77.8665543  95.4973507  16.7731011  78.0168629  96.1675835  17.4397576
  78.7385368  95.1545334  16.5772593  79.1227293  88.6693382  29.6898437
  79.3943834  87.8724194  29.2344880  79.7838068  88.7932110  30.3709221
  83.1062603  84.8976707  14.4266856  84.0171719  84.6456146  14.2752266
  82.6142597  84.4379902  13.7463486  87.9847050  85.5712128   6.5013361
  87.5744629  85.8464527   5.6814712  88.0945778  86.3819695   6.9981623
  73.2865047  75.0539303  29.3340826  73.3873129  75.2788067  30.2590132
  72.7336502  74.2725325  29.3364525  40.6416130  74.9104738  30.5125213
  39.9196315  74.3567896  30.8098602  40.6808710  75.6185770  31.1553860
  99.5113945 105.5145836   2.1456809 100.0608730 105.1230431   1.4667076
  99.0155125 106.1946869   1.6898434  97.1181488  94.0141869  48.5312891
  97.3805714  94.4589710  49.3372202  96.1664391  93.9374352  48.5990715
  62.3021555  85.2945614  35.9726071  61.4746428  85.6928825  35.7027936
  62.3036814  84.4357872  35.5498481  58.3320332  96.2846470   2.7762070
  57.5838900  96.3443565   3.3703053  58.4318304  95.3472519   2.6102000
 114.1739976   5.7478608  86.6214325 114.0981089   6.6871824  86.4536472
 115.0913440   5.5451526  86.4380838  96.6788673  83.8590050  11.9018626
  96.6776562  84.5781136  12.5336146  97.4095249  84.0562725  11.3158154
 108.5653782  84.5432568  44.5559788 107.7638531  84.9109936  44.1837263
 108.2697392  83.7840652  45.0584316  69.8388720  99.8482609  25.5971313
  70.3615522  99.0470505  25.6302762  70.3882790 100.5101776  26.0169482
  50.8539343  91.3075161  25.5812383  50.0395489  91.7321587  25.8508444
  51.3538265  91.2116432  26.3918829  80.5314225   8.1814326  38.8310361
  81.3094539   8.3088625  39.3738580  80.7770270   8.5311926  37.9745460
  48.5174990  86.5611362  25.9034944  48.9637232  85.8361721  25.4658389
  49.2039442  87.2122574  26.0486412  73.8143063  92.8493309  21.8365169
  73.9044046  91.9233036  22.0614457  74.6271086  93.2506657  22.1439457
  77.2469997  84.3228245   7.8258938  76.5978956  84.5861626   8.4782380
  76.7285919  83.9969730   7.0901585  99.0569687  75.1017666  20.2086663
  99.7774887  74.7339964  19.6969688  99.3754292  75.9600496  20.4882503
   6.3858647  87.4970722  33.3945823   5.5406040  87.8193188  33.7075186
   6.4954991  87.9066181  32.5363946  84.4460869 106.0234165  20.3844023
  84.6383190 105.4511261  19.6415925  84.5194626 106.9093513  20.0294805
  52.4623966  58.8155031  19.8825407  51.9199562  58.8176155  19.0938795
  51.8428135  58.9495468  20.5997443  29.6069241  70.1605511  38.4626126
  29.5207644  69.4084978  39.0484619  29.9448228  69.7911501  37.6467705
  32.2847015  25.1430215  91.6553424  32.7972966  24.3898763  91.9490357
  31.6071492  24.7671165  91.0933344  80.1427174  89.7537708  33.1822157
  80.1198769  90.1311111  34.0616059  80.3273582  90.4966640  32.6075387
  43.8936186  53.1594419  30.0981975  43.4916925  52.3459482  30.4030252
  43.3605242  53.4236908  29.3483901  34.5504647  30.9491815  92.8926374
  34.3913203  31.7424192  93.4041779  33.6805087  30.6691541  92.6080395
  60.5052805  94.5667267  25.0916624  60.3403330  94.1884136  24.2280078
  61.4396429  94.4228840  25.2416778  45.5564690  78.0927658  19.9530852
  46.2322903  77.8715277  20.5938244  45.3340101  79.0038681  20.1445079
  85.6874579  11.0140074  21.9349718  86.3122863  11.0015524  22.6599979
  85.8238810  10.1792468  21.4868569  74.1063309  76.2858963  19.8085058
  74.1502190  75.3327227  19.8844695  74.9420214  76.5929127  20.1600623
  79.5913267  81.1064911  22.3960519  78.7085724  81.4394283  22.2343969
  80.1274872  81.5072632  21.7118359  60.7743406  72.2234297  34.0346932
  60.7924271  71.8429089  34.9128222  60.3189039  71.5723896  33.5008788
  82.5484276  96.1779594   8.2066065  82.8382874  96.7794418   7.5207257
  82.3267365  95.3719330   7.7403349  71.6966343  72.2561598  16.4070249
  71.5496206  71.9613647  15.5082965  70.9713554  72.8551483  16.5842831
  68.0555010  90.2757740  27.3916197  68.4711647  91.1351776  27.4615049
  67.1842289  90.3997993  27.7680898  48.2086754  80.4581642  48.2194042
  48.5991621  80.4647732  47.3455000  48.7718868  79.8756266  48.7289953
  62.0966339 103.2019711  54.5108032  62.9874516 102.9606438  54.7646427
  61.9228506 102.6838493  53.7249374 109.4364262  90.8593369  24.7198987
 109.1454506  90.6006908  25.5943489 109.6466923  90.0337696  24.2834949
  15.0003242  43.7842464  29.7981381  15.7789087  43.2281399  29.8261261
  15.0819933  44.3495035  30.5662823  43.8798123  14.8927201  82.6274927
  44.1309720  15.5350484  83.2912453  43.1219655  14.4443311  83.0027767
  50.1815557  76.5412569  47.9436827  49.2983866  76.6312647  48.3016539
  50.7244730  76.3163471  48.6992550 110.6164265  64.1576815   1.7021777
 111.4899921  64.5348454   1.8064421 110.3972054  64.3116140   0.7832228
  58.0322075  75.9336185  36.4838362  58.4455395  76.4527512  35.7939887
  58.7472200  75.7186413  37.0828104  51.0335445  95.3293228  21.3076043
  51.9211912  95.4251957  20.9624553  50.6717825  94.5806026  20.8334899
  74.0278959  54.3607616  10.9923553  74.2273760  53.8659286  11.7870748
  73.9513016  55.2679443  11.2879622 106.3369083  99.1608238  26.1322379
 105.4852200  99.5976353  26.1246991 106.9085121  99.7588158  26.6138101
  50.0122798  13.8853777  27.9410672  49.3289149  14.5156420  28.1691313
  50.5746043  14.3543948  27.3245883  69.9802065  64.4482803  32.3794532
  70.3985167  65.0856209  31.8006229  69.5209360  64.9802160  33.0293322
 111.6608780 105.7217408  95.1224483 112.4410360 105.8514929  95.6616547
 111.7599266 106.3461066  94.4037079  67.7911758  79.6906471  34.9530721
  67.9860163  79.8690319  35.8730984  68.4775877  80.1501560  34.4694185
  43.9921266  16.3735761  89.3448456  43.1463033  16.3727225  89.7929783
  43.7819654  16.5924157  88.4370060  66.6902208  71.1525297   9.7055137
  66.9649982  70.2390289   9.6264887  65.7859802  71.1046600  10.0158215
  85.0498962  35.0474024  36.0476923  84.2276859  34.7154045  35.6871700
  85.2468109  34.4588971  36.7764711  98.2089233  64.2981195  25.6603646
  98.0239677  63.8189363  26.4680839  98.4536839  63.6202574  25.0304246
  36.9294768  52.7226247  91.9046049  36.4168292  52.0304860  92.3221870
  37.8338796  52.5359525  92.1564709  77.5536489  64.5509243  36.4993596
  77.4404669  64.9199247  35.6234264  77.8963232  63.6704350  36.3458967
  40.1253110  35.3248014  92.9266708  40.1140767  34.5936956  92.3089479
  39.2813378  35.2723779  93.3752130  66.0259962  52.0979452  18.2777452
  65.7246923  52.6976681  18.9602244  66.2379122  51.2900448  18.7453151
  47.2411108  64.7852612  49.6549559  47.7322865  65.2983093  49.0132713
  47.7087545  64.9213409  50.4789877  90.9155750  88.2673836  42.6991177
  90.4033184  88.0634594  41.9166565  90.2640438  88.3623314  43.3939028
  10.5503411  99.9420166   9.3363655  10.9396118  99.1943264   9.7898644
  11.0290283 100.7005692   9.6705633 108.4925270  96.5919018  17.0580578
 107.5715160  96.4167881  16.8649065 108.5379791  97.5417709  17.1671486
   0.4944855  58.0665769  89.9389209   1.2495595  58.3589067  89.4283922
  -0.2632278  58.3989515  89.4576408 102.0001698  50.3347206  21.1239958
 102.0451355  49.6162605  20.4931068 102.8833103  50.3883410  21.4892650
  66.2927771  72.9996920  22.9051566  65.4222631  72.8598595  22.5324821
  66.5157604  72.1631098  23.3133698  62.9792547  63.4046984  26.5852547
  62.3572588  63.1124020  25.9189820  63.1225681  62.6335239  27.1338749
  71.2438822 105.6385231  58.6976719  71.5829802 105.4868317  57.8154993
  72.0201778 105.8344746  59.2222643 111.5126962  13.8988532   5.4607975
 110.7077760  13.6414755   5.9103423 111.4143008  13.5499800   4.5748881
  58.8223600  77.4052238  25.3596592  59.1424751  76.5199375  25.5329370
  58.3505487  77.6494360  26.1558914  93.0035132   0.8867110  35.7675862
  93.2184047   1.7846240  35.5149865  92.6879853   0.9602774  36.6682863
  61.1100054  87.3696518  26.7393970  61.4576292  87.0282841  25.9154677
  61.7771149  87.1505070  27.3899078  80.6845760  74.9513197  26.3641071
  80.7871056  74.9580765  27.3157740  80.2370739  74.1260529  26.1772728
   6.3714451  62.0228195  22.2174740   6.2044377  61.3863659  22.9126453
   7.1607251  62.4847126  22.5001812  52.9348946  88.9469242   8.7042159
  53.5398865  89.1271782   9.4237500  52.0898724  89.2722416   9.0146005
  71.7513066   6.4962281  70.9389325  70.9732419   7.0415773  70.8230229
  71.7943364   6.3376559  71.8819256  79.8077250  57.6623964  31.0364985
  80.7449245  57.4677563  31.0342026  79.3847561  56.8037701  31.0266376
  77.3484230  50.8339930  33.2634735  76.9209957  50.5854130  34.0830731
  76.6658974  51.2818241  32.7636313  73.7045765  68.1445026  26.6713810
  74.3784237  68.3291292  27.3256588  73.6117554  67.1919155  26.6853833
  70.3361654  41.0040236  32.3084116  69.8218775  41.4028978  31.6065311
  70.0898504  41.4931250  33.0934858 102.1800584   1.1649931  28.5873628
 103.0586070   0.8014811  28.6980081 101.6626805   0.4391039  28.2385874
  58.8602066  81.6513157  30.5053973  58.1789637  81.0686207  30.8409715
  59.6617126  81.3567829  30.9379125 103.9603901  68.9620972  13.2346606
 103.7401104  68.0309391  13.2090640 104.9089050  68.9804220  13.3619702
 102.6054573  55.4920292  22.7791119 102.7660179  55.3948259  21.8404937
 101.8793011  54.8954868  22.9609275  95.8956909 102.2225094  34.7854662
  95.4765320 101.8505669  35.5614734  96.5094376 102.8701782  35.1319838
  90.6612492  49.5490742  18.7974799  90.3814316  49.5010185  17.8833532
  90.9653568  50.4499483  18.9078343  63.0139637  83.3822536  25.7295609
  63.1168604  84.1653442  25.1888108  62.1175289  83.4360313  26.0608363
 100.8236694 100.7820892  40.7398605 100.5159855 101.4751720  40.1557398
 101.7781067 100.8460808  40.7055235  33.7689525  14.7599687  82.6271613
  33.9809114  15.6667413  82.4056526  33.4849816  14.7966327  83.5405322
  51.2334251  83.5112381   1.6875820  52.0551777  83.8097572   1.2979153
  50.9209538  82.8284740   1.0939181  67.8232861  94.9775410  15.0507188
  67.0188618  94.8795605  15.5601621  68.4356976  94.3588543  15.4487181
  49.3504333  53.4773540  23.0882907  48.7864017  52.9981947  23.6953378
  50.2395153  53.2932472  23.3913851  33.0737424  82.8477287  35.2044725
  33.0669141  82.9412174  36.1570716  33.1910110  81.9092941  35.0567508
  14.2118973  60.5684948  16.3031507  13.3827633  60.7499981  15.8606386
  14.8676152  60.6027412  15.6066632  68.5914135  82.0491791  25.9057260
  67.8262424  81.5684891  25.5900073  68.8041449  81.6374111  26.7432356
  49.5481205  63.5749006  36.6581655  49.8534918  63.7587976  35.7698178
  48.6073303  63.4268141  36.5621877  68.9027500  67.5858545  21.4862990
  68.2458878  68.0577898  21.9982004  69.7052002  68.0955410  21.5982342
  42.1930647  29.8521662  32.5596881  41.9014692  30.6058383  32.0466733
  42.8339243  30.2129579  33.1723547  71.2360334  93.4002972  38.7905979
  71.1762571  93.0075455  39.6614599  72.1704102  93.3827782  38.5835719
  67.6089859  82.2407055  13.7813306  67.9450750  81.4142418  13.4345746
  68.3763266  82.8111076  13.8266981  45.5755138  82.1625519  40.6833553
  45.2859211  81.2561417  40.7872772  44.9158049  82.6792908  41.1459494
  66.5121126  81.0754395  23.8352847  65.8983469  81.8026733  23.9385152
  66.4022064  80.5545139  24.6307635  68.6166286  68.7631941  24.9345851
  68.2380009  68.0288029  25.4178500  69.4201660  68.4098864  24.5528364
  67.9152918  71.5440893  30.5048728  68.4513187  72.2969103  30.7542086
  67.1778870  71.5625620  31.1148930  13.1969768  16.9102802  90.4154094
  13.0370933  16.9143428  91.3591533  13.7922269  17.6456775  90.2701618
  83.0082512  79.7022057  11.4097786  83.3133125  79.9187756  10.5287206
  82.1720219  80.1604843  11.4930904  94.5433807  81.1061478  21.1580420
  93.8035965  81.6921329  21.3179708  95.3146553  81.6679573  21.2337589
 104.8880959  81.7129230  14.2137086 104.2047119  81.2886810  13.6948299
 104.7118568  81.4370728  15.1131976  59.9236917  75.7143259   0.2227788
  59.3876886  74.9239731   0.1574221  59.6112394  76.1507607   1.0153255
  69.4601536  89.7630215  18.8157380  69.2351294  89.0253067  18.2488358
  70.4130554  89.7213268  18.8961589  47.9427033  26.2222470  85.1262362
  48.7286454  25.8819284  84.6987923  48.2349473  27.0223226  85.5629344
  77.3338366 108.5429859  20.1139903  77.6533413 107.6574612  20.2871728
  76.4418697 108.4167767  19.7904098  68.1436062  87.5199318  33.3939028
  67.3440552  87.9118252  33.7451386  68.8531637  87.9921627  33.8295269
  54.4189119  72.0246363  31.6427255  54.8178625  72.4906826  32.3774815
  55.0539017  71.3448429  31.4171100  25.5935168  70.3309727  27.7776051
  25.3227711  69.4161701  27.8554964  25.0503349  70.6822729  27.0720744
  84.0282440  77.4191761  12.4081898  84.1732788  77.1000910  11.5174699
  83.8902187  78.3608198  12.3057771 107.8083199   4.3896903  24.1938400
 108.5600394   4.9780119  24.1229558 107.8732222   3.8243426  23.4241605
  97.4406976  14.6960009  15.3698802  96.8352717  14.8220671  14.6392643
  97.1386212  13.8936366  15.7955456  80.5237293  74.1347456  32.6608849
  80.0510788  74.9552393  32.5207686  79.9786663  73.4695673  32.2405529
  52.5005895  35.1949777  94.1419506  52.4537736  34.2497815  93.9982276
  51.9174272  35.5670156  93.4803404  69.2943811 107.4901772  54.1134405
  68.4597731 107.4797344  53.6448717  69.4864464 106.5675735  54.2811823
  46.9396353  99.7033310  40.9734726  46.7429209  98.9472771  40.4203796
  47.8949356  99.7146893  41.0326958  83.8926029  83.5728550  35.5179262
  84.1087246  84.3159199  34.9545598  84.3869400  83.7304020  36.3223147
  74.2784309 105.6629086  38.4784746  74.0872049 105.3016090  37.6129580
  73.6972952 105.1858807  39.0708899 115.8349037  86.9158173  37.7350235
 114.8830509  86.9524384  37.6409101 116.0661030  86.0213470  37.4846411
 112.1765489   3.0645979  34.7654891 111.8921918   2.8977240  35.6641102
 111.8162555   3.9264048  34.5563936  76.1951590  93.6753941  15.7263172
  76.7690802  94.3437958  16.1006010  76.6068602  93.4453106  14.8933733
  63.6662483  81.7181206  17.1187413  63.2568550  82.2393513  17.8093517
  63.0090857  81.6830730  16.4236581  37.3838168  21.8670263  80.6344088
  37.7345019  21.9312991  81.5227337  37.7050429  21.0255613  80.3103979
 115.6535356 103.7007333  91.5550544 114.9692266 103.0372239  91.6428496
 116.3780563 103.3692218  92.0855259  62.8131914 104.2759609   6.1250198
  63.5972977 104.1402340   5.5930555  62.4177980 103.4070492   6.1948913
  37.8628379  54.2050447  76.0144968  36.9846231  53.8270463  75.9687706
  38.2271272  53.8662709  76.8322726  71.3871956  83.3861542  21.1881256
  70.8065414  82.7146626  20.8301115  71.8370819  83.7460899  20.4237413
   3.7557155  66.6585912  91.1996399   3.0456620  67.2663202  90.9929426
   4.2192870  66.5409650  90.3704854  97.7723026  99.5733929   6.0685813
  97.1159840  99.2714310   5.4406518  97.3898220 100.3614330   6.4545035
  53.8149911  40.1529969  87.3731955  53.2898027  40.3724755  88.1427659
  53.5373384  40.7813253  86.7066069  67.3775816  66.6850471  37.3083854
  66.8624783  65.9482622  37.6370907  68.2788897  66.3628340  37.3011041
  92.1973038  65.1520538   5.9146184  92.3581982  65.4510736   5.0196695
  91.5047836  64.4970369   5.8274347  92.0450974 102.7121449  54.3188524
  91.6448307 103.2402039  53.6280775  91.3844490 102.6824665  55.0108719
  32.1623927  55.3440370  87.4546303  32.7367955  55.0042810  88.1408198
  32.6492768  55.2023114  86.6427858  28.5391790  17.8706493  87.9997440
  27.9882318  17.0961131  88.1127925  28.1673890  18.5184802  88.5983439
  86.2272453 109.3442631   8.7623554  85.6231689 108.6034870   8.7116206
  86.7409039 109.1807175   9.5533305   3.6607803   3.9957846  25.1015592
   3.4568942   4.0510405  24.1679597   4.6161617   4.0395583  25.1410723
  51.2738496  56.3394727  81.5652915  52.2170240  56.2377633  81.4375778
  51.0119325  55.5565061  82.0496340  52.4125385  72.1961212  14.2644680
  52.5081730  73.1399012  14.3923795  52.5831890  71.8189383  15.1275122
 112.1361542  98.0045986  22.1706486 112.7344799  97.7638245  21.4633584
 111.9513893  98.9320755  22.0227528  47.8176785  79.6784925  22.0124197
  47.8085804  79.9783516  21.1034441  47.3020601  80.3317547  22.4852991
 100.9816474  39.6497954  10.0796175 100.0506514  39.8490466  10.1784921
 101.1460084  38.9522685  10.7141745  76.9559669 105.5614853   0.2855943
  77.7158546 105.4655075  -0.2885085  76.8861675 106.5043831   0.4349209
  43.0389357  90.3239727  18.7179112  42.7355099  90.8794117  17.9998159
  43.7307215  90.8339596  19.1393220  88.2150364 104.4322109  53.8312864
  87.3201370 104.1446686  53.6504507  88.4853268 103.9123249  54.5881844
  97.7997684  58.7706566  17.4245620  97.7002716  59.3059921  18.2118034
  96.9034195  58.5576820  17.1648836  82.0506954  52.6260328  46.1393547
  81.1538029  52.7055740  45.8145714  82.5982571  52.7570438  45.3652382
  82.9183006 101.6967010   5.3137004  82.0631504 101.9563866   4.9709186
  83.5245132 101.8548870   4.5900166  74.7617769  90.0321102  23.3001328
  75.3313875  90.1515102  24.0600777  73.8821602  90.2183437  23.6285067
  77.0131254  89.9960232  30.8146644  77.4012041  89.2079353  30.4344845
  77.0171595  89.8338413  31.7580152  26.1306119  63.1320238  20.7836032
  25.3731656  63.3583498  20.2438974  25.9516382  62.2417307  21.0862231
  52.9728490  26.1753358  91.1795746  53.6740190  25.8733358  91.7569621
  52.5197202  26.8497934  91.6855587  14.8618472  18.4353770   8.4614259
  14.9755824  19.3011034   8.0692285  14.5059074  17.8970660   7.7544934
  90.4855061  91.2649250  18.7872088  90.5010796  92.0165443  18.1947088
  89.6070766  90.8983612  18.6860490  36.5245563  30.6087674  84.5130499
  35.8470613  31.0463418  85.0285717  36.5969115  29.7375573  84.9029060
 103.7571716  89.5251083  53.8016081 104.0951824  89.9098873  54.6102619
 102.8984356  89.9312210  53.6838055  51.1603403  74.4002295  16.1107779
  50.3926277  74.0650558  16.5739322  51.5620375  75.0139618  16.7257595
  55.0059491  27.7325048  89.4355436  55.2714711  28.5767545  89.0708770
  54.0638047  27.8198137  89.5803560  99.3762398 107.6375675  40.3941536
  99.3308544 108.0689240  41.2474394  98.6485481 108.0118561  39.8975587
  73.0754757 100.3866768  24.9425507  72.9941654 100.0292206  24.0583324
  73.7915707 101.0188007  24.8804379  79.3029261  77.3169422  17.1233106
  78.5674000  77.6663351  17.6264560  79.6675539  76.6281223  17.6790166
  42.5151682  69.0639925  54.9077702  42.9557657  69.6969700  55.4747295
  43.0394888  68.2669783  54.9857616  79.8177242 102.5440884   4.1020140
  79.1771889 101.9563770   3.7013373  79.6495295 102.4767113   5.0419086
  72.1311235  90.0433540   7.4478728  71.5561438  89.7771263   6.7304075
  72.7673817  89.3320179   7.5214601  94.7212505  84.8833275  17.6441705
  94.1045952  85.5365086  17.9747951  94.4961262  84.0812111  18.1155145
  81.3275051 101.9224548  31.0395694  81.5375710 101.1584949  30.5024743
  82.0185184 102.5536728  30.8388543  80.2211743  14.9653234  70.5880685
  79.3512803  15.1871194  70.2559205  80.6246358  15.8104696  70.7859941
  68.2672644  94.9428082  29.3638396  67.6050472  94.3538857  29.0020847
  68.2861280  95.6832886  28.7575674  58.3303213  91.1346245  40.1161623
  58.2853222  91.7534733  39.3873024  57.4177265  90.9067535  40.2935743
  42.5884151  86.9956303  21.2171412  42.2412252  86.9534111  20.3261280
  43.2646513  86.3186741  21.2430215 111.8704224  51.1753225  27.6449084
 111.4457512  51.9846392  27.9293156 111.4862156  50.9916973  26.7876458
  98.0845928 109.3221092  27.9384732  98.3066368 108.9554501  28.7943316
  97.7464867 108.5783768  27.4396992 109.0904331  95.4834747  24.5528603
 109.2070293  95.8327103  23.6693048 108.1947613  95.7244492  24.7893834
  88.6665058 103.8420677  11.8240392  89.1699505 104.0919971  11.0492384
  89.2001724 103.1715012  12.2503865  89.3406945  53.7153520  73.0461712
  89.7285920  52.8707780  72.8171058  89.6742993  53.9020051  73.9237257
  65.6870842 108.5701370   6.0530370  65.5761671 109.2281532   6.7392927
  64.9105310 108.6658764   5.5016476 103.5989285  62.6535368   8.5671467
 104.2548561  62.4109459   9.2207032 103.8255692  63.5505915   8.3218700
  47.6389581  16.8888559  94.5790819  47.3590833  16.2587489  93.9151056
  47.2129613  16.5938415  95.3838953  73.3336067  83.9624691  14.6985173
  72.8326654  84.4954872  15.3159237  74.2457819  84.2046928  14.8581719
  90.5926800 110.2462387  30.5056381  89.8924828 109.9707127  31.0972857
  91.3943386 109.9214554  30.9156346   2.3014492 104.9607372  18.4932840
   1.9082112 105.5662632  19.1217244   2.8161759 104.3586636  19.0306795
  21.1617721  15.1016177  38.3669114  21.9513858  15.3325022  38.8562202
  21.4879096  14.7353114  37.5449133  83.1036472  71.4299297  27.9620409
  83.2730103  72.3690605  28.0367470  82.3059368  71.2890959  28.4719992
  63.4468699  99.7781849  20.0109887  64.1186619  99.1071033  20.1317334
  63.2406712 100.0729942  20.8980083 115.8741474  99.6737576  17.9542756
 115.5287552  99.7209454  18.8457429 116.3165092  98.8259029  17.9133642
  70.5340147  75.9726238  39.1044760  71.0257912  76.5367126  39.7012949
  69.7621393  76.4876556  38.8695765  81.7278099  82.1219158   4.6743831
  82.4765396  82.6829910   4.8764434  81.1826038  82.1578121   5.4603189
  79.9517536  62.0286322  25.4229569  79.6448326  61.1226130  25.3888559
  79.8424673  62.2842216  26.3389063  60.3154993  74.0601206  29.0223908
  60.0570869  73.2508421  28.5813475  59.9769640  73.9662552  29.9127936
 101.0377407 100.8470345  79.6746016 100.2747250 100.7924747  79.0992165
 101.1210537 101.7794895  79.8741436  89.8807335  97.0859432  19.7667670
  90.4128933  97.1945763  20.5549550  90.5081463  96.8436241  19.0856886
  89.4228840  49.8530149  30.0424933  89.8038960  49.2135334  30.6442642
  88.5352707  49.5323229  29.8827124  36.7953658 108.2404327   9.3099934
  36.6068506 107.5861073   8.6372751  37.7021933 108.4988499   9.1453248
 107.2779483  11.4180125  20.9485149 107.1994561  10.5585326  21.3624787
 107.4896306  12.0121993  21.6684937  65.9879303 104.3393707  30.8649254
  66.1115217 103.8476181  31.6767979  65.1423454 104.0406227  30.5303121
  78.9948130  52.4695253  31.7213726  79.2397881  51.8291140  31.0534763
  78.4283161  51.9847775  32.3216510  76.4114553  59.8070039  83.5993321
  76.1655789  60.3189935  82.8288515  76.4294797  60.4434575  84.3140610
   1.8581814  87.2560501  34.3243575   1.6324181  87.5512028  35.2064848
   1.6898770  86.3138390  34.3366528  55.5148870  55.4576005  89.7089316
  54.6061116  55.6734933  89.9181040  55.5440122  54.5010080  89.7267570
  27.1535266   3.5149134  40.2530336  27.4721397   3.0828227  41.0455036
  26.7265189   2.8176917  39.7552514 104.1495132  82.4549198  20.5041862
 103.7966633  81.5805340  20.6690407 104.5149899  82.7282715  21.3455772
  62.8109169  74.8454046  22.4098730  63.3641672  74.5325708  23.1256104
  62.8588963  74.1535807  21.7500925  89.0128994  73.4559631  41.8748569
  89.5826626  72.6997089  41.7345572  89.0378284  73.9319038  41.0447407
 108.8295746  84.6023560  28.8272929 107.9418182  84.9585056  28.7913537
 108.7056828  83.6646461  28.9742064 115.0918865  76.3970661  19.3815494
 115.3178978  75.4682922  19.4317877 115.8067989  76.8424749  19.8362386
  73.6649132 103.5434532   5.2096170  73.2536650 102.9470348   4.5840064
  74.5997620 103.3469963   5.1488477 110.3188896  97.0425987   8.3968115
 110.1168919  96.8831348   7.4748576 111.2547588  97.2433567   8.4057069
   6.4047587 110.2943040  93.9369741   7.2798693 110.6810809  93.9086436
   6.5587103 109.3661023  94.1129616 115.9819573  19.8465289  13.7621677
 116.3249892  19.0505827  14.1684175 115.4792565  20.2723444  14.4565797
 104.3950051   8.7646330  18.9577353 104.0671987   8.7180842  18.0596232
 104.9790305   8.0106104  19.0389240  60.3906155  92.9057026  18.8159645
  60.2453661  93.7796497  19.1783965  60.2651739  93.0135155  17.8731632
   6.3337273  58.3165169   5.6398624   7.2641510  58.3983660   5.4304892
   6.0747189  57.4786425   5.2563071  82.6841736  78.3447647  18.0405200
  82.3139000  79.1826820  18.3180535  82.2236061  78.1368971  17.2275639
   1.3524479  95.8885002  40.1458073   1.7979378  96.4546013  39.5154953
   1.9297261  95.1303959  40.2366543  16.4745599  64.3507089  91.5698038
  16.1737948  63.7110223  90.9243803  15.7591706  64.4062413  92.2033407
  85.8273029  98.7056160   8.8866985  86.7280388  98.9987564   8.7489742
  85.3170967  99.5140457   8.9352632 113.0461121  73.1656170  21.0426927
 112.8927612  72.9031038  21.9503284 112.7674198  74.0806818  21.0076785
  36.3597263  15.4893054  51.7072773  36.9204772  14.7428835  51.4959860
  35.4773391  15.1209868  51.7516851  86.3533497  87.3261642  14.9161470
  85.8465576  86.8253231  14.2769647  86.2157917  88.2402515  14.6676421
  81.6694164  91.7482281   2.6539207  82.4519348  91.4995670   2.1619326
  81.5341473  91.0274410   3.2690638  86.6626549  72.6622009  26.5872288
  86.2842178  72.9837036  27.4055481  87.1127129  73.4214926  26.2168884
  28.7884677  16.9920290  44.3444061  29.5699847  16.6766013  43.8905716
  28.2007278  16.2367285  44.3624115  53.7008572  74.5778799   5.4302526
  54.5725060  74.6689653   5.0453329  53.5218334  75.4323959   5.8226621
  95.7895726   6.0789431  13.3161175  96.2136382   6.3938464  14.1143870
  96.0454768   5.1585425  13.2560587   1.8799985  10.2497424  38.1760097
   1.0242761  10.4769457  38.5398102   2.4340690  10.1006831  38.9421844
 116.1081028  92.6665783   7.8914279 116.9357681  92.1872425   7.9293120
 115.8007717  92.6858425   8.7977457  25.6112159   4.3872584  20.1706195
  25.2651656   3.7241209  20.7678890  26.4771426   4.0607871  19.9260116
 104.9765015 104.8856640  53.9411259 104.4922066 104.6084118  53.1634235
 104.6822262 105.7826519  54.0993881 105.5535716  10.4556120  42.4434280
 104.7887057  10.0465907  42.0385647 106.2463635   9.7999896  42.3632193
  48.4192908   6.7728652  87.9941654  48.9041579   6.9640959  88.7970257
  47.8845561   6.0098017  88.2133007  37.5182533  40.6923103  18.9108467
  37.3322797  40.5552959  19.8397553  37.4951720  39.8144698  18.5299361
  27.8114062  84.9516593  12.6282704  27.6838714  84.1185700  13.0820668
  27.3287326  85.5880724  13.1557536  16.4561045  92.9072905  91.1836638
  16.2935126  93.8280893  91.3884206  16.5931570  92.8931452  90.2364321
  69.2045539  89.1336442  90.8135162  69.5114272  88.3398104  90.3754659
  68.5013454  89.4603182  90.2522548  84.8120802  95.8853627  89.7784235
  84.2789429  96.6319943  89.5054157  84.2066877  95.1439429  89.7727539
  60.0284481  33.3748317   1.7734228  60.3410482  33.0121565   2.6022652
  60.8052683  33.3996511   1.2147012  58.8214588  30.4879999  29.6236014
  59.1617298  31.2532210  29.1600490  59.5825148  30.1238799  30.0757527
  36.1844897  84.3451881   2.6804313  37.0817685  84.2079544   2.9842183
  35.6539679  83.7719536   3.2337725  69.5855229  86.2804199  84.6106370
  69.2901628  87.1058226  84.2263098  70.0571888  85.8417583  83.9025851
  87.4056149  43.1766796  17.5663304  88.2655430  42.9256105  17.9035580
  87.0110416  43.6876297  18.2730639  51.0039234   2.4594529  36.3192773
  50.4267073   2.2565767  35.5831409  51.6126299   1.7216863  36.3567424
  70.6925821  25.9332538  13.7323320  71.3808203  25.8588862  13.0712485
  70.9442472  26.6942883  14.2555165  57.7389431  11.0229993   1.2663542
  58.0537987  11.7372870   0.7123786  56.8106556  10.9415269   1.0475484
  54.1221094  46.1989689  25.6599593  53.7102795  47.0104790  25.9567380
  54.9436188  46.4805746  25.2574086  39.8695970  15.5781984  23.9711738
  40.6576109  16.1098945  24.0832639  39.1509128  16.2103784  23.9796185
  15.5551374  43.5553551  47.2802830  15.5282295  43.3425856  46.3474178
  16.3154864  44.1293478  47.3731947  97.1549511  29.3885541  11.4318371
  96.3998508  28.8037801  11.3678300  97.4968147  29.2426133  12.3139143
  55.6518030  19.4608152  17.2728300  55.6046200  19.9552464  18.0910861
  54.7603655  19.1406763  17.1346867  64.4786501  33.4686446  19.3715763
  64.6020222  32.9441023  18.5804605  64.8833370  32.9510450  20.0676727
 107.8916823 108.1529110  27.5121236 107.7193605 108.0467196  26.5765715
 108.0121147 107.2603672  27.8363037  34.6954751  60.5609274   4.9895748
  34.1199684  60.6563616   4.2306840  34.4028091  61.2386894   5.5988508
  65.6154108  12.1675193  27.6216173  66.2091827  12.3843753  28.3403921
  64.9226379  12.8257751  27.6763558  39.6160603  60.5022430  12.4984276
  38.6829662  60.6280518  12.3259711  39.6452689  59.8306322  13.1798351
  11.7973596 105.1040887  40.6629229  12.1609860 105.4161837  41.4915419
  11.8863708 104.1520010  40.7057810  22.2835374   6.3459718  31.6504860
  21.3284469   6.3712037  31.5921807  22.5229764   7.1928865  32.0268297
  36.9763732  34.4404078   7.8743404  36.6296506  33.5671544   7.6914680
  36.8931437  34.9098134   7.0443022   8.9610094  37.5116420  17.4728715
   9.3387884  38.3727574  17.6517439   8.1235325  37.5165343  17.9363799
  62.6588631  22.2296524   9.4772071  61.9463062  21.6796088   9.8026979
  62.7195883  22.0167279   8.5459667  25.6486011  27.9762340  30.6953311
  25.5034447  27.5861597  29.8333549  26.6002131  28.0499434  30.7676959
  67.8682137  65.7183981   9.2440546  68.3354950  66.3654518   8.7156558
  67.9876328  64.8934984   8.7734044  79.7391796  22.6093602  27.5536036
  79.6196985  23.3476782  26.9562411  79.0947294  22.7549386  28.2462239
  76.5899563  16.4952731  10.7646894  76.5284109  16.0584521  11.6141784
  75.7190418  16.3952947  10.3803051  58.6335087  30.7641554   7.7215314
  57.8514385  31.3144422   7.6792794  58.2951498  29.8743057   7.8210998
  25.5660939  17.6276946  33.2964969  24.7836041  17.0764482  33.3049560
  26.2074828  17.1410894  33.8142467 105.1376217  64.0161759  95.1525134
 104.2460220  64.2896629  95.3681220 105.5906265  64.8296732  94.9306023
  33.7268662  23.1957984  44.8647785  34.0293622  24.0316153  44.5096159
  34.5261097  22.7543283  45.1520872  28.4111667  55.9565115  11.7901123
  29.1481876  56.5191174  11.5524042  27.7993417  56.0415697  11.0589027
  60.3555632  88.2962036  10.8926105  61.1127663  88.2169914  10.3124356
  59.6118212  88.4120083  10.3012824  14.9064666   3.9504661  76.3423081
  15.0033885   3.8686313  77.2910662  15.1337415   3.0848397  76.0027869
   2.2754733  35.8714032   4.5051408   2.6598006  36.0141945   5.3700888
   1.7187576  35.1004982   4.6147180   0.4516804  60.5181391  76.8171068
  -0.2484691  60.1101876  77.3266168   1.0798895  59.8121083  76.6651042
  26.6656137   1.5694287  17.9602480  27.2992778   2.2834218  17.8901458
  26.8425703   1.1751401  18.8143289  37.1261048  52.9442930  26.8959332
  36.4491677  52.3421240  27.2047758  36.9655371  53.0232430  25.9556055
  56.9773960   7.8042364  17.5325561  56.5177631   7.7131039  18.3672202
  57.7547264   8.3218569  17.7424586  53.9754820  36.0914826  40.4613543
  54.2328072  35.1703835  40.4214907  54.2936802  36.4648509  39.6394205
  37.8531098   8.0087119   8.5101891  37.8829122   8.7737715   7.9357088
  37.2848582   7.3883414   8.0536139  53.6944628   1.4077556  11.9311321
  53.0438900   1.3794862  12.6326931  54.3632841   2.0142813  12.2489965
   4.4281107  38.1103897  38.9262795   5.0018853  38.1980801  39.6874118
   4.3522730  37.1658278  38.7910628  53.6679220  34.8672414   7.6759541
  53.2903051  34.5596242   6.8519330  53.0614662  35.5425191   7.9799998
  37.3970539  78.1435967  76.8964453  37.1659606  78.7503935  77.5997420
  37.3606992  77.2786356  77.3047991  47.8473168 106.6209497  41.5656710
  47.7233964 107.5646969  41.6667509  46.9627076 106.2575432  41.6060781
  38.7485480  21.6616654   6.8769211  39.0859461  21.0126710   7.4943352
  38.4173799  21.1443496   6.1427927  37.9053879  18.0197144   6.1954701
  38.2111955  18.5612667   5.4678464  37.0370650  17.7220702   5.9240812
  61.4815331  20.6279469  12.6541150  60.7861805  19.9973845  12.8414953
  61.1594963  21.4539170  13.0150867  51.9713116  26.9465995  17.8918612
  52.2371960  27.7965832  18.2426679  51.6150188  26.4770532  18.6460578
  99.7506445  77.6149870  79.0429016  99.3515556  77.4307037  78.1926079
 100.3825634  78.3115864  78.8649614  52.7442217  37.1236730  16.1618960
  52.6645708  38.0398774  15.8964562  52.7092886  36.6325855  15.3410172
  30.7138616   3.2468881  93.7189385  29.9160415   3.3391227  93.1981559
  31.0063821   4.1456546  93.8702047  49.0758228  38.3527994   0.4641715
  48.2605839  38.4942198  -0.0170927  49.7572708  38.3734798  -0.2077183
 108.6885994  76.4823652  95.2446806 109.4045990  77.1068717  95.1281829
 108.6553924  75.9993029  94.4189806  91.6803186  82.9442764  70.0860472
  91.4996450  83.6779237  69.4983836  91.8512600  82.2057367  69.5016094
  87.1269798  29.1206002  14.7393572  87.2021103  28.5285378  15.4877222
  87.1174812  29.9959636  15.1265001  50.4330349  11.2550378  26.8113136
  49.5610714  10.9630275  27.0770884  50.2745867  12.0501351  26.3024473
  46.5036488   2.4806251  36.2904048  46.9687223   3.0273545  36.9236708
  46.8170404   2.7823129  35.4377604   2.5341445   1.4019098  69.6751662
   2.0576745   1.5278997  70.4957386   3.2955247   1.9772281  69.7495409
  47.5025606  19.5875072  34.5467925  47.5123024  20.3514695  35.1234174
  48.3915806  19.2365944  34.5990992  66.4736032  20.0109291   4.2811459
  66.1414051  20.6405091   3.6412191  66.9555521  19.3699288   3.7585813
   7.2652018 100.7879115  85.0285848   7.1274531 100.3444005  84.1915925
   7.5160181 101.6799355  84.7885461  88.0418127  92.2156049  87.0138623
  88.8243692  91.9682050  87.5064393  87.4460094  92.5708891  87.6734252
   4.2836886  89.7763192  28.0689049   4.0531856  90.7025396  28.1411219
   3.5642272  89.3160521  28.5010552  54.7153568  26.5562057  19.6416903
  55.6095600  26.2159204  19.6705747  54.2263842  25.9961891  20.2446127
  58.7413006  81.1412717  80.4880317  59.3414944  81.4902998  81.1469539
  58.2656269  80.4455806  80.9418817  85.3952663  91.0740805  93.7682377
  85.6302946  91.9981576  93.6840941  86.1115187  90.6898475  94.2737866
  36.5842700  23.5059667   7.3264992  37.4302197  23.8357353   7.0234275
  36.8021536  22.7402925   7.8580087  75.3723812  14.6750450  43.0901241
  75.3294849  14.7640371  44.0422153  74.8601103  15.4119897  42.7573681
  33.9074588  54.5729971  27.1444035  34.2661929  53.6856794  27.1585917
  33.9470005  54.8326397  26.2239385  78.8164275  94.8779894  86.4384236
  79.5505731  94.2641855  86.4609231  78.6481827  95.0839735  87.3579319
  60.1104593  19.2419505  23.9472842  60.9255981  19.3508267  24.4371057
  60.3738976  19.2966413  23.0286765  53.3329391  14.0473735  20.2700496
  53.5994387  13.4030962  20.9258819  52.3790073  14.0812588  20.3413987
  11.7031252  55.8425269  94.4693812  11.0668528  55.4536241  93.8692594
  11.1850512  56.4290003  95.0206312  38.1836486  41.2259483  32.0369935
  37.3087788  41.2126493  31.6488433  38.2104826  42.0403433  32.5392556
  79.1308737  22.0988035   8.7229037  78.2999039  22.3326564   9.1364652
  78.9070559  21.3902783   8.1194729  39.2084455   3.8625789  23.9053392
  39.8542738   4.0836462  23.2343197  39.3561292   2.9337010  24.0831232
  70.5831051  50.2340317   1.3916948  70.3729153  50.2028942   0.4583766
  71.5372372  50.3051567   1.4200868 102.0525043  91.2999893  81.5844853
 101.4105051  92.0073701  81.5237947 101.6737287  90.5878998  81.0690351
  95.8383005  82.5293303  39.1447683  95.8735865  83.3091140  38.5907598
  96.1941307  81.8298555  38.5967250  47.4426270  56.1861134   8.4905761
  47.1958351  56.8357086   7.8322816  47.2779036  55.3429174   8.0685401
  89.5178127  10.9962296  37.2124600  90.4621601  10.9906387  37.0561981
  89.4023895  10.4661238  38.0010653  63.4623957  37.9881430  28.1560636
  63.2479620  37.0614052  28.2628751  64.0148592  38.1945872  28.9099860
  59.6144199  48.3751249   1.3719100  60.0086451  48.2761621   2.2385272
  59.2104340  49.2427063   1.3902101  49.5817804  50.3389740   3.1710812
  49.8117447  49.7924662   2.4196330  48.6260653  50.3026724   3.2101002
   5.8154165  86.5835953  84.8006542   5.6023752  87.5156356  84.7543378
   6.0561049  86.4381004  85.7156022 113.6906784  79.7506452  79.3973275
 113.4728067  79.6005822  80.3172441 114.5872610  80.0853968  79.4150610
  85.6056707  54.4877937  83.2952102  86.2656753  54.3340357  83.9712186
  84.7693079  54.3825624  83.7486978  66.6430967  62.1037532  86.0115291
  65.9310310  62.7428288  85.9836807  67.2825854  62.4299521  85.3783770
  16.6402513  94.1975342  34.6955729  16.4875299  95.1009630  34.9725628
  17.3967105  93.9141952  35.2091074  73.1737423  20.3079319  21.5434313
  72.4444485  19.6883750  21.5660548  72.7650976  21.1519885  21.3515687
  71.4719534  43.1534147  22.6170254  70.7133389  42.6378059  22.8906679
  72.1671247  42.5078011  22.4899340  27.8512430  58.1121254  48.0324364
  27.1488452  57.5656128  48.3848524  27.4847221  58.4859467  47.2310925
  61.3954878  60.6441545   3.3102086  60.6761074  60.5263424   3.9305642
  61.0819435  60.2412415   2.5005293  65.8529949  49.6912622  23.7253165
  65.1091957  49.9282598  23.1713963  66.4228153  49.1765356  23.1538272
  94.7982185  64.8487366  86.9783344  95.2669447  65.2973867  86.2746032
  95.2142542  63.9883972  87.0327284  94.8996036 107.4895955  88.3569129
  94.7294920 107.3452426  89.2877491  95.8067911 107.7931262  88.3234807
  81.0217874  46.1400116  88.9845534  80.4555529  45.3697438  89.0324910
  80.9775274  46.5246654  89.8599477  24.9157310  58.5031605  31.9338536
  25.7829785  58.1736755  31.6981554  25.0763106  59.3889666  32.2591090
  70.2997923  38.8373113  19.0909410  69.5052052  38.9956069  19.6006548
  70.9172487  38.4636903  19.7197354 115.4239576  75.3682471  66.6498991
 115.5236547  75.3925443  65.6982131 114.8100012  74.6511412  66.8081732
  57.0217657  48.0155134  28.9841294  57.9058027  48.3677959  28.8811088
  57.1152353  47.0790577  28.8093519  42.7044678  17.5107718  13.1767130
  43.3984852  16.9354224  13.4984994  42.0935631  17.5825214  13.9101148
  49.1128635  27.4844241   6.8977040  49.9636555  27.3728848   7.3219001
  49.3204975  27.8446603   6.0355258  83.9913940  24.9163818  11.5725946
  84.5600319  25.2489209  12.2670758  84.3651485  24.0653467  11.3439512
  63.7190008  56.4522600   5.2160507  63.1512880  56.8600130   4.5620829
  63.6192751  56.9999790   5.9946978  54.3237543  46.3111067  22.0906711
  53.5829353  45.7111788  22.0040250  54.6295834  46.4451647  21.1936069
  66.8841982   0.3164019   6.4452434  66.8337584   0.4477265   5.4984379
  67.3723459   1.0745037   6.7665291  17.3669302  92.6513887  76.3883682
  16.4297068  92.6115823  76.1979576  17.7627623  92.9705430  75.5773838
  55.2474308  56.9747639   3.8655391  54.4754505  56.4871311   3.5783151
  55.6921768  56.3832474   4.4726121  21.3920236  53.2761669   3.0513281
  20.8227468  52.7416420   3.6048973  21.0656714  53.1326628   2.1629971
   2.1715414  87.7253462  65.7836457   2.1836912  87.1960140  64.9862190
   2.4219572  88.6022568  65.4928704  51.1521339  37.0507169  13.7617481
  52.0877457  36.8574643  13.7024009  51.0184622  37.7769303  13.1526697
  70.2211142  13.9410377  37.7217627  70.6106138  14.3448305  38.4973073
  70.7956457  13.2018304  37.5224733  64.5725614  15.0964536  75.8198579
  64.1502935  15.7751836  76.3463994  63.8710099  14.4762649  75.6212790
  92.3136919  89.0387774  87.5152500  91.5767115  89.0410662  86.9044413
  92.3183172  89.9202753  87.8883077  44.2091542   9.8724307  92.5833200
  44.8399240  10.2613725  93.1891959  44.0384656   9.0014447  92.9417609
  52.2391367  31.5227747   5.5383933  51.7997932  32.0882010   4.9031764
  52.9151630  32.0784116   5.9263277  55.5360508   3.3224776  13.2887483
  56.2093544   3.2976037  13.9686561  55.3948450   4.2550251  13.1255054
  69.7119379  52.5652075  20.2199244  69.2239952  52.9555702  19.4948339
  69.7883129  53.2693529  20.8637977  65.7827806  54.0564060  12.4006438
  66.1650610  54.9317551  12.4627638  65.9341908  53.7927914  11.4930034
 100.1397531  90.2582384  83.4674092 100.1974981  90.5690170  84.3709107
 100.4806440  90.9826112  82.9427119  77.4747181  56.9144106  11.4310777
  76.8201447  57.1284676  12.0958662  77.3639345  55.9758282  11.2793446
 106.5445196  37.2458543  84.9624618 106.7771374  36.4447011  84.4931241
 106.5022909  36.9814004  85.8814342  88.6820698  58.0473423   2.0711574
  89.0009022  58.0019522   2.9725567  88.4822559  57.1397638   1.8417940
  31.6526914  56.2009573   6.3839978  31.9460368  56.9632387   5.8848941
  32.2947502  55.5205297   6.1814880  89.0957849  95.3512431  82.6839729
  88.5153978  94.8072267  83.2163508  88.9833658  96.2350608  83.0339189
   8.1026155  30.5570783  95.7565366   7.6014119  30.7942857  94.9763099
   8.9815408  30.3676118  95.4281641  67.9836798  28.7122321  32.9659414
  67.8703213  28.4524703  32.0516634  67.3434925  29.4116020  33.0973721
 111.1103475  37.1485901   6.8728215 111.4027643  36.5749788   6.1645180
 110.6813156  37.8793097   6.4276105  60.0842362 106.3680138  40.4573870
  59.8470193 106.3678165  39.5300484  60.7313520 107.0685979  40.5389309
  22.9039365  10.2546872  58.2940479  22.3502332   9.5283736  58.5806032
  22.2891599  10.9617223  58.0981417  15.0533753   4.0821590  88.2762595
  15.9404450   4.0465488  87.9183836  15.0440341   4.8732986  88.8149990
  73.9266634  23.8319898   3.3093625  74.2693949  24.4080067   2.6260087
  74.5640850  23.1200242   3.3644107  68.5453653  58.7010002  34.5421863
  68.0283213  59.4278097  34.1948485  69.1367102  59.1086340  35.1749420
 108.4101217  61.7069048  85.4940887 107.7495306  62.0006180  84.8667212
 107.9486864  61.0811598  86.0524364  60.5582619  59.9827766  37.9482055
  60.3872633  60.7061720  38.5512710  61.4523649  59.7078943  38.1513047
  67.1607399  48.4057522  14.0329552  67.1839046  49.1229057  13.3994043
  66.6597652  47.7167034  13.5965300  15.3124201  98.9471293  88.4026982
  14.9414313  99.7628976  88.7390365  14.6506464  98.2840825  88.5992994
  79.1252041  33.7466264  19.8325384  78.6713886  33.2856035  20.5380464
  78.8376236  33.3045602  19.0337229  67.8869963   5.7062519  11.3850617
  68.1458426   5.8469510  12.2957945  67.1286058   6.2768769  11.2607205
  17.9145318  22.8938188  72.1372838  18.3068257  22.7309455  72.9950781
  17.0111114  23.1441154  72.3306985  83.0201547  52.3417146  86.5566565
  82.2169988  51.8576304  86.3647427  83.7041204  51.8682796  86.0830684
  26.2442374  36.4089513  11.9385600  26.2622499  36.1558771  11.0155976
  25.3745866  36.1479354  12.2415566  29.5920777  43.7280416  13.8569593
  29.2826533  42.8797960  14.1747129  29.7628736  43.5871696  12.9257154
  24.3013441  97.4363328  64.4583579  24.3107187  97.7055121  65.3768797
  24.5820009  98.2150555  63.9776845   9.5578337  87.4511814   0.7560472
   8.9059430  87.3670864   0.0602035   9.0430892  87.5910568   1.5508460
  60.1228428  21.9597340  49.6555948  60.1792431  22.5188923  48.8807440
  60.1927233  21.0685158  49.3134260  74.9265211  92.3324490  89.5839788
  74.0909355  92.7948285  89.5188917  75.2427595  92.5321365  90.4650857
 100.8351820  94.0933943  70.5095764 101.3569897  94.4620610  71.2223430
 101.3859575  93.4020258  70.1423092  97.0171165  50.3464317   4.3040055
  97.0914650  50.0127506   3.4099358  97.9188824  50.5314493   4.5663652
  28.6789989  14.8970151   2.7042744  28.2013273  14.0709043   2.6294023
  28.9190292  15.1173162   1.8042280  97.6008129  43.7118244   7.6494682
  97.5707626  43.1014013   8.3861578  97.4908447  44.5747662   8.0488116
  67.3629856  24.8478866  49.9760580  67.7313375  25.0781560  50.8290100
  66.6210270  25.4427409  49.8671007 114.3912422   2.2030009  87.0005764
 115.2340495   1.8038692  86.7847021 114.5715415   2.7412833  87.7712770
  53.7994671  10.3688836  33.2795715  53.9045000  11.1787379  32.7802372
  54.1862488  10.5621696  34.1335464 111.5744877  53.3914900  45.5409813
 110.6792831  53.0547190  45.5032396 111.4906311  54.2482758  45.9594488
  29.3915206  36.9549455  86.8058713  28.9304906  36.2070741  87.1858306
  30.2665788  36.9182767  87.1920838  83.9258575  68.9375782  15.8294618
  83.5700417  69.1988277  14.9801230  83.2174397  68.4458876  16.2449324
  36.7381978  63.7818766   2.9727131  37.2221971  63.9067268   3.7890387
  37.1296930  64.4082689   2.3639475  80.3658073  80.6491376  85.3763421
  80.2593057  79.7035409  85.4799445  80.8390205  80.9243227  86.1615636
  93.4843653  94.8953367  88.3959152  93.2370537  95.8054591  88.2323797
  93.4249275  94.4732810  87.5388451  67.2122622  33.8448191  13.9205146
  66.6023397  34.3741250  14.4343817  66.8974638  33.9232159  13.0199671
  68.9009762  37.3053670   7.6078868  69.0469503  37.9910588   8.2596171
  67.9967308  37.4352169   7.3220295  64.8704147  64.8736286  20.1291585
  65.3449535  65.6606913  19.8616135  64.6352577  64.4444799  19.3065023
 114.8552101  94.9331785  71.0043211 114.4094818  94.5588303  71.7642041
 115.2802246  95.7221652  71.3406058 105.8935516  58.5065693  68.5636611
 106.7097252  58.7550021  68.9976831 105.2612131  58.4158046  69.2765017
  41.6596842  40.4591036  18.2498181  42.0515776  39.9679565  18.9719188
  41.9056034  39.9687910  17.4653745  70.5192654  94.6969009  69.0482421
  70.6693452  95.2243376  69.8327895  69.6259420  94.9135400  68.7812706
  65.7991743   6.1633050   9.2437553  64.9783611   6.6198361   9.4283462
  66.4044619   6.8561912   8.9796150  18.1126720  18.7913264  74.0240617
  19.0490609  18.9837445  74.0728565  17.9010850  18.4130992  74.8775287
 104.7895067  66.0061670  46.0647436 104.0581148  66.5224016  46.4035650
 104.4631212  65.6387664  45.2433296  88.9884281  25.9710574  12.8406119
  89.5440006  26.6889787  12.5370336  88.0994225  26.2436008  12.6133883
   9.0197599  49.9379921  18.8242817   8.7003613  49.2302847  18.2644904
   9.3875366  49.4923306  19.5874059 109.3415850 107.5937892  70.7108326
 108.7742775 106.9807435  71.1783453 110.1466053 107.1011210  70.5512782
  40.5432224  58.9806890   2.5061509  39.8517895  58.3204794   2.4584824
  40.2168798  59.6243143   3.1350207   9.5288813  83.1499744  77.1124359
   9.9365198  83.8119055  77.6709242   8.6073935  83.1525803  77.3714347
  45.9691220  21.5030374  80.5159481  46.1509782  22.3434581  80.0954087
  46.7934972  21.2637891  80.9394880  73.3880615   3.1727585  50.4040909
  74.1416740   3.2193083  50.9924221  73.6882782   3.5903722  49.5968103
  81.6886806  48.0035353   6.3819492  81.6458607  47.9315758   5.4284191
  80.9376335  47.4988985   6.6941947  39.1364074  73.1476212   0.4685349
  38.3990812  72.7990913   0.9696416  38.9950490  72.8248644  -0.4214526
  11.3540327  90.3242398  66.6010375  10.4515421  90.0579859  66.4253994
  11.8601191  89.5146037  66.5332361  17.0914584   4.5819129  58.3405633
  17.1217376   3.7325420  58.7808819  17.2128373   5.2204408  59.0432616
  23.5689527   9.3868722  95.5663021  22.7167874   8.9855041  95.3961668
  23.6505014  10.0679387  94.8986714  83.2475250  88.1146360  71.6654702
  83.5089271  87.2244883  71.4298006  83.3459442  88.6154772  70.8557148
  64.9756622  44.5998287   7.3298091  65.5029869  44.3187714   8.0775857
  64.0777302  44.3721008   7.5708330  69.0371752  26.0652351   8.2119018
  68.7028790  25.1957941   7.9915607  68.6951113  26.2381625   9.0890098
  62.3869324  56.1719894  27.0198202  62.7748489  56.9763803  27.3643494
  62.8316784  56.0304356  26.1841202 103.4884708  88.3269501  92.3599695
 103.5553282  87.7251340  91.6186314 103.3758800  87.7576709  93.1212045
  71.9402361  88.4948349  10.2841020  71.4602041  89.2728996  10.5676842
  71.9758272  87.9385281  11.0622311  74.4121235  85.2663160  80.7675012
  75.0623815  84.6095563  80.5183812  73.5802930  84.9102426  80.4552443
  72.2108214  49.4024605  82.3147018  73.1477826  49.2131884  82.2645970
  71.7950290  48.6799658  81.8442233  57.7782624  86.0250402  81.0952337
  57.3160725  85.1920915  81.0013862  57.4134641  86.5803362  80.4061766
  49.7936153  42.8818941  19.4977915  49.4166470  42.2581196  18.8772821
  49.1927195  43.6268425  19.4834459  34.2711639  36.9748664   7.1496534
  34.1034412  36.2591290   6.5366119  34.7643638  37.6169491   6.6390485
  98.2520120  78.2852436  87.7861227  97.3485105  78.0612851  87.5630553
  98.2686966  78.2883692  88.7431725  29.3752670  19.2469561   8.4695542
  29.5033550  20.1925611   8.3943617  30.2486682  18.8761663   8.3433777
  52.8932762  42.6108360   5.8552080  52.9832411  41.6602993   5.9231180
  53.1436205  42.8112888   4.9533331  41.3091564  32.0735025  20.0060844
  41.7608500  31.2321281  20.0716019  40.5502748  31.8953252  19.4505787
  55.6746721  52.8765440   4.8554251  55.7828188  52.4983835   3.9827687
  56.5659380  53.0751991   5.1425058  16.8082553   5.5632772  91.3348063
  16.1799794   5.5901374  92.0564561  17.6298553   5.8665361  91.7211212
  51.0388756  68.8320923   4.7800544  50.8608818  67.9107666   4.5910877
  51.1218452  69.2415380   3.9188337  48.7023258  32.2228956   0.3420890
  48.0599117  31.5978718   0.0061077  48.9235163  31.8939996   1.2133715
  90.2226448  77.9933214  18.4844780  89.5275211  77.4404049  18.8412976
  90.8306599  78.1142473  19.2138171  36.8444157  44.1622353  27.0564318
  36.5578032  43.2677937  26.8718863  36.1477685  44.7148800  26.7021704
  42.9013443  73.8437653  16.7767107  43.4496784  73.0854702  16.5753388
  42.1501207  73.7587881  16.1896229   4.9130755  14.8859967  92.6433678
   4.0615493  14.7728671  92.2210650   5.4370242  14.1500940  92.3269020
  84.1661661 105.4991914  73.0016084  84.3400162 106.3420726  73.4206005
  84.7707765 104.8910762  73.4269090  70.1848834  97.3619700  86.1362769
  69.4229596  97.0180560  85.6699856  69.8254698  97.7310134  86.9430371
  76.4186144  34.5020819  24.2491412  77.0914125  35.1751733  24.1465855
  76.4144421  34.3084741  25.1865482  13.9766723 108.8532948   7.8273308
  14.1470367 109.6491084   8.3312047  14.8440391 108.4826257   7.6645029
  20.7177621  25.3261747  83.5954447  21.2022096  24.5015945  83.5553844
  21.3645536  25.9702005  83.8837584  88.9251900  41.3711262   3.3698893
  88.6767292  40.6328106   2.8136659  88.1939602  41.9842434   3.2948577
  78.4350824  12.9964304  13.6021078  77.8319454  12.8322756  12.8771865
  79.2326403  13.3182693  13.1819177  73.6193943  21.1333656  38.8815975
  74.2437840  20.4170012  38.7667274  73.7623692  21.4341164  39.7790027
  78.8167143  31.8172050   6.3279963  79.5059586  31.3670874   5.8395654
  79.1991520  32.6644802   6.5562439  81.8735218  25.7584071  26.3189268
  81.7815113  26.1315751  25.4422784  81.5340805  24.8672009  26.2367082
   2.3438388  -0.0658570  86.0262962   1.9030934  -0.4409180  86.7887290
   2.8337985   0.6787767  86.3751419  59.8814249  52.0569849  11.9037831
  60.0378180  51.3969326  12.5791407  59.1279268  52.5531054  12.2236776
 110.2797318  27.3080206  50.9681177 109.3248272  27.2425437  50.9579802
 110.5617332  26.8161559  50.1969004  84.9882412  64.8014402   8.3980763
  84.2075825  65.3310919   8.5601407  85.2608967  65.0414419   7.5124753
  72.9502106  34.1871619  23.6084533  72.1916676  33.7395453  23.2336473
  73.7029362  33.6844897  23.2970691  84.2782211  84.3845940  25.6395769
  84.0348339  83.8286591  24.8993492  84.2254353  83.8065910  26.4007378
 114.8297756  68.3756209  71.2729497 115.2495830  67.7708841  71.8847390
 114.5791452  67.8280402  70.5289264  59.4206285   9.8987371  13.1806552
  59.7021532   9.2064959  12.5825095  59.9562931  10.6549251  12.9409111
  46.7996216  45.0052309  27.8259706  46.3531160  44.3804359  28.3973742
  47.5770330  44.5375204  27.5208259  72.9546642  34.8913670  16.9906569
  73.7345171  34.9171042  17.5450933  73.2939005  34.9479342  16.0973740
  39.3566924  10.7674779  88.1183608  38.7018376  10.0986709  88.3186014
  39.2395049  10.9456243  87.1852143 111.3421600  56.3237929  87.2638072
 110.7160824  55.7434885  87.6968260 111.0015743  56.4229096  86.3747575
  60.5740309  26.4964795  22.6331258  60.6385374  26.5565944  21.6799974
  61.4646959  26.2967849  22.9213452 102.2404099  79.8999548   3.4140596
 102.5657463  79.4464016   2.6364493 101.2910175  79.7828341   3.3799949
   6.4418549  45.1990414  13.8841999   6.9153828  44.5987558  14.4601035
   5.5252022  44.9355555  13.9651692  44.6701670  35.7223010   9.7494709
  45.2934980  36.3050795  10.1831281  44.0909195  36.3097000   9.2640150
 105.7771843  81.2720514  76.7920430 105.0756233  81.0237885  77.3940464
 105.9977596  80.4611088  76.3338383 114.9447840  92.7003980  75.2727838
 115.8766239  92.8702069  75.1346679 114.5377033  92.8981424  74.4293304
  99.4556826  84.0408087  92.4721889  98.5134237  83.8834573  92.5323869
  99.6313494  84.7019864  93.1416792  69.8534839  61.1277313  94.7902003
  69.7960990  60.2682836  95.2076792  70.2356689  60.9513707  93.9305122
  90.6375313  51.5846634   7.6492274  90.4014683  50.7874918   8.1235981
  91.0349846  51.2711334   6.8368459   1.6344768   2.0931901  72.5227876
   1.4567357   3.0044593  72.2899242   2.4535876   2.1276273  73.0168577
  68.4988308  52.4961615  36.6261458  68.3432293  53.4391022  36.5724659
  67.7964926  52.1074486  36.1047554  26.4406228  37.5736904   7.4384105
  25.5265617  37.6177979   7.1577394  26.8953466  37.1536422   6.7083293
  29.1494489  16.5248406  31.5281320  29.6073508  15.6971920  31.3813162
  29.7038698  16.9986010  32.1481323  56.3483697 108.6850349  13.6672521
  56.5816861 108.3917614  12.7864647  55.7085687 108.0417239  13.9722657
  77.3696613  44.2014599  46.8502378  77.8709364  44.5925713  46.1347055
  78.0235815  43.7437820  47.3785877  63.9565849  28.2969427   9.9386120
  64.7147655  28.1979275  10.5144489  63.5175562  29.0867543  10.2543354
 112.5386207  77.0271803  92.6342170 112.3081272  76.3479996  93.2681073
 113.4441011  77.2545934  92.8454541  95.3477686  86.0580946  85.7664581
  94.7215574  86.0108543  86.4888545  96.2035148  86.0977317  86.1934962
  57.5639629  60.7124186  28.1572771  58.4641218  60.4814529  28.3866239
  57.5554609  61.6695786  28.1549191  47.4422836  20.7051039  18.8916576
  47.3835087  20.1900339  18.0869961  47.1011353  20.1253223  19.5726156
  90.3201406  78.5091830  76.6404875  90.1207607  79.3164635  76.1663826
  91.1688011  78.2320357  76.2952431  79.0773075  96.4067555  76.9953044
  79.2568415  95.7657862  77.6831706  78.1624787  96.2541581  76.7585893
  96.7463463 108.2863427  62.1756120  96.5294378 107.6843930  62.8875394
  97.6595610 108.5254622  62.3340006  82.4747849  82.9566956  27.3380804
  81.9941998  82.6239586  28.0960774  82.0205402  82.5823116  26.5832782
  25.3992462  66.4678717  15.2095485  26.2442923  66.7621183  14.8696256
  25.6113935  65.7118416  15.7569504   6.4744723  87.1599293  87.5546266
   7.0940935  87.1763325  88.2840343   5.6707823  86.8013693  87.9311069
  96.1247826  61.8100595   1.4884579  96.4025116  62.5011206   0.8871776
  95.4909229  62.2354841   2.0659193  83.9674091  61.9305325  12.8454137
  84.8482609  61.5593386  12.7950573  83.3843231  61.1784601  12.7423131
   7.5907737  17.2127141  79.6292301   8.2084972  16.8964090  80.2884717
   7.6003963  16.5390958  78.9492472  37.1327543  37.1682215  24.3358469
  37.7504897  37.8892708  24.4571733  37.4134874  36.5038633  24.9651718
 106.0733806 107.5269883  19.6327507 106.9574343 107.2983577  19.9198186
 106.1794888 107.7933649  18.7195051  76.4320087   2.6873928  36.7590928
  76.5741682   2.3615378  35.8703637  77.0526791   3.4102321  36.8513060
  14.7316062  83.3609390  15.8122301  15.0132406  82.4562740  15.6762600
  15.5432296  83.8683128  15.8036840   9.6457034   3.6800374  81.7910846
   8.9968902   4.2753686  81.4157744  10.0722247   4.1926707  82.4777563
  81.9494932 100.7300425  86.1822440  82.5773638 100.2764464  85.6198748
  81.1892860 100.8799506  85.6202443  56.7231607  22.4677253  17.2911131
  56.5517187  22.7708578  16.3995135  57.4030876  21.8014622  17.1909869
  82.9906862 105.6965256  92.4082212  83.5372465 105.0216819  92.8108286
  83.4067791 105.8694125  91.5637042  84.8097103 103.6638833  81.4503856
  84.1227835 104.3301392  81.4721401  85.5583160 104.1047288  81.0485478
  35.7515269  12.2103490  86.3651695  35.9738189  13.1052722  86.1084075
  36.5083009  11.6892280  86.0969140  59.5642644  21.5457381  72.8146549
  59.0749341  21.7443790  73.6129828  58.9667111  21.7772140  72.1036144
  80.4119873  37.2492528   9.6482593  80.0456429  38.0748057   9.3312585
  79.7459602  36.5949583   9.4372219  18.5908347 103.3495831  24.1212320
  19.0060407 104.1812741  24.3495345  17.9661113 103.5750251  23.4319353
  14.3552333  19.9625148  87.2080310  14.5941526  20.6329908  86.5680237
  13.6967069  19.4297256  86.7622598  96.3693922  64.7854126  93.7181047
  95.7818811  65.1837838  94.3602625  95.7852714  64.3563522  93.0928515
  97.0908850 108.8245726  89.4063838  96.7046659 108.9379693  90.2748342
  98.0005234 109.1037799  89.5104774  44.9659681  46.0574102  38.4693718
  45.2954531  45.6281424  37.6798129  45.7313967  46.4962292  38.8405728
  46.4493227  41.3137960   2.8790191  47.3723650  41.1019564   3.0181107
  46.2544632  41.9798470   3.5382891  51.6044044  46.9564867   4.2711070
  51.8187189  47.6720858   3.6725906  51.7394972  47.3256254   5.1438731
 114.5633047  82.3193169  84.4544073 114.1511219  81.7071892  83.8447865
 113.8301390  82.7439190  84.8998435  57.4037534  12.0974721  88.2311537
  58.1910974  11.7784681  87.7900656  56.7878896  12.2780456  87.5209923
  56.6420984  16.0903895  10.0564158  55.7348013  15.7872581  10.0223660
  57.1377420  15.4152524   9.5929956 106.8530767  65.8372570  94.4658402
 107.7101105  65.4134584  94.5118545 107.0070856  66.6346706  93.9592396
  57.1428394  56.4340019  14.9238241  57.1199560  57.0473242  15.6583619
  57.7484179  55.7475853  15.2037156 105.7646911  76.4186002  74.3222495
 106.5254705  75.8388568  74.3588896 105.4362219  76.3264895  73.4279032
  12.8680575  74.2507971  62.0488186  12.3010027  74.9378610  61.6986413
  13.5637629  74.7239471  62.5052710  95.7884407  59.1518688   1.3774487
  95.9845257  60.0879669   1.3387850  96.6253662  58.7405634   1.5933475
  72.4649620  38.3158016  14.3713415  71.7578268  38.7458086  14.8522687
  72.9835320  37.8794312  15.0472832  89.0357494  23.0329847  23.2316375
  89.7023010  22.4666500  22.8427935  88.5637856  22.4644995  23.8401675
  71.3414860  34.6736336  11.9578588  70.4511738  34.9700260  11.7688501
  71.7788553  34.6709561  11.1064267   9.0151655  98.6428834  86.1706014
   8.2533323  99.1688443  85.9272857   8.8015043  97.7590991  85.8714141
  46.4667588   2.1593608  77.9555328  45.5504685   2.3324527  77.7394779
  46.6231042   1.2691488  77.6403947 114.7218149  63.7829543  69.3102093
 115.2921074  63.6469675  70.0668498 115.2882498  64.1871370  68.6529251
 114.6544075  25.9003425  15.1545680 115.3129387  25.2112007  15.0670934
 114.0467930  25.5684876  15.8155572  82.2519701 108.4109164  93.4520744
  82.5113409 107.4900389  93.4828817  81.9253891 108.5973407  94.3323146
  65.2771235  46.9150162  18.5756946  65.6018209  47.4692678  19.2853498
  65.6641293  47.2884893  17.7838755  73.2000494  57.4302053  17.3872638
  72.6775312  56.7416096  17.7984083  73.3009052  58.0939722  18.0695200
  36.8743491  49.8526573  26.6376972  36.7798996  50.1026821  27.5568295
  37.7111721  50.2330685  26.3707781  87.7507322 107.7392293  86.3229443
  88.2225530 106.9929028  85.9533288  86.8496816 107.4302006  86.4169915
  12.7066117  23.7776555  79.6735127  13.0288583  23.0839147  80.2489348
  12.1442109  23.3253516  79.0447362  50.9840536  29.3040347  15.0514281
  51.4367580  29.4125652  14.2150605  51.6164446  29.5999074  15.7062340
  43.7874365  25.5075502   3.8068417  43.2989264  24.8169422   3.3589035
  43.1884909  26.2540746   3.8208976  23.1852275   1.1742391  90.5528085
  23.2756978   0.6587400  91.3542493  22.4348479   1.7449369  90.7185348
  63.1634712  69.8881197  16.7123461  63.4556293  70.7446051  17.0242941
  62.7037907  70.0753450  15.8938885  32.3284912  22.5490856   3.1351751
  32.6668549  23.4258509   2.9534432  31.6841912  22.6804304   3.8307750
  32.5671178  19.4895925  94.2990542  31.9510966  18.9196433  94.7593907
  32.9436236  18.9337959  93.6167287  93.6211967  28.7303972  11.7606533
  93.8152790  29.6243548  11.4788735  93.9424419  28.1792545  11.0470188
  59.5633459  38.0811524  23.3853292  59.6126890  38.7303996  24.0869522
  59.5340681  37.2391963  23.8397336  39.6621871   7.8912091  16.3219059
  40.2099180   7.6722902  17.0757592  40.2444363   7.7985477  15.5678296
  73.1564408  11.0933246  95.0510851  73.3337480  11.3811578  95.9466001
  72.2404176  10.8159579  95.0655921  33.4174418   8.1100702  37.5861812
  32.9834104   7.4908996  38.1731009  34.1534686   8.4480113  38.0963707
  55.8752584  21.0095572  13.9562726  56.0210276  20.7112765  13.0584908
  56.0430384  21.9514489  13.9259410  67.8933287  25.5807710  22.5806046
  67.2657251  25.7487607  23.2835436  67.7125692  26.2599325  21.9307613
  29.1514611  12.2010124   7.9409856  28.3003211  12.5610614   7.6916742
  29.4762540  12.7984965   8.6145991  75.8336871  61.7498017  78.9935060
  76.3773363  62.3073227  78.4368678  75.1250546  62.3225117  79.2868932
  65.6562614  32.0472598  43.6530590  64.7269726  31.8537283  43.7763357
  65.6668520  32.8762412  43.1746101  86.4662933  25.5398369  22.9151893
  86.6581345  26.2901258  22.3526096  87.2433853  25.4490805  23.4666586
  45.2383864 101.6649581  83.0953951  44.7769320 101.0080386  82.5741024
  44.9115908 101.5368462  83.9859148  31.9754291  59.2712879  47.2877932
  31.3721967  59.9675608  47.0279026  32.5804996  59.6937752  47.8974009
  80.8794880  36.5493941  12.1408522  79.9971914  36.7445135  12.4566269
  80.9324169  36.9879794  11.2916923  67.2104597  36.3514304  26.1667538
  66.4154053  36.7030120  25.7661128  67.8915930  36.4896202  25.5085826
  69.4337827  35.6490792  87.9755546  69.0875798  34.9081792  88.4729774
  70.3385144  35.7371129  88.2754685   0.8098584  14.5046844  73.2158418
   0.7976967  14.8048677  72.3070093   0.8768016  13.5519304  73.1525178
  85.6911182  31.6180801  35.7403708  86.4893246  31.9686103  36.1356211
  85.8569622  30.6789351  35.6582952  47.5530672  56.9548845  38.8089514
  47.0733976  57.7828693  38.7846231  47.0641136  56.3775063  38.2226133
  14.9646121  11.0519542  57.1801110  14.1159755  10.9500541  57.6109977
  14.8469955  10.6472530  56.3206835  88.7105942  82.7945900   5.1811880
  88.1000423  83.5317039   5.1922333  88.6836529  82.4747562   4.2794031
  37.4051785  93.3774662   4.4705606  37.7836919  92.7800179   3.8255677
  37.4287200  92.8882599   5.2929682  80.1628876  54.3679762   3.0676836
  80.9529877  54.0732479   2.6147813  80.4819107  54.7321796   3.8934070
 105.0092523 102.5278235  90.9178747 104.5331734 102.0169068  91.5725126
 104.9391096 102.0123673  90.1143690  92.8611565  81.4770412  13.4190202
  93.3738422  80.7974434  13.8566625  92.0102119  81.4543438  13.8567650
  70.5993348   9.9569453  94.6819504  70.2275354  10.7139863  95.1346042
  70.0851708   9.8822822  93.8780262  33.4354240  11.1169614  81.4912827
  33.3800965  11.3444747  82.4194034  34.1742402  10.5108108  81.4368959
  93.7196732 109.0285683   3.4791088  94.1336727 108.8433075   4.3220276
  94.1864109 109.7951698   3.1463790  65.4709339  81.7110062   8.4923649
  66.2138939  81.5868187   9.0829718  64.7921276  82.1042919   9.0407997
 107.2830009  24.1420269  48.2402611 107.1090508  23.5026765  47.5494576
 107.3366737  24.9808407  47.7822828  68.2026863  66.9547224   0.5054205
  68.1012964  66.1914158  -0.0631825  67.8070068  67.6741552   0.0133936
  67.6135159  56.8496275  37.8267026  66.7009020  56.6980553  37.5809574
  67.5655794  57.4659586  38.5575056  65.1946974  72.3847818   7.3349994
  65.8145046  72.2991562   8.0593896  65.3747511  73.2497501   6.9666994
  53.5208797  82.2435665  21.8813586  54.4056129  82.3365307  21.5280461
  53.2210970  81.3946629  21.5561938  75.8099794  48.7529135   9.2206353
  74.9185371  48.4091043   9.2785734  75.6959629  49.6971035   9.1122848
  97.5924223 104.2075492  82.1322198  97.8784149 103.3409596  81.8433185
  96.8152349 104.0381098  82.6646681  79.4117832  72.7560472  27.6320195
  79.3273687  73.4985685  28.2301521  80.0261307  72.1657085  28.0682755
  73.7482500  46.3313866  21.4144516  73.8383722  45.3853512  21.2998796
  72.9887486  46.4318752  21.9882917  14.1236157  56.2102699  29.5836592
  14.7292656  56.8638849  29.9332571  13.3937783  56.2045479  30.2029586
   2.0095712  24.5814838  92.8605251   2.5431424  24.5645274  92.0660149
   2.3778564  23.8905467  93.4111615  37.5145084   9.1054954  77.5991686
  37.2082978  10.0112905  77.6439066  38.0375320   9.0687551  76.7983373
  72.9185629  62.8589630  14.5467675  72.2015953  63.4605026  14.7476101
  73.4167194  62.7994108  15.3619516  65.1940203  77.2403479   1.9669797
  64.6214867  77.9666615   2.2137845  64.9397135  77.0295095   1.0685887
  79.1134834  46.5951061  41.6078234  79.5895576  45.7769012  41.4659548
  79.0239143  46.9747496  40.7337046  37.7110797   0.9705676  92.4058466
  37.7009231   0.8109273  91.4621078  38.6205226   0.8210506  92.6642810
  71.2307262  43.3249760   8.0662614  70.5061626  42.8096104   7.7118033
  71.7892599  43.5047245   7.3099816  20.5145323 107.0799828  89.5850112
  19.7347510 106.5680171  89.3703611  21.2460291 106.4903641  89.4020106
  86.6439724  21.2778258  38.6093116  85.9248734  21.1477947  39.2275476
  87.4115276  21.4244866  39.1621065  67.1934032  79.3176460   2.6499969
  66.6556311  78.5307741   2.5612706  66.5833664  79.9922895   2.9482287
  75.4708940  23.1756582  79.6566113  75.9950238  23.9419641  79.4235857
  76.0955602  22.5710525  80.0572057  10.6197453  93.5467339  38.1471014
  10.0110924  93.6820221  38.8733721  10.6126153  92.6006699  38.0016923
  34.7379809   4.5835437  87.9178597  35.0635749   5.4835118  87.9345413
  34.8904353   4.2572059  88.8047059   5.2165568 105.8726598  88.7264867
   4.3883669 106.3142634  88.5385271   5.1296007 105.5760146  89.6323969
 110.6103325  55.4980373  31.7142558 109.7901726  55.6219244  32.1919799
 111.0022068  54.7191048  32.1091318  34.7344190  13.6605825  92.6608204
  33.8278323  13.9643134  92.6152976  34.9107390  13.5724391  93.5975029
  88.0957985  58.8498068   8.6150640  87.7358818  59.6860409   8.3194333
  88.8934898  59.0862942   9.0883452  13.1093084  93.8928986  83.7226065
  13.5846483  93.4523702  83.0181737  12.2677004  94.1290189  83.3325036
  74.2713928  47.8838110  29.6003580  74.0547562  47.8984356  28.6681104
  75.2278233  47.8532124  29.6235442  61.9817352  65.5032063  27.9995418
  62.1521330  66.2892103  27.4805093  62.3590517  64.7898245  27.4848080
  88.7100506  72.9759979  36.1618614  89.0717220  72.9759169  35.2756214
  89.1379356  73.7145472  36.5951014  45.8581781  51.4220142   5.8736104
  46.3842106  50.8356237   6.4173603  46.3103962  51.4364815   5.0300938
  28.3554345  32.7072133  84.7107752  27.6787740  33.3520974  84.5046432
  28.0823356  32.3328675  85.5483391  71.5451622 102.5470448  26.3545132
  72.0554590 101.7435169  26.4553905  71.3468790 102.8189373  27.2506118
  67.4243069  37.7644777  31.4628291  67.1837234  38.0649567  32.3392200
  68.3673477  37.6084805  31.5135980  83.8982391  63.1852436  24.4539499
  84.7905445  62.9015875  24.2550373  83.6636734  62.7006102  25.2453661
  56.6545564  19.1131200  64.6829339  57.1496087  19.9259843  64.5809193
  57.3072034  18.4676732  64.9543782  87.1723366  92.1010494  21.0614538
  87.3698616  91.1858082  20.8626127  86.2545395  92.0944309  21.3331962
  33.5532123   3.6625470  91.2379910  34.4237310   3.3348312  91.0120826
  33.0371457   2.8744067  91.4075317  60.4576188  13.1054010  58.5270544
  60.6948167  12.2670593  58.1306239  59.5133191  13.0436315  58.6709757
  40.1620531  17.5920045  18.0318570  39.5331860  18.2207286  17.6776481
  39.6620774  17.0897675  18.6752951  73.0273819  87.8820229   3.9946806
  72.4205303  87.1653843   4.1801640  73.5035419  87.5968647   3.2148159
  91.3532036 102.1689845  79.7664221  92.2255152 101.7896081  79.6597226
  90.7975023 101.4277840  80.0073488 100.0913811  69.7791481   7.8009135
 100.5427742  68.9631367   7.5850195 100.0048542  69.7600746   8.7540030
  93.3969307  51.6611290  25.0128579  93.7160873  52.5340414  25.2417779
  93.6965847  51.1011267  25.7289839 101.3139170  73.0020476  81.0632320
 101.4195936  73.8184477  81.5516515 101.7020815  73.1831074  80.2072080
  78.1026506  64.5740080   4.6134368  77.4948692  64.0269518   4.1158813
  78.9261150  64.0860844   4.6047837   6.0516512  92.2389818  67.2776719
   5.9141123  91.2958265  67.3658367   5.7037604  92.6086498  68.0891843
   2.6452107  64.5019627   5.5631387   2.6262707  63.6650944   6.0273904
   2.6375813  65.1611090   6.2571841  65.7759047 104.0588474  22.0747852
  65.9628963 103.4820747  22.8154612  65.0861454 103.6076641  21.5880537
  29.0166646  22.6955547  66.3708325  29.4011956  22.4523439  65.5286856
  29.5309573  22.2122468  67.0174761 113.3732986  59.6313190  14.7577310
 112.7142239  60.2766752  15.0133967 113.9259911  60.0909233  14.1256499
  51.7168218   9.9647273  81.3948639  51.8954354   9.9754562  82.3351892
  50.7985574   9.7027959  81.3284703  39.9273377   8.0777063  90.8420430
  39.1654664   8.3839120  90.3500821  40.5923825   8.7506952  90.6970211
  40.8333969  50.7283878   5.8153516  40.9249115  50.1092815   6.5396172
  39.9578357  51.0989761   5.9262264  79.2685604  27.1755362  35.9302545
  79.4410992  27.1906996  36.8716526  78.6702824  27.9083872  35.7845712
  37.4234754  19.1453685  80.7644542  37.6338655  18.2119836  80.7368060
  37.1273404  19.3505086  79.8776324  56.0609007  63.9561939   6.6849017
  56.2485552  64.0488720   7.6189405  56.7960835  64.3871450   6.2489867
  38.8071656  55.6719875  12.2999096  38.8463426  56.5626431  12.6483822
  39.7192311  55.3822041  12.2801268  96.2029362  38.4599638  17.8156352
  96.4559746  39.3757725  17.9318118  96.7670727  37.9771280  18.4196675
  94.5196247  83.1253910   0.5623846  94.3089867  83.1776047   1.4946592
  95.3750706  82.6968765   0.5337497  97.6745987  78.7763548  26.1965203
  98.3076763  78.1711817  26.5827966  96.9480133  78.2182217  25.9193969
  90.9086227  94.8913097   0.4261290  89.9629593  94.7949696   0.3135832
  91.2867069  94.4447041  -0.3313856  56.0706311  16.9458331  95.4888475
  56.4008313  16.8687095  94.5937207  56.8143350  17.2796478  95.9905484
  22.9971915  13.7900628  79.1590221  23.8491088  13.6847343  79.5825537
  22.5133830  12.9982509  79.3939610  44.2077398  33.0194235  32.2904801
  44.2683744  33.8407612  32.7782941  43.9889765  33.2866549  31.3977551
  17.3263961  34.4733895  85.6935926  16.6530257  34.3930234  86.3691254
  16.8718034  34.8647012  84.9476321  96.0666466  49.4063330  10.2779806
  95.5849648  48.5806227  10.2287900  95.5833817  49.9277115  10.9189618
  94.1776943  87.9821014  20.4540277  93.5797691  87.8881550  19.7124827
  94.8839092  87.3620415  20.2723122  78.4559107  51.8625498   2.9814246
  79.2137051  52.4386787   3.0816999  77.9428005  52.2617960   2.2788891
  94.7051590 109.7145987  94.9145016  94.5271747 109.6069194  95.8488241
  94.1044586 109.1058875  94.4845411  83.0679607  43.8071489  37.8816128
  82.1522808  43.5475111  37.7798986  83.0674362  44.7520065  37.7284169
  65.0348473  44.7322607   1.0323039  65.3541851  45.6129265   0.8356255
  65.0835371  44.2676878   0.1968187  90.6867599  66.7320728  16.6963434
  90.6808949  65.9594059  17.2613120  90.2451801  67.4080467  17.2104430
 114.5539093  41.7067432  27.7868176 114.2342091  40.8348322  27.5548577
 114.1120338  42.2946787  27.1741939  46.5682870  24.8023023  89.0762861
  46.6993600  25.5380716  89.6743591  47.3019010  24.8577489  88.4639497
  85.9576130  70.4065800  25.1408815  85.2996635  70.8908558  24.6420765
  86.3015842  71.0445166  25.7661390  16.7693645   1.8707027  93.4126499
  17.2831851   2.4631681  93.9614697  16.6890460   1.0713424  93.9330402
 106.3207245  47.2818518  15.7581532 106.5685654  46.9163465  16.6073966
 106.7092896  46.6855049  15.1181364  65.4014379  13.1202211  62.5099011
  65.3805333  14.0718497  62.6108547  66.3095742  12.9236592  62.2799106
  81.7610073  45.6958199  45.5554247  81.3277721  44.8827171  45.2958012
  82.6126385  45.4166698  45.8916330 110.4899090  90.0810314  93.2570018
 111.4050930  90.3600360  93.2856515 109.9967783  90.8905531  93.1238476
  80.2447701  26.1937094  30.0589657  79.6803093  26.6382146  29.4264865
  79.6378994  25.7453728  30.6479716 106.9482899  66.2762880   0.4910555
 107.5681973  66.9558525   0.7559009 106.1012554  66.5869904   0.8107720
  95.9230917 102.6622725  83.8950236  96.2749737 102.7628232  84.7795005
  96.1739319 101.7753363  83.6368533  52.8963995  70.3261518  42.8940201
  52.8397131  70.9514713  43.6165142  53.6544418  69.7819424  43.1071997
  78.3339787  41.2795401  22.1339202  79.0058661  41.7915678  21.6837811
  77.6394415  41.9102097  22.3239303  71.3113260  49.0044451   7.3262113
  71.1172247  49.1640997   8.2498270  72.0463848  48.3914423   7.3384303
  82.8746128  87.7766609  14.5021844  83.3637714  88.0538177  13.7274981
  83.3771420  87.0410347  14.8522532 115.2948255  19.0305747  31.9431305
 115.1479072  18.4015883  31.2367177 114.6524209  19.7224082  31.7852712
 108.8885212  34.6647406   9.3566591 108.2683659  34.5565748  10.0777328
 109.5593262  35.2527213   9.7038323 102.2584629  32.2655272   8.0156362
 102.1633053  32.2302318   7.0638323 102.9642200  31.6484308   8.2088321
 107.2154999  53.6453819  30.3924370 106.6047573  53.0734730  29.9275208
 107.5344086  53.1131649  31.1213183  31.3808370  68.2948446  33.3393288
  32.3258781  68.4073544  33.4416580  31.2170672  68.4747505  32.4135613
  44.6667939   7.2048320  93.0919856  45.3225404   7.1867885  92.3949169
  45.1769811   7.1791686  93.9014821  89.8008442  36.6141844  16.6941273
  89.4804192  36.4218497  15.8128965  90.7511902  36.5200114  16.6292858
   5.4842055  83.6099554  86.3836743   5.0665533  83.6051727  85.5224098
   6.0225355  82.8185368  86.3932087  49.5724279  12.9552974  86.5100296
  50.0960237  12.5404538  87.1955820  48.7003594  12.5737323  86.6107716
  42.2004014  28.9357366  83.6462088  42.7271062  29.5364274  83.1189592
  42.8394776  28.4572114  84.1742535 104.5027542  22.0451379   9.6604806
 104.5579052  22.2265005  10.5987227 103.7320518  21.4847755   9.5697504
  28.8562739 106.7164708  84.8523684  29.2290175 105.9632111  84.3942209
  28.5428679 106.3601351  85.6836535  64.7960645  22.9732932  75.2114530
  65.6689721  22.8368367  75.5797346  64.8715097  23.7858667  74.7111888
 110.3592491  72.4109602  41.2160873 110.7782745  72.1070433  40.4109287
 110.4810333  71.6916180  41.8357277  66.8432093  72.8626633   3.8334721
  66.4003754  72.0840120   4.1708601  66.1464167  73.3764553   3.4251511
  17.4300366  10.6552591  86.2874915  17.1551925  10.9280719  87.1628578
  17.0044595  11.2777986  85.6979491  39.4579106  20.3839053  86.3708212
  38.9872056  20.6987800  87.1425243  39.6025735  21.1684455  85.8418621
  76.6746980   8.5155286  85.1648839  77.3530274   7.9974927  85.5981757
  77.0930368   8.8382806  84.3667276  37.7608615  17.9906310  86.0368653
  38.1854945  18.8330116  86.1990781  37.8242856  17.8689183  85.0895555
  97.3355484  46.4318419  19.0449655  97.1068382  45.9322643  18.2611597
  96.6699409  46.1869144  19.6877849 107.9332447  77.4899197  17.0607162
 107.4376774  76.9472933  16.4473605 107.5057793  78.3455324  17.0229340
   4.6194631   4.2134465  58.5882016   5.0658303   4.1574039  57.7433081
   4.1615516   3.3771791  58.6731000  92.6998997  46.6720247   7.1144289
  92.0652676  46.4746714   7.8032845  92.2391701  47.2735119   6.5294725
  46.8288565  46.3681602   7.3035938  45.8803988  46.4311934   7.1909690
  47.0158815  45.4315662   7.2400248  87.7967072  74.7118616  20.9236884
  88.7374020  74.8869371  20.9495759  87.5159550  74.7759008  21.8365455
  90.2798176  40.0021601   7.6398140  90.8607578  40.7574511   7.5488633
  90.5930996  39.3787408   6.9845033  10.4203969   6.7522754  77.1909578
  10.6497699   6.2505807  77.9732140   9.6324426   6.3251104  76.8549688
 110.3957081  33.9515209   2.9030749 109.8653793  34.3927360   2.2395161
 109.7897816  33.3460355   3.3302432  56.3006258  31.7216611   6.0924280
  56.0736132  32.6493716   6.0287780  56.4372253  31.4457798   5.1860833
  69.5039749  87.8985023  36.8507290  69.2436218  88.7119675  37.2828317
  70.2297592  88.1519032  36.2804151  71.2548447   6.8043363  36.1116266
  71.5312147   7.4678087  35.4794407  70.4655361   6.4220983  35.7280636
  80.3883362  37.8989077  33.3571792  80.4646587  37.8085661  34.3070459
  80.0795746  38.7953782  33.2258892  50.7762814  53.6018515  27.9529047
  51.5298557  53.7067461  28.5337234  50.4290438  52.7354765  28.1651688
   5.9175455 105.7422877  64.8153325   5.9977495 106.1383296  65.6830616
   5.1612341 106.1778308  64.4222374  50.3390169  31.4424348   2.2877279
  50.3064823  30.5372572   1.9781667  51.2706661  31.6621375   2.2879720
 106.5948313  83.9533854  93.2594703 107.2105282  84.0476824  93.9862842
 107.0808189  83.4638096  92.5958695  98.1852644  97.8657628  54.6732326
  98.7344711  97.1259213  54.4139381  98.1122749  98.3989049  53.8816114
  91.0930157  47.9992104   5.4202592  91.2229824  48.1734943   4.4880760
  90.3351879  48.5324478   5.6602389  66.2371045   5.2890290  79.9825581
  66.3562757   6.2099494  79.7503181  66.1144620   4.8444308  79.1437943
  23.4569532   3.7852563  92.7867930  23.7121469   2.9716195  93.2216548
  24.1690475   4.3945064  92.9816342  30.5608046  90.9617186  88.1419034
  31.4911043  90.8205987  87.9662241  30.4616987  90.7716394  89.0747918
  72.0202112  17.3476136  14.9382675  71.0930109  17.1710360  15.0975001
  72.2074890  18.1301296  15.4567516  61.0397053  44.3894958   0.7348741
  61.2044859  43.5257912   1.1131497  61.4639854  44.9999571   1.3378328
  77.2657824  68.0567408   5.0345165  76.7050552  67.7992153   4.3027374
  77.6963854  67.2452641   5.3034329  93.7321758  85.9984016  23.1637311
  94.5389843  86.0478973  22.6510429  93.1529331  86.6458702  22.7618694
  41.8664151  28.8293542  79.1511150  40.9169942  28.7961759  79.2683168
  42.1714860  27.9631795  79.4211097  52.8020936  21.4154376  89.0566822
  53.3937722  20.7004394  89.2910244  52.8630143  22.0270099  89.7905083
 111.8321054  84.9465728  89.9957957 111.3912838  85.6045557  89.4582428
 112.2366159  85.4476906  90.7039513  49.9369907  82.3838234  19.3318236
  50.0949574  81.4743328  19.0786254  49.4067526  82.7419949  18.6199284
  69.9792290  57.4613762  28.2681942  70.9344578  57.5023460  28.2225370
  69.7573185  57.9336834  29.0706372 107.6822948  89.2075539  10.1529229
 106.8897247  89.3535233  10.6694090 107.8306580  88.2632828  10.2035868
  87.4638176  49.5081997  19.0002024  87.8531456  49.8283148  18.1864607
  87.6690578  50.1841974  19.6460640  79.9816608  85.3325653  10.3573537
  79.5829201  84.8382378   9.6411979  80.7172585  85.7911587   9.9513710
  12.0421278  99.5751954  94.6347461  12.6769030  99.5480395  95.3506788
  12.0537150  98.6900187  94.2706675 104.5155239  44.6481419  38.7703395
 104.1857719  44.2590761  39.5803523 104.4480991  43.9464331  38.1228113
  75.0077009  79.7006369  32.5763607  74.8024702  79.4392014  33.4740043
  74.9145412  78.8965511  32.0654726  69.1431695  25.2340306  93.3004373
  69.8690396  25.1134290  92.6882170  69.5627862  25.3104390  94.1573617
  74.0721846  73.6598682  17.1605778  73.7559128  73.5620213  18.0587018
  73.4639597  73.1406450  16.6345572  97.1548462   8.1881660   2.8383619
  98.0197620   7.9239470   3.1519553  97.1893883   9.1445214   2.8177828
  64.7590113  29.3742824  36.7278409  64.8074293  29.8347926  35.8900952
  65.5900097  28.9034081  36.7906928   3.1520235  95.3981496  87.3094119
   3.7044775  95.0173283  86.6267677   2.4834406  94.7334648  87.4749823
  44.9662018  54.5746803  32.4030185  44.7678375  54.0343189  31.6382337
  44.6385050  55.4442358  32.1734023   3.3011085   2.0148935  89.7709097
   3.0499154   1.4865913  90.5285599   2.4770289   2.3822059  89.4512214
  56.4738351  26.7976178  91.7742120  55.8852559  27.0782365  91.0734590
  57.0194322  27.5641908  91.9500907 115.7062531  37.6437688   1.4581640
 116.5640640  37.3703957   1.7832069 115.0953484  37.3865485   2.1487212
  42.2874909   6.5366449  90.7700227  42.2848874   6.8994893  89.8842640
  41.4531404   6.8170346  91.1461659  31.7373210   2.8711929  79.8610230
  32.4450046   2.2591199  80.0629719  31.7396766   2.9333247  78.9058443
  69.3993139  56.1817598  15.8870864  68.9772749  55.7607794  15.1381636
  70.3147364  56.2766838  15.6239820   2.3761809 106.2297822  88.9276226
   2.1200907 107.0148183  89.4117405   1.6868603 105.5941630  89.1201295
  37.7024346   3.8510932  74.3413635  37.3689729   4.2814817  75.1286383
  37.8086549   2.9345741  74.5961876  89.7057819  83.1315994  12.5040209
  90.3164291  82.4609661  12.8099394  90.2592182  83.7763214  12.0632553
  77.1268797  29.9638152  14.8221946  77.9356527  29.6564531  14.4127429
  76.4794970  29.2922235  14.6075082  46.9039708  11.7083158  72.1183033
  46.9181424  11.0942115  71.3842006  47.6364785  11.4371480  72.6715918
  47.9887915  52.9190922   8.5010821  47.2551060  52.9233599   7.8863299
  48.0200529  52.0208931   8.8304704  45.2478963  26.2232103  80.8115800
  45.6140214  25.3787793  81.0744877  45.9963113  26.8199529  80.8139701
  31.2545073  70.2088679  94.4097585  32.1639597  70.4405118  94.2213871
  30.7890951  71.0452963  94.4083801 103.4361809  57.2616396  77.5980170
 102.9496067  56.5256917  77.9693110 102.8217428  57.6725868  76.9898887
  37.4965739  32.8649497  27.2408891  36.8078685  33.1651020  27.8340387
  38.3102369  33.0201936  27.7205610  42.3097974  16.9809999  74.3078561
  41.6660672  16.2730302  74.2828460  42.1015149  17.5211419  73.5455580
  32.3036510   7.6778211  76.6364356  32.4588996   8.5336770  76.2368854
  32.9948503   7.5910320  77.2928973  52.2713518  55.9303284   2.4162924
  51.7511225  55.2284336   2.0252252  51.7090750  56.2920523   3.1012979
  87.0421124  48.6020803  28.3477426  87.1361160  49.5541096  28.3799648
  86.3194942  48.4123707  28.9461255  94.7844219  58.3156204  39.1588020
  94.4610882  58.3727455  40.0579262  94.0983200  57.8434181  38.6870909
  62.3925829  45.3819799  40.4176950  62.7175617  44.6380711  40.9248638
  62.0764399  46.0008335  41.0759544  64.8883772  31.5732884   8.1026191
  64.6064854  30.9689617   7.4159151  64.2513180  31.4501619   8.8063419
  97.0775604  49.3356991  18.6613274  97.3180866  49.5792055  19.5552409
  97.3265743  48.4143066  18.5888457  68.6102009  55.4356146  26.8248320
  69.0478277  55.2975130  25.9848070  68.9249706  56.2895632  27.1213484
  94.7642136  74.6864414  15.9143436  94.1391468  74.6214628  16.6363561
  95.5603600  75.0329494  16.3172388  74.6877861  32.3090768  12.9343736
  73.7453222  32.2114968  13.0702829  74.9883461  31.4307356  12.7011085
  57.5472069  85.2762032  11.4077544  58.1461811  84.7383881  10.8898604
  56.9180155  84.6525955  11.7703319  40.8226091  16.0058917  69.7674437
  41.0211116  16.7876662  70.2828570  40.8785897  15.2849426  70.3946062
   5.2199328  84.7470022  79.0579112   4.6782839  85.0119687  78.3145149
   5.5036699  85.5712295  79.4533475  90.8613873  33.9477348   5.1494598
  89.9868202  34.1698050   5.4689217  91.4561176  34.4237280   5.7290769
  20.7455790  97.9919768  70.9862681  20.4884112  98.1290198  71.8980356
  21.1441672  97.1217538  70.9780426 108.0141800 100.2265835  82.1084877
 108.3521145  99.6222735  81.4475472 107.3770874  99.7100068  82.6019342
  21.6600763  96.0161401  85.6070604  22.5953352  96.1984778  85.5161210
  21.3129580  96.0961676  84.7186144  79.9370241  54.4242811  47.5070763
  79.1465044  54.7262859  47.0597410  80.5384254  54.1915655  46.7996883
  47.6654988  29.7307290  88.1821813  47.6044732  30.1635732  89.0337391
  47.0600301  28.9920224  88.2450463  57.9543638  35.2516699   0.9783435
  58.5676479  34.6591091   1.4130722  57.1233511  34.7766566   0.9758404
  95.5007553  67.9215574   7.3856115  95.7919598  68.8170910   7.2140098
  94.6597481  68.0243778   7.8310049  65.1319838  81.2205124   3.7230703
  64.9146175  81.2032604   4.6551031  65.8317375  81.8697929   3.6523044
  76.5696001  51.9125986   6.7155015  76.8782187  51.4685106   5.9257084
  75.7122946  52.2630310   6.4737374  63.0057669  70.7083321  13.9384961
  63.9256954  70.5722952  13.7116528  62.9376221  71.6476631  14.1094959
  78.4037876  36.3534355  23.5959220  78.6120939  36.2461591  22.6678419
  78.3078146  37.2986937  23.7121439  40.2043038  21.1830701  81.7818470
  40.2431899  20.3512038  82.2537787  40.1263600  20.9327544  80.8612509
  70.1411152  96.3185692  15.7046318  70.3522491  97.1544933  15.2888227
  69.2735386  96.0956097  15.3672421  85.0204754  62.1324253   7.9016924
  84.9951935  63.0442524   8.1918132  84.1070652  61.8474007   7.9277027
  79.6429777  71.7370224  23.7838387  80.3348446  71.3925266  24.3485284
  79.1764450  72.3666239  24.3335462  65.8169842  75.2599812   6.7954147
  65.1382113  75.5468893   6.1845326  66.6243744  75.6446409   6.4542538
  84.1298676  92.7115822  19.2305648  83.6390305  93.4051895  18.7898648
  84.6394920  92.2987175  18.5333848  98.4451580  37.9825377  19.4826090
  99.0495777  38.6589622  19.7881639  97.9560471  37.7273130  20.2648234
  79.3780851  94.5423126  31.8270087  80.0776005  95.0677299  32.2153974
  79.4959641  94.6469402  30.8828735 110.9674072  53.6345053  28.2013154
 111.2941647  54.0129042  27.3850584 110.1229286  54.0624714  28.3425283
  44.2335301  35.5775155  83.6850687  43.8586026  36.4521398  83.5816498
  45.0725919  35.6208505  83.2264586  80.4211044  84.3175602  15.4762208
  79.9132490  84.7840309  14.8123527  81.2787724  84.7423935  15.4639506
  54.6579534  25.1223554  71.7923756  54.1159898  25.0583066  72.5787635
  54.3556005  24.4060077  71.2341161  73.7427312  37.0445623  86.3887359
  73.5261327  36.6569795  85.5407395  74.2685205  37.8147210  86.1727871
  94.3377304  94.6206093  11.5411806  94.3378830  93.8797092  12.1472239
  93.4170628  94.7385597  11.3073254  87.4030477  14.7713603  81.3528796
  88.1787759  14.2175950  81.2644001  87.6040059  15.3492393  82.0890220
  66.7862129  68.3466578   6.3996291  67.2120619  68.2560778   5.5471736
  65.8992577  68.0145979   6.2607700 102.9833031  75.1196432  11.7997348
 102.1847630  75.6281042  11.6581750 103.0651855  75.0623798  12.7517056
  82.3846722  56.4307165  30.1327872  82.8987122  55.7910156  30.6255007
  82.8620720  57.2536850  30.2378941  40.4479581  30.6039037  91.0393350
  40.5003291  30.3005113  91.9456722  39.6796352  30.1588430  90.6817983
  72.5742483  84.5978451  23.2440376  73.1439972  85.2120304  22.7810121
  72.0141697  84.2291546  22.5609469  96.1724377  83.1610489  24.7747755
  96.3481045  82.4661160  25.4091620  95.3313732  83.5275555  25.0477624
   9.2502463 105.3101969  66.4587684   9.6498263 105.7051707  65.6838103
   8.7324297 104.5816375  66.1162849  73.6888027  67.9908562  13.8902092
  73.0416059  67.5158262  13.3689451  74.4933939  67.4810362  13.7956524
  89.4220829  55.3608418   4.2112365  89.3035984  54.5455074   4.6984938
  90.1398087  55.8065939   4.6611419  10.1227247 102.2452403  86.9931753
   9.3676722 102.2649956  87.5811763   9.9719774 102.9691888  86.3853885
 100.0855160  59.2772007   9.3430579  99.3465996  58.9132786   9.8307014
  99.6866131  59.6926689   8.5785329  25.0132447  30.2583780  74.7694178
  25.3537112  31.1529817  74.7705598  24.6874028  30.1249780  75.6595107
  79.9041051   6.6880454  12.2908962  79.7384757   6.5436781  11.3592541
  80.6952495   7.2264136  12.3129010 109.6714973  87.4044228   3.7718093
 109.3572712  87.5015068   2.8728804 110.1070118  88.2347965   3.9642870
   4.1091675  67.6732397   7.4272877   3.2640404  68.0830622   7.2427970
   4.6822972  68.4023666   7.6642036  87.8955251  46.6852369  84.1943963
  87.7528459  45.9199037  84.7512944  88.8406068  46.6985406  84.0431447
 116.4525604  70.3622723  18.9533091 115.8944035  69.7197962  18.5152292
 117.0046139  70.7152843  18.2555568  62.0191431  77.9703474   3.4450582
  62.4347115  78.4122610   2.7046239  61.2486219  77.5452185   3.0685011
  78.7024861  15.5699672  80.9070404  78.0061322  15.2822770  80.3166528
  78.4074098  15.2978219  81.7760070  58.4164190  68.8143492   7.5651532
  58.7680626  69.4883919   6.9835687  58.8679552  68.9564896   8.3971053
 111.7578793  53.2642698  32.6416230 112.3814487  53.0573273  31.9455147
 111.3592052  52.4229240  32.8639507  73.4708279  68.1043602  87.6224460
  74.2198532  68.5312880  88.0382897  72.8746050  67.9092158  88.3454038
 104.1023636  43.3149290  17.1404898 103.9677906  43.7176657  16.2826312
 104.6669197  42.5619698  16.9656813  27.3290425  29.0084733  90.5026804
  27.1411878  28.1111325  90.2275272  26.4911634  29.3405046  90.8250944
  56.8278771  11.3261642  85.4106493  57.5144940  11.6138400  84.8089679
  56.0181695  11.4078798  84.9067350  73.8239956  87.9862022   7.0033282
  73.7563038  88.0569363   6.0511482  73.4568882  87.1258068   7.2062856
 104.7875404  89.6924782  10.0606179 104.0164757  90.1002693   9.6664131
 105.4082584  89.6046925   9.3372673 116.1435318  76.5146589   8.8255030
 116.0192680  75.7183933   8.3090192 117.0019913  76.8424463   8.5575002
  66.9944650  18.2097234  82.9826315  66.7595273  17.8422727  83.8346978
  67.9315072  18.3927955  83.0508872  79.8283625  67.7957153   7.1463400
  79.8396206  67.8040361   8.1034380  79.2903471  68.5502195   6.9065702
  82.9224586  54.6858978  20.0054646  82.4683380  55.1918411  20.6792831
  83.1985283  53.8856125  20.4521823  71.6767931 100.3740406  38.3901072
  72.6327324 100.3311920  38.3661103  71.4820051 100.9772301  39.1073608
  85.2467728  66.2280321  27.3230362  84.6631145  66.5306330  26.6273284
  84.8061943  66.4837599  28.1334233   8.0777515  11.9117869  20.5909729
   7.1586765  11.6457785  20.6188083   8.0663741  12.8381480  20.8317208
  12.5202715 102.4926234  90.9687059  12.3834860 103.2613421  90.4150011
  12.4984991 102.8343487  91.8625625 104.5144463  69.2653799  24.5550919
 103.9020634  69.9229717  24.2252541 104.2519951  68.4541416  24.1200709
   2.4457913   9.8342456  95.6117599   2.4100953  10.0905647  94.6902087
   1.8994981   9.0499534  95.6635529  57.6708585  52.5353612  86.9736518
  57.2023946  51.7927636  86.5924294  56.9799405  53.1289090  87.2678603
  56.7503262  24.0983295  14.0482628  56.4094734  24.8537350  13.5692894
  57.5150919  23.8203120  13.5442078  30.1804811   9.2245807  73.8454552
  30.3131419   8.4595527  73.2856627  29.3600350   9.6084251  73.5360046
  98.7369061  88.2116032  40.1587772  98.4580421  88.3051300  39.2478895
  98.0251598  87.7286339  40.5787706  59.4912767 108.5801411   4.9946785
  60.0592804 107.8190613   4.8748422  58.6631203 108.3275795   4.5865092
 104.6762276  64.4432020  19.6618414 105.3083992  64.7581434  20.3079152
 104.9687481  64.8254156  18.8344491  94.9647522  74.0029907  41.0426998
  94.9199963  74.2839241  41.9566488  95.9016228  73.9555836  40.8522987
  72.2992945  84.5351315  10.2826941  72.6217937  85.0587940  11.0161805
  71.3465548  84.5592594  10.3718066  96.0815144  64.4434452   0.5864150
  95.4856014  65.0655603   1.0036659  96.4837265  64.9387550  -0.1271164
  53.3862829  55.5103397  15.0808799  53.2137251  54.7259951  14.5600581
  52.7462196  56.1502838  14.7693872  66.6794872  39.3789768  19.8081398
  66.4398861  38.5206318  19.4587576  66.4843178  39.3198776  20.7433653
  68.3486176 103.7573433  35.2143455  68.8171959 103.1260300  35.7603359
  68.5257959 104.6048927  35.6223917  89.5197964  90.3355026   1.9569720
  88.6930084  90.3741169   2.4377647  89.6416950  89.4058323   1.7644061
  60.1238346 105.6041241  22.5722694  59.2688370 105.2265739  22.3657036
  60.1925039 105.5348682  23.5244894  67.2582990   4.3229379  55.0738903
  67.6161080   4.7615518  55.8457871  66.3186055   4.2635717  55.2462049
  58.3569127   9.2167892  81.2712331  58.5381776   8.4037818  81.7428203
  57.4419576   9.4121398  81.4735384  81.7319965  81.8699074  -0.1885776
  80.9042072  81.8413734   0.2911896  82.2614002  81.1767578   0.2057724
  57.2640467  50.2506590   4.0822649  56.7716360  50.3211117   4.9000677
  58.0310726  49.7248602   4.3090630  57.4111986  65.7213783  16.0709405
  57.8226137  64.9614954  15.6591785  58.0435753  66.4300013  15.9518337
  86.4045906  48.0640364  25.7229376  86.2740612  47.1627426  26.0176754
  86.6182137  48.5482788  26.5204978  61.5784931  46.0059357  24.6098423
  62.3389149  45.5171347  24.2950892  61.3233948  46.5553522  23.8686991
 114.8056065  33.6682405  70.4148956 115.2285158  34.4126023  70.8430524
 114.1400754  34.0626229  69.8511858  23.5606539  98.6702395  80.7675798
  23.9282477  97.8291989  80.4960092  23.4751379  99.1680051  79.9544712
  64.2234087  85.2426338  23.9478350  64.0882063  84.4830227  23.3813190
  64.8907375  84.9594784  24.5729184  57.5012779  68.7030172  49.1208601
  56.9135809  68.8682508  48.3836079  57.6693106  69.5691824  49.4920063
  79.1848069  34.6640672  92.8205274  79.3679887  33.9681901  93.4517376
  78.5356790  35.2170648  93.2553475  88.2880878  55.3117466   1.1138717
  88.4333897  54.8252439   0.3024289  87.9102898  54.6689558   1.7141402
  96.7000580  69.2129278  40.2986860  96.2608147  68.5227060  39.8018026
  97.6224232  68.9570475  40.3001738   1.7948288  71.9957876  12.1830630
   1.9821209  71.4631081  11.4101446   1.3337941  71.4029455  12.7765393
  57.1759206   2.8491248  74.5826359  57.3015767   3.1855859  73.6953731
  57.6454812   3.4677638  75.1421257  92.8235817  62.8774214   9.2272252
  92.0489216  62.9282761   9.7871768  92.4819660  62.6315975   8.3675158
 100.4592419  85.5492306  48.9066124 100.0196362  85.7118320  49.7412062
 101.1029053  84.8686790  49.1035461   6.0553485  33.0065812  74.7132178
   6.6736489  33.1314840  73.9932604   5.2879125  32.6074876  74.3033429
  15.1768380   8.9899625  91.4485382  15.4687100   8.3866443  92.1319471
  15.7102901   9.7741927  91.5775685  16.4082014  74.9472976  79.5480390
  16.8044531  74.6902717  80.3805967  15.4669344  74.9513901  79.7219248
  76.0295391  98.5360622  22.5011301  76.3731813  98.8428974  21.6620851
  76.1098909  99.2914486  23.0835199  33.8504374  84.1380573  92.4795173
  34.7427046  83.9321590  92.7582668  33.2928049  83.6164284  93.0567315
  96.9109535  23.5279131  34.8445654  96.9781685  23.0613565  34.0114737
  96.0119438  23.8560247  34.8634696  50.1435852  98.5324001   9.2934155
  50.1598215  99.3467999   9.7961295  50.8325624  97.9954910   9.6849138
 106.2595367  64.9532318  22.2218204 107.1921444  65.1376724  22.3334241
 106.0741806  64.2624998  22.8580308  81.8750954  58.8853312   3.0940962
  82.3763561  58.7196493   3.8925442  82.4523544  58.6008406   2.3855296
  73.0536461  96.1882591  27.5855446  73.0905199  95.6926441  28.4036136
  73.8357162  95.9163094  27.1052909  73.5767919  33.1792821  87.4769373
  73.5043889  33.6469640  88.3089598  72.7076226  33.2549848  87.0831950
  64.8001844  16.9909610  71.1073633  65.6987840  16.7017068  71.2657423
  64.8028356  17.9193725  71.3403388  51.5836602  17.4882259  84.4285615
  51.6584474  17.8834428  85.2971478  51.0232621  16.7235650  84.5607920
  52.5331783  66.5483189   2.7766573  53.0771494  65.9187174   3.2498658
  53.0561399  66.7896795   2.0121387  83.0829144  55.0644541  34.6797061
  83.3158398  55.8284426  34.1521645  82.2823620  54.7295141  34.2757654
  70.8005095  60.8222818  11.4207566  70.3067970  60.4721975  12.1623218
  70.1415157  60.9693193  10.7422733 111.3408852 100.4639721  13.7629795
 111.7845249 100.5403042  12.9182410 110.4405022 100.2275467  13.5401487
 112.8811663 107.5435496  93.2906652 113.1783550 108.0490971  94.0471927
 113.3314913 107.9408026  92.5452580   4.8737031  18.3586301  90.7320564
   5.4987031  18.1751050  90.0306799   4.5830375  19.2552509  90.5653016
  62.7462816  83.3903885  19.3315244  62.6125574  83.2450962  20.2681351
  63.1286287  84.2662334  19.2772067 100.5106735  71.3479376   1.0349967
 100.1799011  72.0464611   0.4702922 100.0600910  70.5602217   0.7305250
  80.1560116  38.2337832  40.6022215  79.4975519  38.7173390  41.1010599
  80.9927082  38.5864186  40.9052324  70.6776410  31.6967382  75.8221527
  69.7460443  31.9018449  75.7427927  70.7778150  30.8590211  75.3700157
  80.2681732  81.8401909  25.2980757  80.6175041  81.3768291  24.5368338
  79.4322300  82.1973228  24.9982476  29.8230899  10.0862826  30.7092714
  29.8544563   9.4944705  29.9576020  29.1705383  10.7441081  30.4691148
 107.8863907  89.1387749  40.3296804 108.8090134  89.3698406  40.4374409
 107.4136734  89.9524975  40.5046892  35.1041794  99.8722649   7.5062031
  34.1965580  99.7448158   7.2301370  35.6252956  99.5792007   6.7586857
 102.1781445  84.1725445   4.4074106 101.6722202  84.9004936   4.7684783
 102.8239250  83.9705944   5.0844711 114.0722561  55.2182627  12.2746801
 114.4215870  55.8335876  12.9193318 114.8452473  54.8816395  11.8214715
  84.3110847  97.3730755   6.2911981  84.9267197  97.6724243   5.6221598
  84.3278313  96.4185143   6.2221682  83.2342148  37.0556521  24.7770524
  82.8732395  37.7236104  24.1941643  83.6273479  36.4112592  24.1884637
  86.9648855  89.6577192  85.8603974  86.6157930  89.1790844  86.6122450
  87.2539537  90.4951692  86.2228181  89.6371954  58.1397534  92.8192352
  90.5199163  57.9183672  92.5225483  89.3858736  57.4116627  93.3875254
   8.3115351 107.2116423  84.8736985   9.1853869 107.5648928  85.0405128
   8.0950319 106.7231799  85.6679048 113.4538286  93.0646826  85.8048935
 113.5463016  93.1449772  86.7542269 112.5196188  93.1964207  85.6432529
  91.4275074  26.8230939  40.7269430  91.5712452  27.6334238  40.2381325
  92.2832203  26.6144514  41.1017084  48.6808538  16.7158222   8.5750943
  48.9224005  17.5894618   8.8827336  49.4699144  16.3868630   8.1445146
 110.8294361  91.1997724  86.4634146 110.5127495  92.0124484  86.8577452
 110.9677809  90.6114197  87.2056635  80.5043507  58.2796383   8.4823042
  80.0171852  57.4952650   8.2300007  79.8524523  58.8424492   8.9000392
  77.5091410  61.5222883   5.3595358  77.5097656  60.6868505   4.8923329
  77.1077442  62.1388483   4.7471941  87.1363609  91.7741442  82.8890355
  87.3806112  92.4218679  82.2279568  86.6500204  92.2732902  83.5452075
  51.6937637  45.6968403   8.3670205  51.8886995  46.3977718   7.7449864
  52.5510502  45.4129219   8.6843222  69.3365002  70.5857611  11.0579073
  69.8926973  71.3234234  10.8074450  68.4572935  70.9590483  11.1202359
  97.9850548  58.9218838  75.2298589  97.7132194  58.7783731  76.1363597
  98.5976618  58.2092736  75.0478406  73.7653065  32.8626227  30.4514503
  74.1248560  31.9931507  30.2754664  73.7400198  32.9225540  31.4064384
  94.1227024 101.6911936  81.8374773  94.9251621 101.9071437  81.3624449
  94.0663355 102.3536969  82.5260599  60.4590702  55.9862947   4.9482700
  60.1143599  56.0542917   5.8386540  60.1292038  56.7670393   4.5034564
  23.0761003  34.9814701   0.8947846  23.1610179  34.7893333   1.8286501
  22.2701812  34.5373416   0.6311961  82.4086761  15.5885851  39.0999341
  82.3726273  14.6403420  38.9743710  82.6089859  15.6996751  40.0293255
  53.9984953  91.9610787  83.9806183  54.4368422  91.2698270  84.4768627
  54.6305620  92.6796604  83.9612742  63.9743280  40.4465294   2.0156235
  64.8743057  40.2686071   2.2887917  63.5844469  39.5804524   1.8967479
  27.3404694  25.9902024  19.9030721  27.0898700  26.3155293  19.0384364
  27.8237343  26.7144942  20.3006768  43.1347656  21.0335255  17.6223147
  43.6089706  20.5133629  16.9736266  43.7624216  21.7010188  17.8993225
  58.4728670  26.4249349  24.3213487  59.1319370  26.4730310  23.6288571
  58.9091015  25.9599662  25.0353050  72.0306396  52.4634171   2.5241727
  72.8890324  52.4844980   2.1011472  71.4156485  52.7004385   1.8300244
 116.6565531  90.1580167  78.0429645 117.4051588  89.6043516  78.2649370
 115.8929699  89.6480990  78.3134480  70.0733948  55.3661728  31.2886477
  69.8609734  54.6059942  30.7471395  69.4268751  56.0263586  31.0388517
  25.1984149  10.8651342  56.2952967  24.8347932  10.1868285  55.7261630
  24.9935514  10.5688419  57.1821328  11.9259607  74.2503739  85.3027101
  12.6493132  73.7598861  84.9123033  11.1757528  74.0595520  84.7396811
   3.6365568 102.8493739  74.4391580   4.5058405 102.9575921  74.8249932
   3.4510767 103.6927987  74.0262886  28.3255082  42.3482026  91.2446885
  28.6313802  43.0919828  90.7256018  27.6353198  42.7111806  91.7997681
  64.6033841   4.7011604  82.0047577  65.3217393   5.0855674  81.5023239
  64.9207192   4.6920480  82.9077824  86.5744560  99.5400954  91.7001255
  86.3199633 100.3508616  92.1407147  87.0666139  99.8293400  90.9317853
  56.8404675  34.1606760   4.9015853  56.7394543  33.7872624   4.0260330
  57.7818012  34.3091083   4.9915287 113.2705658  96.3824273  66.0330625
 114.1221159  96.8191338  66.0524197 112.6652210  97.0519591  65.7144399
  70.9472513  25.7737279   1.8140309  71.4772081  26.5630507   1.7029306
  70.2522230  25.8580494   1.1613000   5.7898295  42.5620163  93.1926991
   5.7460463  42.0167423  93.9781870   5.3791773  42.0316935  92.5097989
  79.1124105  22.7983069  37.1408033  79.4897747  23.5532284  36.6892290
  79.7687101  22.5577164  37.7947307  78.2144516  84.9575592  81.2963195
  77.6098078  85.6974030  81.3534911  78.7938803  85.0629140  82.0509048
  91.2860268  78.4250808  85.7267030  90.8519428  78.3130193  84.8809810
  91.2276905  77.5645233  86.1417563   9.8238432  70.0538290  91.1032464
   9.4700491  69.1714955  90.9912159  10.7093775  69.9159027  91.4394592
  58.4077024   4.0343115  24.0215087  59.2309237   4.1789803  23.5550237
  57.7609348   3.8976705  23.3292270  67.7817726  27.6466250  14.3148518
  67.2308445  28.3907461  14.5577359  68.6468983  28.0279088  14.1651356
  67.1096087  11.5111136  39.6709061  66.9348717  10.5731010  39.7472525
  67.4511576  11.6196585  38.7833285  69.0570259  40.5580950   1.5483701
  68.8907957  40.6849575   0.6142900  68.1882238  40.5694723   1.9499685
  55.6252938   0.3814544  91.2204857  56.5418416   0.2870740  91.4798670
  55.4275209   1.3057031  91.3717546  42.9609632  63.9894152  22.3903918
  42.2818375  64.1156912  21.7277646  43.7718725  64.2531395  21.9555330
  98.1740349  93.0318857  80.4739912  97.2522657  92.9704905  80.7245977
  98.2297914  93.8386584  79.9618991 113.5703104  95.7445861  90.0860377
 112.7205294  96.0633136  90.3902145 114.0116709  96.5240575  89.7486104
  75.9433126  61.1598635  16.1013865  76.7818642  61.3331985  15.6735790
  75.6244373  62.0238495  16.3623083  72.4571037  23.0524087  21.0019422
  72.9467487  23.8739872  21.0405087  71.8582678  23.0952621  21.7474556
  58.0372334  48.8840675  15.2267611  57.4061775  49.5833492  15.0564361
  58.4278870  49.1140938  16.0697961  82.1527863  11.6532838  19.3480706
  81.8646812  12.0923078  20.1483750  81.6393566  10.8459353  19.3196619
 102.5700729  84.2745138  88.9936276 102.8583734  83.7035537  88.2815029
 101.7980593  83.8376308  89.3532993  21.0620671  16.0775603  80.1679702
  21.9945556  15.8795346  80.2544804  21.0341769  16.8692388  79.6306677
   6.7642748  98.6739732  94.3212047   5.8418905  98.5263158  94.5300988
   6.8057882  98.6168242  93.3666146 104.7604453  11.2019910  76.0871227
 104.0064966  11.7393722  75.8441980 105.5200326  11.7374791  75.8579774
  51.7411309  22.1900405  73.1464215  51.5887147  21.7209901  73.9667793
  50.9385758  22.6921453  73.0049224  91.0499287  57.4762869  17.9893124
  90.5008698  58.1408834  17.5732780  91.9234562  57.6268435  17.6280570
  95.6366634  38.1428909   0.9103719  94.7665882  38.1270337   1.3090545
  95.4961205  37.8315210   0.0162090  27.3362219  91.6741062  82.9691346
  27.2318899  90.7409669  82.7831300  27.1933329  92.1038628  82.1258529
  50.9464627   3.6785354  78.5572978  51.6548139   3.6740150  79.2010684
  50.2125722   3.2583608  79.0057381  12.2677690   5.5134000  82.9495652
  13.1281549   5.4254903  82.5393994  12.2613174   6.4023627  83.3044465
  50.0473309  50.6828594  21.7271805  50.0078392  51.5550804  21.3348770
  50.8281517  50.2830791  21.3441277  68.0704975  44.4863272  23.2362580
  68.4048653  44.8872042  22.4339318  67.4067926  45.0996256  23.5518384
 100.7960956  69.7208274  76.7859717 100.8832376  69.1057444  77.5141962
 101.6958397  69.8907531  76.5070100  19.6634829  82.9998995  68.6209007
  20.3609812  83.2902861  69.2086192  18.8762343  83.4327079  68.9512678
  91.7213249  30.5720949  21.4315915  91.8634129  29.6257234  21.4522171
  91.1870575  30.7171130  20.6507230  17.9509985  92.2437096  87.6800783
  18.8684332  92.4000812  87.4562819  17.6454031  93.0784918  88.0350192
  12.2757303 107.9161931  66.4844294  12.2249758 107.8706504  67.4391981
  11.4850580 107.4701024  66.1810012  34.5161402  85.7853771  87.4343456
  34.6443045  86.5304447  88.0214413  34.2291796  85.0749469  88.0080803
 111.1122339 102.2393084  55.5527444 110.3020685 102.2197819  56.0621377
 111.6543882 102.8958226  55.9901090  90.7255428 101.5904427  75.1668759
  90.8592575 102.1856642  75.9044810  90.9008997 100.7207108  75.5261119
  33.2535815  49.9346352   4.3511251  33.2945514  50.3894806   3.5098958
  33.8691401  50.4088831   4.9100590  84.2006748 109.4709254  90.1740118
  84.8564356 108.7899161  90.3237923  84.5469730 109.9798012  89.4409652
 114.1183060  69.4848121  94.7397088 114.4655388  68.6914957  94.3318966
 114.2617481  70.1714123  94.0883759  83.4429264  58.0297518  16.6053557
  82.8784847  57.2795630  16.4186764  84.1156864  57.9984236  15.9251750
  80.0010777  13.1741428   0.5175603  79.6713638  12.4126410   0.0404475
  79.3620920  13.8640010   0.3385949   1.0839492   3.2538070  88.6661728
   0.2632719   3.0171718  88.2340534   0.8756524   4.0487565  89.1569837
  53.8747597  88.6632919  39.2486477  54.0002871  89.5973396  39.4160461
  52.9906750  88.4797192  39.5663309   5.8397925 103.7110139  92.7503629
   6.4818537 104.4116402  92.8648998   6.3633406 102.9392672  92.5346624
  97.2583979 105.9339953  90.9578510  97.0231073 105.0121117  91.0627230
  96.5191048 106.3177157  90.4862108  10.1776755  95.7035590  89.6511544
  10.2714407  96.5017176  89.1311760   9.8905432  96.0103417  90.5111946
  79.8065758  21.2307191   2.9789910  80.0479889  20.6389928   2.2663805
  79.0748405  20.7942724   3.4152323  11.2070733  56.1823549  64.5191546
  11.4174205  57.1116533  64.4275303  11.8434745  55.8542337  65.1544209
  47.3398066  12.7899158   2.5988853  48.2723379  12.6022959   2.7057531
  47.1021414  13.2792163   3.3864975  72.9925251  37.1775818  23.9238548
  72.8370380  36.2512970  23.7393165  72.4503279  37.3633671  24.6904945
  46.4600068   3.3228196  92.9284056  47.0142251   3.9829244  93.3447433
  46.9682294   2.5136031  92.9842310  43.7318212   5.9031715  74.4044061
  44.0440160   6.7749204  74.1618796  44.4061261   5.3077068  74.0773626
  69.4564819  30.3887343  46.5544176  70.0908947  30.8833766  47.0731497
  68.6914253  30.9615874  46.5018749 104.8267651  55.3035641   4.7731054
 104.6552086  55.6700850   3.9056578 105.7524109  55.4881096   4.9323052
  79.0361023  56.1196852   8.0695319  78.1530190  56.4771461   8.1623489
  78.9062214  55.1733065   8.0084646   1.7280638 109.7970296  86.5657319
   1.9070637 110.7354069  86.5054657   1.2559664 109.6958495  87.3922403
  33.1732046  99.0346432  71.3671155  32.8615153  98.1871749  71.6847320
  33.5747111  99.4446231  72.1332379   6.4495337  67.7767540  45.6409927
   5.8774054  67.6141847  44.8910041   6.8478548  68.6277617  45.4583545
  38.1851732  80.2657247  95.0649539  38.9860785  80.7518531  95.2610622
  38.0666506  79.6858979  95.8172735 104.5087068  84.7256399  72.6166006
 103.5601681  84.6053720  72.6618190 104.8299044  84.4172359  73.4639211
  61.8919802  54.2328167   3.1054074  61.2130451  54.7840166   3.4945795
  61.8144798  54.3862629   2.1637711  39.9364340  80.0592828  87.6339944
  39.7390616  80.9098459  87.2417922  40.8834326  79.9630142  87.5331970
  57.4421006   8.3634080  78.0799063  56.8870526   8.1093873  78.8172157
  57.1583634   7.7988662  77.3608668  17.4881202  13.5895051  55.8688899
  17.8601628  12.9201831  55.2945896  18.0491859  14.3542804  55.7402511
  35.7087022   9.8530664  80.7768710  35.3518849   9.0379419  81.1296971
  36.5840942   9.9164571  81.1588402  34.9072385  30.5691433   5.3476453
  34.7611308  29.9635720   4.6208942  35.6900430  30.2341008   5.7849038
  91.8483639  52.7221394   1.5841514  91.4532948  52.0182514   2.0986341
  92.3674679  52.2702503   0.9189063  28.2236844 101.8333661   3.1461370
  27.6745397 101.1776130   3.5758597  27.6574975 102.6002656   3.0593765
  91.6862679  42.3233604  18.1608427  90.8359718  41.9634199  18.4131777
  92.1828938  41.5674400  17.8475094  72.9206133  43.7443304  10.1312339
  73.2177544  42.8344202  10.1309443  72.3934555  43.8244009   9.3362963
  69.3128252  52.9533005   3.6496025  70.1709747  52.7879953   3.2591072
  68.7074280  52.4240923   3.1303090  61.5139961  31.6998982  23.2152367
  61.1009216  31.8948388  22.3740482  61.1125994  30.8769083  23.4941649
  60.5941373  15.6078996  57.4896880  59.8091394  16.1177482  57.6898547
  60.4097634  14.7366132  57.8405376  18.8251334  22.4906673  89.2388947
  17.8823882  22.6062192  89.3576928  19.1940003  23.3609523  89.3897833
  83.1096380  76.1064125  86.0459252  83.0552881  76.8814254  86.6050615
  82.3025673  76.1250520  85.5316134  90.3855896  40.4173756  21.6537476
  90.3377151  39.4672918  21.7599535  91.2924576  40.6368637  21.8674183
  68.6033678   3.8893080   4.4760096  68.9094591   4.7628707   4.7197935
  67.8470230   4.0493867   3.9116079  35.4578733  61.6483212   1.7506184
  36.0913539  60.9334660   1.6880333  35.8455491  62.2575712   2.3789167
  75.9244424  33.2351865  75.7705505  75.4877168  33.0251016  76.5959974
  76.2199861  32.3892869  75.4338880  72.1655147  87.7024341  89.8242523
  72.7974670  88.3622647  89.5387830  72.0743888  87.8495551  90.7656785
  81.4738369  25.3667855  12.8324914  82.2116280  25.3976250  12.2234380
  80.9675312  24.6026254  12.5568998  14.7117865  88.7115670  49.8289390
  14.4683420  88.0372835  49.1946598  14.5726263  88.2996536  50.6816907
  76.4503288  31.0418987  34.3568826  76.5459061  31.1684704  35.3008509
  75.8864021  30.2728820  34.2742252  80.4853326   1.5340175  75.6716128
  79.9785691   2.3199214  75.8760221  81.3797742   1.7505826  75.9348603
  65.5262709  70.8256102   0.0442985  64.5719671  70.8995962   0.0363404
  65.6941557  69.9207020   0.3073331  61.9360143   9.8418082  91.0298129
  62.3288518   9.6107473  90.1880719  62.2907907  10.7080068  91.2299745
  80.9029484  56.9760990  40.0386047  80.8476734  56.8009996  40.9780312
  79.9944258  57.1011019  39.7644043  29.4026720  98.8727380  85.0653227
  29.0420401  97.9879142  85.1224025  29.9920809  98.8429976  84.3117042
  68.1037998  64.0232897  27.9799533  67.5994205  64.4556999  28.6690497
  68.8470840  64.6062899  27.8254604  86.7971420  37.4287486  24.1851354
  87.0942020  38.2693028  23.8366294  86.4225864  37.6426601  25.0396395
  60.3456926  13.0039680   4.7051433  59.6519136  12.4588072   5.0762260
  60.4792738  12.6547241   3.8239983  26.4591181  81.7005373  92.3725374
  25.9807169  81.7773843  93.1980471  26.1329806  82.4248028  91.8383949
  88.0381680  36.0824800  14.4919038  88.0443668  35.7050252  13.6122906
  87.4307537  36.8198228  14.4318616 107.5811768  38.8116860   0.8869297
 107.5754261  38.3862281   0.0295005 106.6814709  38.7267804   1.2024690
  18.0457461 105.0802088  79.6180649  18.6212027 104.6134425  79.0120824
  18.1981527 104.6602393  80.4646059   4.3482744  96.5449095  64.3000694
   3.5182058  96.9298745  64.5811649   4.5069945  95.8362723  64.9236651
  59.6040135  31.3541116  91.7618977  59.7647554  32.2102727  92.1585994
  59.7570401  31.4908113  90.8269496  38.7309324  92.2517443  90.3225674
  39.5729696  92.4632955  90.7256116  38.7406695  91.2987352  90.2336170
 111.9275856  24.8900533  17.3766482 111.2002373  25.1924157  17.9204988
 112.6821136  25.3916979  17.6853073  44.4178754   2.4011125  75.7641299
  44.1736966   1.7295016  76.4009579  43.6024743   2.8695573  75.5855008
  56.0315972   2.0491924  78.9128478  56.0628301   2.9983892  78.7933178
  55.4529935   1.9213618  79.6645852  26.3948661  12.5887717  94.6549840
  26.4967710  12.5821151  95.6067204  25.5885249  13.0819453  94.5038849
  78.4808254  68.2588482  17.2446227  78.9960098  68.8999939  16.7549789
  78.9790297  68.1154537  18.0492711  83.7328625  36.8186259  12.0557320
  83.2591438  37.6398659  12.1876013  83.0465603  36.1655664  11.9188368
 106.7360210  24.8673391  29.0479827 105.9570408  24.5582676  28.5854983
 106.5061188  24.8016524  29.9748373  77.3372507  78.4469557  18.7165582
  77.2299004  77.9372883  19.5196450  76.6084146  78.1730032  18.1598008
  14.5783931  22.4265565  66.1736889  13.9695388  21.7673768  66.5068622
  15.1668912  21.9393291  65.5970474  66.7737436  45.7190323   3.5424224
  66.7834425  46.3754082   2.8457817  67.6307440  45.8011293   3.9608008
  55.7154131  45.9274101   5.2293241  54.8820114  45.5676556   5.5330521
  55.7467508  45.7062674   4.2985475 115.7090872  81.6611362  80.2677854
 116.0980194  81.6160370  79.3943258 116.1886137  81.0080815  80.7774981
  40.4059917  10.4550924  71.6420002  39.6603709  10.8675803  72.0780488
  40.3510362  10.7580461  70.7356735 113.2422893  86.3529444  91.6589941
 113.9526241  86.9301749  91.9391056 112.4884479  86.9336653  91.5554960
 111.2441128 104.0867377  82.4217303 111.1170071 103.7498666  83.3086308
 111.7386597 104.8974038  82.5420256  52.8681165   7.5105275  75.6309183
  52.2862321   8.0511131  75.0966831  53.1818563   8.1010141  76.3158460
  85.7216740  49.1175747   8.5084534  85.1040840  48.6673498   7.9321575
  86.1678028  49.7441292   7.9386890  88.1620121  38.8179421   2.2956589
  88.1437492  38.9353585   1.3458632  88.2581806  37.8735352   2.4184389
  96.5131014 102.9493809  90.2559354  96.9923942 102.8978396  89.4289811
  95.5927484 102.9949666  89.9969007  95.4882496  98.2088662  86.0986854
  96.0178106  98.7896729  86.6450019  95.4084843  97.4045420  86.6114570
  88.4891129  13.0473328  11.0340893  88.5822105  12.7320635  10.1351070
  88.3941460  13.9957893  10.9466577  97.3534566  20.7481422  95.1891935
  96.9991761  20.8832444  94.3102957  97.8266316  19.9180640  95.1317084
  40.2613890  96.9878817  87.2212048  39.3976557  97.3111249  86.9648816
  40.5513823  97.5940610  87.9028829  16.2432748  25.7578649  80.8607073
  15.9281474  25.3975476  80.0317951  17.0020372  26.2885846  80.6181295
  74.6157646  37.7374315  29.4209790  74.5297194  36.8851185  28.9939046
  74.5458412  38.3712053  28.7070632  63.9860582  75.4141998  30.1097202
  63.7226105  76.3065577  29.8849559  64.9410677  75.4230833  30.0456214
 105.3024452  97.8867675  81.2002941 104.3992107  97.7859832  80.8998914
 105.2355545  98.4388161  81.9793947  79.7113466  31.6133451   2.3777409
  80.1296520  31.5631247   3.2372341  80.4096127  31.4001369   1.7587054
  74.7264481  25.0456142   0.6051602  75.5406475  25.1997209   1.0842893
  74.4372511  25.9179497   0.3375304  99.3591404  55.5610657   8.6760390
  99.4292164  56.3724709   8.1731069  98.4210014  55.4588938   8.8363272
   8.9318049  92.4511386  84.9556919   9.8613703  92.2327185  85.0222846
   8.4839022  91.6060448  84.9934347  89.9254417  44.2696524  29.9398112
  90.4471493  43.8326454  30.6129217  89.1216564  43.7526226  29.8865199
  35.6146937   2.4905910  79.4351907  36.1150056   1.7431869  79.1076274
  35.2777701   2.2003164  80.2828069  63.5795689  21.4557195   6.7618519
  63.4734774  21.9011736   5.9212887  63.1425428  20.6124616   6.6428763
  38.4259778   4.7502937  88.0496402  38.8307410   4.8343457  88.9129670
  38.1319505   5.6357421  87.8357311   2.7404732  29.5583415   5.7590336
   3.3523793  30.2725148   5.9372401   2.7946514  29.4271135   4.8124200
 108.5141580  96.1888171  64.4204588 108.3472460  96.4294577  63.5091610
 108.9001100  96.9740248  64.8086877  20.6068832  15.8272113  61.5986224
  20.9336263  15.9220971  62.4933095  20.2705175  14.9318828  61.5601702
  70.2333736  43.8746452   2.2519335  70.8484316  43.4192896   1.6769610
  69.3771648  43.7303400   1.8490514  76.9984418  36.5037336  89.0727343
  77.8684121  36.8991842  89.0179844  76.4865476  37.1222867  89.5938738
  91.3762379  69.4600868  10.3513503  91.7652607  69.2368078  11.1969483
  91.1212635  68.6176777   9.9750906  86.9353294  69.1675806  11.5596318
  87.2516441  69.3859243  12.4362743  87.4042511  69.7674179  10.9795117
  20.1096213 104.4301940  76.0784419  20.2960169 103.5683013  75.7061108
  20.2944624 104.3326379  77.0125444  73.2253027  46.4558554  44.5709658
  73.3460951  47.2629929  45.0711393  72.3346806  46.5189123  44.2259312
  56.0185957  43.4951162   7.3729986  56.9611645  43.6290550   7.4722731
  55.9195900  43.1327295   6.4925987 110.7107942 100.5596019  67.5834771
 111.6151636 100.2556802  67.6608272 110.5981653 100.7413483  66.6504641
 101.9726181  57.9834175   7.7953267 102.2604752  57.9944992   8.7081516
 101.2157440  58.5690689   7.7757394  96.7946035  22.4860896  92.2596987
  97.0798379  23.3431758  91.9430228  95.9972173  22.6677407  92.7570914
  41.1629182  23.2224263  89.5948817  41.8952447  23.0621423  90.1900573
  41.2249166  22.5224866  88.9449014 104.1428566  61.9859171  31.4288855
 103.6431026  61.3746166  31.9699764 104.6032047  61.4289427  30.8011174
  99.4240379  20.2730751  24.4413733  99.4010353  21.1743546  24.7629285
 100.1973820  19.8905480  24.8559165  63.3602506  18.5428561  77.0434757
  64.1850549  18.9589490  76.7928894  62.7207070  18.8826837  76.4175888
   0.2269692  58.7762499   4.7521520   0.8544773  58.0776787   4.5665056
   0.4903836  59.4940710   4.1763234  45.4079008 102.6650810  53.2106447
  46.2830448 102.7628994  53.5858679  44.8969364 102.2431469  53.9013815
  12.3440659  88.3060360  64.0984678  13.2890582  88.3437634  63.9508200
  12.2530389  87.9220295  64.9705267  31.5709305  65.8483934  83.8794804
  31.3415480  66.2496519  83.0412674  32.2602081  66.4104080  84.2334080
 105.2705556 103.2841110  78.9836407 105.2350753 102.3306942  79.0609026
 104.6121078 103.4954453  78.3218098  56.9927126   7.0710028  87.0104980
  57.3709423   6.4619006  86.3763332  57.7384740   7.3670710  87.5324345
  47.6340675 105.2315617  80.3179932  47.4451876 104.5085812  80.9162045
  48.1866264 105.8250999  80.8265400  80.9992287  73.0827188  12.0850806
  80.9208697  72.1522664  12.2956709  81.8445483  73.3410692  12.4523978
   7.7706248  77.0918989  70.1315594   8.1695598  76.2219143  70.1172543
   7.0900714  77.0544004  69.4594908 109.5793992  56.7666149  66.8737888
 108.6900907  56.4863205  67.0901155 109.5933347  56.8021631  65.9173489
   6.7965740  78.5825777  56.2514257   7.0054692  78.3908844  57.1656752
   6.2121820  79.3395424  56.2929058  15.7651031  64.4460487  55.8918333
  14.9374366  64.9045992  55.7471609  15.5727696  63.8188362  56.5888643
   8.0578250  74.5486546  67.8026056   8.9711642  74.7969866  67.9453421
   7.9737204  74.4814825  66.8514729  15.9150696  92.5603199  53.4177017
  16.7119980  92.8226376  53.8784885  16.1636686  91.7683125  52.9410839
 102.1586376  87.5699711  51.3029957 102.2323542  86.9085789  51.9910049
 101.4747446  87.2363186  50.7223082  34.6449661  86.7545509  67.7558756
  35.3006101  86.3835621  68.3464050  33.8057256  86.5024662  68.1410503
  76.1360222  56.1444855  74.2147064  75.6642872  55.3116035  74.2125893
  75.4642873  56.8006849  74.0292072 115.6703574  83.9970112  51.2969685
 116.0974356  83.2860947  51.7749119 115.0202883  84.3408871  51.9096613
   9.9789715  53.6848545  59.7760725  10.6983864  53.7200689  60.4064989
   9.5492548  52.8473139  59.9495745  99.6399468 105.2616978  72.0990992
 100.0301378 104.5334721  72.5825024 100.3011149 105.4992199  71.4489651
  46.9915867  13.0834998  26.1788535  46.3631070  13.4030283  26.8262672
  46.4514309  12.6788081  25.5001163 114.5151095 107.6624203  79.4429874
 114.3440371 107.3640442  80.3362656 114.4608888 106.8686485  78.9108086
  28.5558057  73.8590860  34.3603253  27.6787376  73.4862900  34.2708397
  28.7052798  73.8956165  35.3050780 111.7939108  92.1241379  25.0157952
 111.5265136  92.9287910  25.4599380 111.0240560  91.5572834  25.0630760
   9.4501978  88.0936527  90.5614758  10.0187099  87.3997211  90.8953667
   9.1313314  87.7594185  89.7231197  19.6481907  83.7888432  27.7614212
  19.0789366  84.3861961  28.2465458  20.2069211  84.3629456  27.2375393
   2.5875413  93.4906578  57.7453899   2.5536504  92.5424862  57.8720856
   3.5017401  93.7217522  57.9099083  43.7016103   8.2692755  78.6752415
  44.0975720   8.0731238  77.8261423  42.7917171   7.9856528  78.5864592
  93.1073636  28.5936869  53.2862997  92.2785300  28.9373816  53.6196804
  93.6748237  29.3614996  53.2178402  43.9345253  28.3031129   3.3973174
  44.4090331  27.9873513   2.6283125  43.0585635  27.9274034   3.3092074
  81.1790209  80.4230404  74.5647669  82.1041876  80.6545544  74.4829082
  80.8192282  81.0809135  75.1597357  18.4378666  19.1208113  46.2719011
  18.5759181  20.0542582  46.4326715  19.2373723  18.7020529  46.5907431
  80.7987529 108.8588142  54.8022366  81.2806206 109.1693878  55.5687714
  81.0050231 107.9254723  54.7516346  37.3510885  79.1922903  74.3332243
  38.2553267  79.1984892  74.0192986  37.3911190  78.7286282  75.1696730
  21.7299962  76.8396759  58.8834429  21.6464925  75.9450245  59.2133808
  21.2298012  77.3710537  59.5028591  98.6523348  83.4188366  50.1510239
  99.3349963  83.9833450  50.5137014  98.8430172  82.5519466  50.5092955
 103.6746841  90.2651501  57.9754019 103.9043539  89.5081139  58.5142851
 103.1110984  90.7969952  58.5373116  39.0924239  95.2574253  58.9672422
  39.7740555  95.3516960  58.3018684  38.4716845  94.6354008  58.5877752
  17.0880437  96.7713547  72.0968437  17.6202190  96.4574718  71.3657522
  17.5618672  96.4857388  72.8779650 104.4415372  74.9015617  37.4764013
 105.2470761  74.4507933  37.2231245 104.6545630  75.8318949  37.4033523
 113.8909083 102.9587936  41.6118383 114.7707627 103.1286144  41.2753153
 113.3110508 103.4344578  41.0170746  13.3153474  81.0829735  66.0028505
  12.9837453  81.9699287  66.1428404  12.7378774  80.5261707  66.5250874
   2.1135896  65.0880861  53.7679958   2.4462470  65.2456760  54.6515894
   1.2429909  65.4859352  53.7653399  28.3232635  12.3806227  29.7252941
  28.7766546  13.0754317  30.2027011  27.3964304  12.5238169  29.9168921
   9.3123376  37.3194957  56.0526896   8.9754999  38.2139754  56.0009146
   8.8278419  36.8417692  55.3794384  47.2663516   2.0183600  56.7996264
  46.7474604   1.8919791  56.0052633  47.5721312   2.9237212  56.7444611
 107.1821296  70.6959057  49.0114355 106.2473303  70.8200169  48.8471889
 107.3183149  71.0417557  49.8935175  81.4807945  97.8478909  31.6955352
  81.6128712  97.0426846  32.1959591  81.7395335  98.5477066  32.2951579
  99.8234838 106.2157822  78.5872698  99.5064944 105.7772350  77.7976990
 100.1221269 107.0724106  78.2819366  14.5881790   6.0720004  81.7582226
  14.6618456   6.7751635  82.4034882  14.7158522   6.5064562  80.9149075
   7.6375836 103.0920219  46.5565205   8.1994277 103.8584232  46.4416552
   7.5743484 102.9814243  47.5052071 106.2622600  69.0572166  68.0564976
 106.4113491  68.4092665  67.3679018 105.4944449  69.5471716  67.7621651
  35.3278721  23.8403452  80.1751995  35.4419527  23.9934004  79.2372274
  35.8681125  23.0720747  80.3599644  24.7008085  94.2726135  58.0288839
  24.4782019  94.2486477  58.9595270  25.6071925  94.5795822  58.0072451
  32.7295113  83.9828396  72.6835012  33.6615539  83.8994598  72.8849411
  32.4832153  84.8369694  73.0385160   9.7165018  92.4664402  91.7962646
   8.8313484  92.4894524  92.1598625  10.2106190  93.0893898  92.3291969
 107.4416285 108.2448387  93.9996910 107.7180653 109.0861607  93.6363888
 106.8227189 107.8981781  93.3570290  96.2583214  96.8953037  50.1145649
  95.5744892  97.2732925  49.5616388  96.6426855  97.6461124  50.5670929
 108.6600887  74.6123695  23.5096145 109.2829728  74.9364758  22.8590751
 108.0081379  74.1325665  22.9987502  20.3594422  98.8988876  77.4204588
  19.8094273  98.8598728  76.6380310  20.8164668  98.0579472  77.4341297
   2.2163922 100.5686760  60.6939268   2.1691932 100.1054192  61.5302277
   2.9884574 100.2039719  60.2613354  96.0976678  97.8934383  40.0313854
  95.2061873  97.7867413  40.3632116  96.1743241  98.8296795  39.8474860
   2.6327854  62.2642374  53.6948442   1.9060344  62.3082924  54.3162346
   2.6652423  63.1365156  53.3020163 107.1834760 106.8034744  87.7238655
 106.6039174 106.9411945  88.4731197 107.0936238 107.6007462  87.2018337
  52.4809772  10.4899825  46.3307047  51.9728011  11.1731471  45.8933544
  52.6854509  10.8570803  47.1907425 114.6111711 108.3013821  44.7735071
 114.5234099 108.9484501  44.0736198 115.1369626 108.7410927  45.4416656
  30.7925057  46.4223337  56.0303068  31.6806579  46.6589117  56.2976027
  30.7106638  45.4974890  56.2631130 109.0771394  91.0008812  90.1686573
 108.5463649  91.2449932  89.4104195 109.7952479  90.4848766  89.8022079
   5.9035933  87.4809647  60.2695513   6.2267399  86.5939426  60.1114416
   6.5134966  87.8474903  60.9097862 102.7585822  85.2196503  52.6711512
 103.5438591  85.2256489  52.1238518 102.6653152  84.3075848  52.9462242
   0.1887778  98.8115978  67.5202894  -0.2085138  99.6724701  67.6517868
   0.7019055  98.6608315  68.3141375  94.0003830 101.5106773  36.6394448
  93.7428456 102.2483635  37.1923757  93.6637002 100.7398891  37.0963383
   3.9449018  83.9690590  73.9234686   4.7035375  83.7503624  74.4646454
   3.4993017  84.6654320  74.4058895  46.8283993   8.5671843  43.9322281
  46.8377310   9.5080985  43.7566757  46.2485624   8.2043494  43.2626247
  14.9474931  76.2073231  63.1414986  14.9736500  77.1386957  63.3608007
  15.8654594  75.9361029  63.1384611  11.5883803 105.9941864  62.3293734
  12.0679224 105.5377483  63.0207014  11.7186797 105.4534531  61.5503597
  15.9944546 100.5519009  52.0089531  15.1509047 100.8405685  52.3572731
  16.6430485 100.9669113  52.5775671   5.5852538  63.2253408  46.8796015
   5.4825646  63.5643673  45.9903574   5.1666272  63.8820410  47.4361277
  43.4440163   3.6204089  30.0890470  44.1845626   3.8895834  30.6325245
  42.6860517   3.6798228  30.6705904 111.7822539  80.2064896  67.8020000
 111.8552076  79.3974209  68.3082724 112.3645496  80.8214760  68.2480478
 113.7512806  86.1947918  19.9848688 114.5345342  85.6518078  20.0738406
 113.4686532  86.3568020  20.8849263  39.5225024  92.3869610  26.6103339
  40.4035187  92.7434063  26.7243242  39.6415830  91.6349792  26.0301781
  34.5546579  98.5478401  52.2735977  34.4758797  97.6472855  52.5882912
  34.9611807  99.0206337  52.9998398  52.3194885  99.4701862  73.5649872
  52.3110104  98.5492802  73.3040571  52.8872013  99.8959255  72.9225922
 108.4997028  66.7648506  31.8034720 109.2933142  67.2493601  31.5761757
 108.5633474  66.6310549  32.7491355 100.5627912  84.1784382  58.9013386
 100.4337972  83.4612179  58.2807112 100.0241988  83.9416218  59.6563625
  16.5318036  91.1645794  45.2064419  16.9203782  91.3707924  46.0565710
  17.1333373  91.5487480  44.5686293  31.0105252  96.0528278  66.3095808
  30.0855327  95.9038353  66.5055943  31.4094305  96.2345314  67.1605158
  28.5682511  51.0919571  50.1395178  28.7669873  50.2381134  50.5238152
  27.6527190  51.0252762  49.8682499 109.0181487  71.7625046  31.8043900
 108.3579212  72.2426176  31.3045669 108.5138148  71.2448263  32.4319959
 108.5032355  90.5995369  49.0976810 109.1524869  91.1879635  48.7123823
 107.6661324  90.9042358  48.7474632 113.9546629  69.6826124  74.2586470
 113.5047334  69.9833345  73.4691143 113.3384561  69.0759516  74.6691132
   7.4848139 109.3741417  62.9670906   7.0057380 109.9991131  63.5112619
   8.3497095 109.3167305  63.3731556   0.3601860  99.7897243  42.2349882
   0.9209077  99.5616245  42.9764700  -0.2480907  99.0544987  42.1596098
  32.5260526  11.4018286  66.7107105  32.3585475  10.7831229  65.9998131
  32.7666629  12.2157515  66.2681389  28.4279108 108.1686497  53.5535574
  29.2744684 108.3236885  53.9725208  28.2591414 107.2367096  53.6922216
   4.8558354  87.0887756  38.7314606   4.9036726  86.3872814  38.0819654
   5.6234133  86.9534779  39.2871141   0.3318325  72.3895454  88.0565834
  -0.2454608  72.0389318  87.3783302   0.1743628  71.8306398  88.8175488
  12.2467196  91.5370083  31.3834691  12.2759795  90.9146786  32.1101689
  11.6977584  92.2529793  31.7032290  86.1702066  96.1460400  40.3630114
  86.2045031  95.5455017  39.6184182  85.6799966  95.6693077  41.0328245
  30.1757598  75.0455999  51.2984514  30.0540638  75.6821823  50.5940485
  30.3505373  74.2196703  50.8473110 115.9128145  97.5769997  65.4363012
 116.3576074  98.1177425  66.0889769 116.6187951  97.2323799  64.8894358
  90.4983907  87.1467400  47.1728468  90.0167828  86.3445091  46.9710922
  91.4091926  86.8645954  47.2568989  80.8393878   6.0735835  60.8184814
  81.4399403   6.3012446  60.1087379  80.0150937   6.4977778  60.5800915
  95.6966644  78.0135202  56.2678528  95.1529341  78.2646132  57.0145369
  96.4447051  78.6095762  56.3050890  77.4984451  33.8308667   9.4505744
  76.5439883  33.8819742   9.5018725  77.7887184  33.8507318  10.3624873
 104.0016561  79.9876785  85.3409958 103.1221491  80.2823734  85.1046562
 104.4519656  79.8816061  84.5030212   4.5705041  70.3149033  67.0831203
   3.9802200  69.7393656  67.5694895   5.4164821  69.8678446  67.1094561
  43.8261223  47.6533699  40.7894325  43.8352776  47.8631258  39.8555446
  44.0374374  46.7205620  40.8274841  41.8717230   0.4129351  43.5606575
  42.1739361   1.1797083  43.0738783  41.0031127   0.6584872  43.8791656
  54.5750767   1.5510977  63.1911755  54.2987174   1.3011015  64.0728521
  53.9860481   2.2657336  62.9491568   6.4483714  68.6006641  57.5785255
   6.2071800  67.9506588  58.2384872   7.3682582  68.4177923  57.3872137
  74.4965667   3.6068476  62.8150129  74.8746413   4.2755164  63.3861256
  74.9490065   3.7218894  61.9793749  14.8921120  51.5742016  70.4834604
  14.7313356  52.3892689  70.9589005  14.2437637  50.9620285  70.8314800
 115.4628714  61.2744188  61.4302874 115.7483600  60.6922960  60.7261133
 115.6518392  60.7892990  62.2335148  84.5444923  58.6244488  68.5929441
  83.8979011  57.9598427  68.3553600  84.7563534  59.0586853  67.7666330
   2.0154905  95.8001232  60.3326941   2.9427004  95.8721352  60.5592489
   1.7333226  94.9793911  60.7364416  29.1088915  99.8759842  48.0749607
  28.9197350 100.7259464  48.4724712  28.5002947  99.2718887  48.5002899
  41.3301945 109.4990730  42.8533459  41.9048691 108.7388611  42.7635527
  40.8360815 109.5239162  42.0339155  11.1080301 108.2536697  81.6872120
  11.3103104 107.8064919  80.8654213  10.4595399 107.6922417  82.1120644
  47.0309496  80.4876804  67.6777267  47.0838451  80.8217239  66.7822695
  47.0356703  79.5356083  67.5788689  72.1045393   9.3375529  63.2936525
  72.0460910  10.1123274  63.8527155  72.8588385   8.8547457  63.6315250
  38.4872127  75.3747416  42.5282764  38.9717531  74.7170782  42.0293474
  39.1410136  75.7649517  43.1083775  83.6865586  28.1244029  74.2906332
  83.2065839  28.8296641  74.7247648  83.5563296  27.3628558  74.8557138
  25.5263257  93.2482433  52.9445553  24.7870302  93.5629654  53.4647655
  25.1296401  92.6815319  52.2829533  51.1947435   2.5754202  40.1656675
  50.2465838   2.6950587  40.2196264  51.4746052   2.4671305  41.0746098
  26.0645819  85.4626179  63.3575773  25.2419972  84.9987984  63.2011890
  26.6103387  84.8310375  63.8260746  42.3530257   1.6689433  68.1941843
  42.0122484   0.8496321  68.5531092  41.6756445   2.3162783  68.3899832
 102.5677424  82.0042038  57.5170088 102.6667314  82.1740627  58.4537983
 103.4617322  82.0184326  57.1752310  28.1628752  85.2344322  69.0021849
  27.4592781  85.6356239  69.5123100  28.0290818  84.2926598  69.1088915
   5.5754346  84.9094868  45.6901550   5.6068563  85.8379555  45.4595184
   6.4779478  84.6893311  45.9208822  63.4855431  10.0350703  88.6452770
  64.2511457   9.5131625  88.8854599  63.1582636   9.6256484  87.8443432
   6.7949194 100.8281994  50.1731920   6.6776115 100.3340054  50.9845161
   6.0184145 100.6221008  49.6528101  23.9525777   7.0400942  70.5530787
  23.6737532   6.1607684  70.2975941  23.3041901   7.3184908  71.1998510
  73.8264531  36.1839628   4.0589575  74.7104055  36.4995813   4.2467074
  73.8767827  35.2374028   4.1920905  11.2921083 108.5690022  88.6990547
  11.9622815 109.1488075  89.0608883  10.9668112 108.0784988  89.4539261
  99.1288179  88.0060387  62.5745916  99.7957843  87.6630497  61.9798279
  98.3279472  87.5428295  62.3290920  41.6846275 100.7819557  52.2345400
  41.8086815  99.9045372  52.5964499  42.5444078 101.0224056  51.8893003
  11.9994152 108.4491158  73.2212400  12.7714086 108.8172626  73.6510420
  11.3231337 109.1177654  73.3298206  40.7585144 107.3299980  45.0422192
  41.0406733 107.5852108  45.9205580  41.1604023 107.9781532  44.4637632
 115.8949297  95.0780582  38.6774182 116.6495265  94.6241760  38.3021736
 116.2623192  95.6109810  39.3825722  32.6821351  99.4775677  68.3346415
  32.6746011  98.6076546  68.7339067  32.2264862  99.3623447  67.5007725
  62.6454562   9.6007384  80.8559799  62.5426573   8.7451304  81.2726307
  62.1352595  10.1969279  81.4041519  37.0320034  92.5052738  72.2422838
  37.3160124  93.1500435  71.5943241  36.2910223  92.9200363  72.6840401
 112.0078083  84.8422241  67.7141142 111.7490887  85.6187630  67.2178555
 111.1978226  84.5394421  68.1245756  82.8031558  25.6499518  60.9625769
  81.8557662  25.5215395  61.0094500  83.0735177  25.1576842  60.1874542
  95.7368851  44.7290468   3.9170317  95.5002714  43.9090585   3.4836058
  95.4773367  44.6012353   4.8294692   2.1761191  87.3205566  62.9213238
   1.2561622  87.5790501  62.8657246   2.3994347  87.0376778  62.0345640
   6.1526144  93.4642601  48.4102821   5.9953409  94.1918087  49.0120840
   6.5519440  93.8713837  47.6415014  37.7736115  91.3177872  45.8270788
  37.6032400  90.3863525  45.6869650  37.0845294  91.7640114  45.3348589
  71.4446515  14.1688860  85.9756947  71.3520688  15.0211466  86.4015007
  72.3671025  13.9416445  86.0926533  49.9195385  66.7425108  79.7745800
  49.0606928  67.1529865  79.6739578  49.7294903  65.8088827  79.8665333
   0.8013283 105.7518291  76.3661718   1.2555756 105.8506870  75.5294418
   1.1313505 106.4713478  76.9043350  55.6433529   9.9586905   9.9716336
  55.0894517   9.3252314   9.5153981  56.5204698   9.8072279   9.6195555
 104.7357171 100.2124310  89.2919827 105.5715984  99.7960663  89.0818119
 104.1348260  99.4821453  89.4397640 100.2588003  69.8927832  40.4524708
 100.0293761  69.0067959  40.1720715 101.0077923  69.7728252  41.0362959
  19.0243232  79.4812441  75.2288628  19.4974279  78.9464951  75.8663940
  19.2024708  79.0632010  74.3864059   1.5552700 108.6944675  60.2328682
   0.7486734 109.1343689  60.5014229   1.7828217 108.1365013  60.9765959
  36.2315419   3.9979971  54.2855787  35.3925064   3.5374297  54.2966986
  36.1804789   4.5703162  53.5200167  83.8464785  43.3756589  10.2912573
  83.6297977  43.6431550  11.1844210  83.8492996  44.1916513   9.7908740
   5.6273031  72.0216942  38.0772018   6.1331230  72.7757740  37.7743173
   5.2144492  71.6766262  37.2855496  39.7011042  70.2634478  66.7052174
  40.1776075  69.8479366  65.9865189  39.2827010  71.0261297  66.3058662
  89.5228398  26.2193727   5.2913527  88.6050177  26.3664007   5.5198626
  89.7742653  25.4456758   5.7957415  19.1371787  94.3301105  53.6438274
  18.3918095  94.8798180  53.8856506  19.2203474  93.7079239  54.3664598
  31.9872093  86.9193077  65.7316113  32.2463059  86.7088413  66.6287184
  32.8138232  86.9932556  65.2546692  46.8208289  20.4382170  39.3741035
  46.4801443  21.0030783  40.0677204  46.5443003  20.8627833  38.5620022
  28.9554811 105.1562881  76.9957447  29.3964362 104.4651604  77.4898529
  29.6288300 105.4963684  76.4065266  45.7712519  43.3465623   4.3861060
  44.8924959  43.7260579   4.3864588  46.3338912  44.0449666   4.7206168
  44.8700333  88.0678654  74.8955727  45.1587963  87.7644825  75.7562733
  44.3272066  88.8340473  75.0813961  60.4230851   8.9148463  32.5375032
  60.1597208   9.7731436  32.8694534  61.2709731   9.0690173  32.1209145
  26.1095381  82.1218777  74.4582081  25.2472591  81.8956375  74.1096115
  25.9377694  82.8253269  75.0842142  51.3377792   7.9984892  24.3112826
  51.7530948   8.8595522  24.3594742  50.5549413   8.0793322  24.8561335
   7.8489202  88.1692696  62.1443558   8.5123909  87.9066944  62.7823925
   7.5716716  89.0393162  62.4313831  43.7624836  71.7663574  60.7536983
  44.1712284  72.2323036  60.0242805  42.9779100  72.2766781  60.9543371
  56.9540471  25.4682196  70.2642298  57.4632591  25.2882613  71.0545158
  56.0423416  25.3735484  70.5400229  31.6162038  89.8063850  60.1440191
  31.7708611  90.4028320  60.8765268  30.9773135  90.2614403  59.5954037
 105.6969195  99.3920422  83.8520527 105.7672125  99.2087936  84.7889137
 105.5274265 100.3328991  83.8040829  46.4139700  93.5621738  51.8837500
  45.9775066  93.4878922  51.0350990  46.3186073  92.6955223  52.2788000
  73.1661445  27.2364854  14.9595789  73.7909380  26.5498685  14.7263007
  73.6688340  28.0487298  14.8980002  41.0995922  19.2838992  45.5777836
  40.8419547  19.0258921  46.4628172  42.0088375  19.5695532  45.6667042
  33.9666444   2.6244868  54.6568966  33.4741521   3.0827845  53.9759827
  34.1415531   1.7599238  54.2851830  17.4399567 105.4731655  46.6911507
  17.1376121 104.8668385  47.3673153  17.4400508 106.3290977  47.1196556
 112.4425166  74.6508789  38.7405872 113.0280870  74.7046852  39.4958639
 112.8783893  74.0439606  38.1423426  28.5565162 106.2621117  80.4219437
  28.1712103 105.9144974  79.6176195  29.4554090 106.4850426  80.1800251
  98.0610662  65.9506607  63.0248213  97.6009184  66.7874241  63.0905676
  98.9516681  66.1434031  63.3179283   8.7654930  98.2772732  44.3773222
   8.9452487  98.2153988  45.3154564   9.0470010  99.1600800  44.1372299
  74.7886986  16.6361178  50.5018759  74.2365712  17.2765292  50.0532484
  74.9984592  15.9879435  49.8294926  16.4636338  70.6329060  50.7831478
  15.5951786  70.7358646  51.1722708  16.9817364  70.2035189  51.4638996
  50.4227704  11.2121714  43.5735750  49.8369807  11.7596091  44.0964460
  50.5423612  10.4204215  44.0980339  23.1830001  86.1491203  60.8135796
  23.8341022  85.6154060  61.2690401  22.6715398  86.5530109  61.5146589
   5.2579069  77.4957561  76.1760521   5.0929832  77.1123171  75.3146505
   4.5507208  77.1601820  76.7269707  34.0661225   9.6271933  62.6935768
  34.2831636   9.1443003  63.4910393  34.2497096  10.5414141  62.9097128
  23.6077094  79.8781919  49.2409992  23.1989551  79.6866560  50.0850773
  24.5467734  79.8873568  49.4262171   5.2225441  95.8322430  54.4655943
   4.5537236  96.4656734  54.7257471   4.7562471  95.2048397  53.9131784
  26.0259485  93.4720135  63.7321186  26.6666293  93.6770821  64.4130802
  25.6127715  92.6610088  64.0284109  39.3516274   5.2947367  90.4108524
  39.9425879   4.5639742  90.5924606  39.7264421   6.0315073  90.8934593
   4.3636140  95.3094006  61.5453053   4.3578207  94.3612289  61.4143229
   4.3898398  95.4197311  62.4957657  14.7039568  83.6310482  39.1067576
  14.6579194  83.8651657  38.1797719  13.8819802  83.9535236  39.4763422
  39.5792508 104.6874237  58.8223171  39.6503186 103.9311600  58.2398653
  38.9013672 105.2334976  58.4241915  15.0718677  83.6117649  67.1304226
  15.7141864  82.9872131  67.4674749  14.3476701  83.5711193  67.7550173
  14.3737233 102.5007057  39.1021848  14.1847539 101.5915585  39.3345165
  13.5550761 102.8277206  38.7292099 116.5319297  65.1067877  79.1343307
 115.9702828  65.4976416  79.8036718 116.8572822  64.3008709  79.5354223
 105.1597791  85.2648163  50.8137083 104.7796040  85.1544094  49.9422073
 105.7272499  86.0313320  50.7321167  12.9460979  83.2709694  69.0821457
  12.2687948  83.9377785  69.1955471  12.4661326  82.4430370  69.0620852
  25.2251506 104.8239708  27.7612686  24.7219682 104.0198994  27.6327848
  25.0012898 105.1075459  28.6476660  15.1362693  48.1619692  47.2517681
  14.6673071  47.3881769  46.9394302  14.7255802  48.3682299  48.0914259
 114.3085280  95.0754547  64.0770864 115.0299030  95.6801701  63.9034176
 113.9161366  95.3974819  64.8886061  94.1789227 102.6777649  59.3560028
  94.2605215 102.5707531  58.4083128  94.6801906 101.9497108  59.7232866
  24.9523973  71.8784094  55.2596951  24.1151929  71.6229725  55.6470871
  25.6100583  71.5510893  55.8733559  64.9402988  11.2450885  16.8662982
  65.2599299  10.5659723  16.2722640  65.1866651  12.0680141  16.4440016
   8.0308944  71.2327147  28.9819980   8.6869353  71.5257502  28.3495641
   8.5414171  70.8734465  29.7076178  27.9433227 107.6906300  62.0610332
  27.1682525 107.3933792  62.5376225  27.9642677 108.6368275  62.2042036
 114.9822355 110.4643631  79.0763283 115.7974727 110.4603291  78.5747242
 114.9377766 109.5921707  79.4681501  58.1653899  25.9130896  65.6467533
  58.9707333  25.9488905  66.1628675  57.5249893  26.3969744  66.1682653
 102.6631153  45.3043126  14.8578219 102.5568998  44.6126031  14.2047743
 102.1022857  45.0350618  15.5852942  12.7428138  89.1668320  86.7530346
  13.5081995  88.5920238  86.7495537  12.8314316  89.6788025  87.5569439
  29.4915318  90.2364063  42.6419258  29.6366906  91.0897923  43.0504417
  30.3668928  89.9356461  42.3979568  37.3420691  91.2433624  49.2830372
  36.8324876  91.9550991  48.8957596  38.2279110  91.5976429  49.3605232
 110.8196723 103.0494308  46.8883324 111.4427679 103.7361336  46.6508102
 111.3541489 102.3763371  47.3096609  39.1988230  69.2214966  43.4874535
  39.9595308  68.6454105  43.5628700  38.5558414  68.8494396  44.0910959
   4.0956604  77.9792023  42.9386282   4.3072322  77.0715189  42.7204847
   3.1744394  78.0751228  42.6970053  11.6890407 100.3892517  43.4592199
  12.6397884 100.4997444  43.4491491  11.5308022  99.6254158  42.9044724
  83.8801974  39.7771491  26.7805815  84.2515344  38.8979853  26.7069960
  83.7668914  39.9113120  27.7215338  92.9013502  48.0379476  93.8173232
  92.7632057  48.9254560  93.4864526  92.5894772  47.4687852  93.1137459
  45.5780458  75.7503843  36.0841870  46.1927843  76.4286757  35.8044553
  45.9266472  74.9417210  35.7089925  87.0296592   7.7400816  56.1428165
  86.6188544   8.5994948  56.0486078  87.7607030   7.7550448  55.5250931
 102.7373903  56.3786221  60.7794046 102.5401288  56.3990164  59.8429728
 103.3803623  57.0766878  60.9039879  99.6958392  33.5444498  53.2530737
 100.3601628  32.8570509  53.2042170  99.2971080  33.5544682  52.3829317
  17.2331583  51.0990143  15.8436811  16.2829280  51.1950493  15.9074950
  17.5669539  51.4725399  16.6593337  87.2732454   0.4524833   2.6725891
  88.2152801   0.3250818   2.5604576  87.1758395   0.7300486   3.5834685
  87.2654539  43.4873104  81.1874390  87.7838975  43.8627291  81.8991280
  86.8126660  44.2363834  80.8000088  92.0693641  83.7015820  53.1498671
  91.8893629  83.4328651  52.2489643  92.8006154  83.1477928  53.4234190
 105.4606467  52.3268700  16.7715335 104.9784010  51.9019794  16.0622132
 106.2806433  52.6105309  16.3673377   5.9425747  63.0248451  34.6057320
   5.5500710  63.6438036  35.2214098   5.5908120  63.2797909  33.7527966
  83.9547568 104.5044231  58.8687992  84.5735174 104.5815468  58.1425619
  84.4776827 104.1617775  59.5936251  27.0963454  57.7978277  93.5208893
  27.0194960  57.1059752  94.1779041  26.4694738  57.5525713  92.8403568
   5.2687728  19.4350994  95.3622818   5.6473839  18.9658749  94.6188354
   4.5637628  18.8659132  95.6708622   6.1653763  72.8868532  59.2671537
   6.7606157  72.7511978  58.5299158   5.3793657  72.3926163  59.0344477
 113.5965380  39.8611236  73.8277626 113.4802755  40.7492828  73.4902906
 114.5433656  39.7663689  73.9315414 105.8706945  76.3709593  70.8974886
 105.5199795  76.6349268  70.0468683 105.5848664  75.4635763  71.0032797
 108.0697375  81.1655807  59.9568129 108.8052046  81.7159462  59.6877003
 107.2928148  81.6554451  59.6872568   5.8288747  83.5859871   4.7914886
   4.9572477  83.2656384   5.0236046   6.2751299  83.6958313   5.6311440
 100.4277938  37.3415112  25.1129270 101.3505345  37.5211596  24.9326253
 100.1386755  36.8076515  24.3729019  23.5753179  93.4235573  35.7393670
  23.0546570  93.6732388  34.9759507  23.0140138  92.8189278  36.2247491
 104.7685962  92.5211906  65.4212856 104.1766923  92.3874950  64.6810102
 104.9919873  93.4512329  65.3843927  13.1672311  57.9165602  79.0127230
  13.5808182  58.5505056  79.5986319  12.2388971  58.1495523  79.0246391
 114.5464935  67.5043106  55.4922485 114.3945330  66.8309307  56.1553431
 115.3950098  67.8817225  55.7242250 100.6766933  79.7933245  81.6364765
 100.1588064  79.0858555  81.2524033 101.5207654  79.3897247  81.8386745
   7.6753980  93.4742165  42.8142452   6.9741333  94.1217995  42.7428389
   7.3723012  92.8663349  43.4886646  27.3871255  60.4500914  55.0561142
  27.5443578  60.8519554  54.2017031  26.5632200  59.9747133  54.9492359
  98.4694784  75.9644842  58.3304167  98.3202809  76.2694979  59.2253637
  98.6443465  75.0279188  58.4225941  18.2926881  54.2028952  25.1269770
  17.4041033  54.3197680  24.7908354  18.1848609  53.6526060  25.9027243
 109.2569136  62.9409170  10.0278127 109.7771763  62.4261332   9.4109231
 108.8437521  63.6151218   9.4883901   7.5389826  50.0731611  42.9784203
   8.4508955  50.0422812  43.2677174   7.0586693  50.4079056  43.7357044
 107.1324807  78.1755972  45.6594515 107.4096810  77.6465178  46.4074230
 107.1429234  79.0754604  45.9855938  83.2789450  53.8777399  52.4969769
  83.3540922  53.9380646  51.5446424  84.1791182  53.9533234  52.8135347
 114.1518181  71.4104843  53.7023973 113.3456987  71.8773985  53.4824133
 114.7891670  71.7156363  53.0567169   6.2170529  47.2661972  32.6292610
   6.2212801  46.9384575  33.5285950   5.4962552  46.7985964  32.2073221
  16.0454369  76.9468737  32.5224638  15.8917642  77.0938921  31.5891886
  16.4642441  77.7522802  32.8260326  20.1394677  83.4214878  60.6238699
  21.0632086  83.1882381  60.7162237  19.8810506  83.7254810  61.4939547
  91.7117220  92.0619869  42.3646116  91.3648897  92.9412460  42.2134495
  91.4669281  91.5699482  41.5809011 114.2051413  63.6141253  61.1489868
 114.6415635  62.7874041  61.3546562 113.3590164  63.5551405  61.5926409
 104.4641309  64.5941544   2.3512867 104.9791210  65.4008389   2.3346591
 103.8581126  64.7119141   3.0827963   3.9678913  42.1898174  17.7593398
   3.3435124  41.6580915  18.2529485   4.6095851  41.5609694  17.4291694
   9.5268542  64.8536158  28.3362556   9.9291426  64.3272209  29.0271282
  10.1322222  64.7830677  27.5981617   8.4652299  37.4955821  26.3150382
   9.0742785  38.2259941  26.2064528   7.7035880  37.8811598  26.7480087
 112.6095908 101.3769054  38.4348679 112.9233133 100.5764675  38.8557100
 113.4017756 101.8899918  38.2754469 107.9491978  87.5755882  60.3264809
 107.8223210  86.6268921  60.3164053 108.1804460  87.7766991  61.2332916
 105.6254583  98.0482292  22.7108765 104.8946040  98.0159473  23.3281636
 105.8061331  97.1309662  22.5054193  17.6956534  92.1166992  64.6515036
  18.1970966  91.3627434  64.3411255  17.2964811  91.8188000  65.4689074
  19.3969774  98.7871456  86.1956406  19.3441689  99.3621159  86.9590855
  20.3238153  98.7910652  85.9564972  17.1410918  66.4824104  28.5872984
  16.8450737  67.3310375  28.2580018  16.7643380  66.4214611  29.4651222
  22.9065609  37.1291399  70.7442188  23.2432628  37.9625893  70.4152441
  22.1230340  37.3663878  71.2402344   9.5627099  73.7890291  54.7860765
   9.9881947  74.5584393  54.4076538   8.6667961  73.8215256  54.4506454
  86.5564120  22.7299547   9.4507555  86.6317547  22.0338582   8.7980704
  87.4516714  22.8648757   9.7614626   3.4977278  37.6543331  65.9419394
   3.2035977  37.0230603  65.2852678   2.7031335  37.8891873  66.4212036
 111.8979537  89.4094276  27.5284505 112.3636984  90.2332497  27.6721001
 111.0016411  89.5882797  27.8128242  20.1366615  78.4738731  46.6072083
  21.0718083  78.4498787  46.8100834  19.8298180  77.5850725  46.7864084
  42.2949505  65.0806665  18.0797124  42.9958677  64.4489098  17.9190099
  42.6031446  65.5958557  18.8252521   7.5382125  63.5726118   4.3166360
   6.9696957  63.2044983   4.9930331   7.1626663  64.4331360   4.1303629
 104.3576210  79.3488455  40.4271936 103.7621575  78.6043072  40.5127382
 104.3396478  79.5639992  39.4946623  92.8518658  80.2005768   5.4914492
  92.7956563  81.1547089   5.4394883  92.6588517  79.9005508   4.6032140
   2.6683107  74.6789503  43.0399275   2.1113990  74.1650438  42.4551392
   3.5554880  74.5414877  42.7078867 102.3339849  97.7727413  23.2803488
 101.7335098  97.0310211  23.3546495 102.4158829  97.9211617  22.3382783
   6.8045461  46.8009949  35.1109624   7.5694847  46.3052702  34.8188019
   6.6588086  46.5083742  36.0106087 103.0041342  59.5760345  23.1046057
 102.3052912  59.2958784  23.6956763 103.4765225  58.7707138  22.8935504
 104.6481221  94.7214508  53.1306314 104.5426446  94.1492558  52.3705721
 105.3275936  94.2989635  53.6560392   7.0388120  61.4662266  38.3543634
   7.3726600  60.6180477  38.6465478   7.4972934  62.1050262  38.9002252
 102.7790933  77.2220039  17.5908780 102.9571562  76.3156986  17.8421497
 103.0629056  77.2777510  16.6784239 105.2519959  68.2635498  64.5445156
 105.6447797  68.3343124  63.6744881 105.6690353  67.4949312  64.9337864
  20.0052285  90.1814079  45.0844193  20.8280301  90.5113125  44.7233152
  19.5153034  90.9686184  45.3221464 111.0739219  52.8108597  56.0274744
 110.6286960  52.9603720  56.8615341 111.9768288  52.6068640  56.2711477
   1.6646601  90.9708118  62.2266150   2.2787899  91.0529995  61.4970112
   1.1675528  90.1760864  62.0328856  33.8274813  88.9636803  46.0451508
  33.8932753  89.4691753  46.8553209  33.7031126  88.0602455  46.3359594
  22.9227233  67.0947409  57.8060961  23.3410001  67.1284437  58.6664104
  22.7286768  66.1673069  57.6702881   7.5460613 101.5518379  37.3542261
   6.8585426 102.0282173  37.8196478   8.1866050 102.2235680  37.1203113
 111.7405295  45.2852631  45.8577967 111.6191363  44.6021128  46.5171909
 111.2246340  44.9887991  45.1079988 113.1881463  89.4287205  34.9437523
 112.9362040  89.2518520  34.0374017 114.0062239  88.9463711  35.0634265
  95.0600367  93.9328098  38.6116552  95.7268935  93.2496738  38.6813521
  94.3849569  93.5521030  38.0499029 102.3562639 103.0692768  13.9324582
 102.0365554 103.9073849  14.2664993 101.5641838 102.5922585  13.6848629
   7.6503551  49.4353962  40.3181839   7.5243616  49.7084188  41.2269258
   7.6160169  50.2498388  39.8164463  31.9591188  50.0537062  66.6108608
  31.0228705  50.2501583  66.6436625  32.0861173  49.6340227  65.7599974
  16.5054941  67.1466017  18.5283470  16.2006438  67.0689535  19.4323754
  16.6556382  68.0839872  18.4058893  29.0087295  75.2997637  29.3562913
  28.8475156  74.4121790  29.0362406  28.2491469  75.4986143  29.9037600
  26.1521864  53.6173439  54.8318720  26.2948728  52.9186583  54.1933489
  26.3371348  54.4235277  54.3501091  10.7263970  47.1088076  34.8422718
  10.5216646  47.8639603  34.2908502   9.9812901  46.5190840  34.7270703
 101.6529113  59.7685528  67.8469849 101.1829394  60.6012011  67.8016090
 102.5583499  60.0145960  68.0363989   5.2056348  59.4209576  51.3435221
   4.6423352  58.6610937  51.1967945   4.9669451  59.7309256  52.2171211
  95.5147343  39.9856687  23.1808805  94.7764116  40.2538872  23.7278461
  95.9819465  39.3388247  23.7095928  17.3329151  86.4869976  79.8513556
  16.6717279  87.1280575  80.1123238  16.8533051  85.6611824  79.7863245
  30.4172277  93.6843491  74.3934298  30.4338312  94.6364689  74.4905758
  31.1917567  93.3816814  74.8674870 111.0242712  87.9133606  61.1544514
 110.4057216  88.6342144  61.2727404 110.6894469  87.4321842  60.3977537
  99.4216531  57.4321890  50.3529930  99.3199509  57.1210432  51.2524796
  98.6392277  57.9595852  50.1920795   5.8066285  84.8749828  12.9511857
   6.0473979  84.6434593  12.0541584   5.0517613  85.4555225  12.8543139
 100.2534180  90.4327106  46.2980366 100.2904385  90.7764339  45.4054451
 100.2745324  89.4819069  46.1896276 109.7522830  74.3936539  38.3887696
 110.6636714  74.2981625  38.6653280 109.4485813  73.4964514  38.2508397
  23.4827423  45.0834179  56.2526703  23.9065218  45.3844404  57.0564318
  22.7258897  44.5811653  56.5545845  10.5300748  98.2252789  63.7083340
  11.2284052  98.3515263  64.3507004   9.9974209  97.5168324  64.0697241
  17.8286088  60.5787420  58.0640650  18.4524357  60.2608490  57.4113703
  17.7894080  59.8806858  58.7178373   3.3041102  70.2093506  94.1521740
   3.3373749  69.2787743  94.3738842   2.4966350  70.3065968  93.6474323
 108.0264371  19.6761143  71.7773151 108.8823801  19.4471240  71.4151621
 107.9691427  19.1757619  72.5913191   2.4450649  71.5527821  36.0269594
   3.1725565  71.9275093  35.5304050   2.6322749  70.6144810  36.0548377
  17.5715911  73.0809975  40.6587553  17.2258699  72.1886110  40.6400585
  18.1056297  73.1143904  41.4524269  25.0405216  52.2524166  29.1915178
  24.6728301  51.8329334  28.4136581  25.9426856  52.4598074  28.9479589
  30.2809739  67.2141504  58.0774450  30.2632213  67.4110937  57.1408939
  30.0478244  68.0405569  58.5004377  10.9869266  94.7472095  25.1466942
  11.2945521  93.8434601  25.2161407  10.5225670  94.9059772  25.9685183
  15.4575360  72.4917746  48.7076998  16.1407220  72.0617676  48.1933260
  15.6410098  72.2353363  49.6114731  18.9680743  83.4371567  22.1101665
  19.1651011  82.5041389  22.1931458  19.1783619  83.6463451  21.2000847
 111.5864843  54.6786976   2.4454480 110.6942564  54.4887924   2.7354428
 112.0551121  54.9091673   3.2476348  41.8447638  97.9785728  77.7841806
  41.8784761  98.8705540  78.1298256  42.7328539  97.6418781  77.9031706
  19.3475020  45.7078743  50.0199413  19.5669413  46.0895205  50.8698940
  20.1873803  45.4188585  49.6631432  16.3935292  36.3545966  90.2949333
  16.0264039  35.6541276  90.8341789  15.9471893  36.2674117  89.4526672
   2.7674112  53.2171917  56.7290783   3.5618651  52.8035831  57.0667219
   2.0628050  52.6167345  56.9724226  31.7642927  78.0278397  43.3774376
  31.3167119  78.5069895  44.0748024  32.2775030  78.6940813  42.9203081
  41.9222832  88.4371090  30.5224729  41.2461567  87.8126240  30.2596092
  41.4945555  88.9932251  31.1736417   0.5391737  73.4595823  67.1502542
  -0.1277180  72.9843616  67.6458883   0.4007212  74.3779421  67.3819399
   9.9570942  68.7385941  34.5602608   9.4924539  68.0002213  34.1663814
   9.4280469  69.5032454  34.3329835 115.1832170 100.6575203  53.2439423
 115.5414785 100.0132275  52.6333952 114.4913029 101.0970211  52.7496433
  60.7151400  18.3558788  94.7722702  59.8583400  18.5906686  94.4159040
  61.2778019  19.0982284  94.5519072   1.5217979  74.3259668  45.5862522
   1.9855589  74.3797636  44.7506285   1.0465682  73.4961748  45.5434418
  18.6943936 104.8247242  64.2356253  18.4070396 103.9158344  64.3226385
  18.2104695 105.2949619  64.9145460 101.1380463  76.7787075  49.0306044
 101.4638453  77.6643372  48.8701534 101.3917499  76.5901947  49.9341106
   8.3669448  92.2333431  32.6291084   8.7221295  91.3449764  32.5992846
   9.0638232  92.7821159  32.2693324  13.8540113  71.0938501  37.8721356
  14.4004893  71.8132353  37.5557876  13.5909081  71.3621569  38.7524867
   4.4371954  77.2093058  13.1964600   3.7262526  76.6791677  13.5566616
   4.0576577  78.0822420  13.0956483  40.1431751  81.6908073  48.1698895
  39.7597671  82.5677204  48.1543684  39.4682622  81.1275673  47.7910900
 111.1678367  61.5881252  40.2956152 110.3434455  61.3085461  40.6936646
 111.7172777  61.8432140  41.0367441 105.3895343  27.2009897   3.3724360
 106.3330233  27.1000432   3.4983973 105.0577009  27.4478483   4.2356734
  32.3023868  70.0170803  82.3144627  31.5792179  70.4992008  81.9134521
  32.3907089  70.4000092  83.1872749  90.1089864  75.9924030  43.4940434
  90.9906727  75.8646059  43.8440800  90.0792795  75.4406166  42.7124548
  20.9704900  54.3806362  43.9217758  20.9362197  55.3370285  43.9410400
  21.8538809  54.1665363  44.2218018  91.0147362  81.2319183  18.8582921
  91.0451108  80.4967117  18.2460952  91.6163235  81.8774700  18.4873688
   4.3147650  89.7228718  92.7027416   4.7375965  90.2029037  91.9906998
   4.8314804  88.9220333  92.7916622  88.1038719  76.1206484  32.2448921
  88.0250316  77.0745468  32.2349286  88.6781316  75.9355307  32.9879856
 102.8486031  57.6802731  69.7134209 102.5389033  58.2672787  69.0236807
 102.7322322  56.8021297  69.3507195  22.7851295  82.6595306  41.4180708
  22.5728106  81.9472027  40.8149576  23.3811522  82.2647858  42.0546007
  91.3292223  77.7375937  67.3870897  90.3871232  77.5893831  67.4690294
  91.5022879  77.6654243  66.4484358  24.1007829 102.3578358  68.3257675
  23.9468265 103.1217384  67.7698994  23.3256912 101.8103313  68.2004690
  44.1827059  62.3348141  33.1426764  44.5342159  63.1941080  33.3756781
  44.7173786  61.7148209  33.6386275  61.8934202  54.3306494  21.5697193
  62.4029875  55.1229382  21.7395806  61.0138464  54.6501350  21.3684630
   9.2582464  76.8023443  90.5338001   9.7129071  75.9851933  90.7382011
   9.9513078  77.3965216  90.2459717  34.3198323  71.2323380  49.6011782
  34.0049243  72.1336746  49.5329094  33.5247612  70.7070494  49.6915340
  13.4363866  77.2130251  39.0512705  13.5040104  76.2584209  39.0315819
  14.1502726  77.4919367  39.6246886  18.7884605  81.9281197  65.1668882
  18.0629432  81.4072037  64.8226357  18.9839804  81.5340805  66.0170317
  35.0611401  56.5082073  60.1548862  34.3869495  56.6274452  60.8238220
  35.4685044  57.3701382  60.0690889   7.9003811  39.6056962  48.9240265
   7.3255521  40.1729059  48.4101486   8.1732631  38.9228725  48.3112335
 112.5640615  74.4298315  64.1933393 112.6498740  74.0199804  65.0540876
 113.3924621  74.2388248  63.7534523  33.3014637   3.7309683  28.8795066
  33.5064870   3.7784422  27.9457283  33.8672435   4.3894042  29.2827296
  38.2771158  92.4631977  66.1350393  37.3829103  92.1232414  66.1674976
  38.7572145  91.8244457  65.6080389 105.9859949 102.8432083  55.4475260
 105.5229848 102.1601105  54.9625254 105.7417517 103.6571598  55.0069952
 105.3647321  83.0729580  48.3973789 104.6891695  83.0843163  47.7193546
 105.5122441  82.1436405  48.5729647   0.5190746  79.1829491  54.7193146
   0.3030426  78.2846165  54.9694300   0.9880042  79.0943670  53.8895607
  27.1742487  52.3542690  33.1163907  26.7316794  51.6569614  32.6325226
  26.7275310  53.1557417  32.8437805  26.3209874   1.3348902  61.5594864
  25.8794981   1.6380251  62.3528481  25.6385893   1.3414324  60.8882761
  78.0868143  18.9820136  82.8441429  78.5606235  18.4604681  82.1962738
  77.4813575  18.3635844  83.2530499  38.2175227   6.7293871  44.1966534
  38.9866770   6.2487925  44.5026970  37.5887767   6.0482253  43.9580584
  26.8456864  74.7331667  51.4620399  26.3034153  75.4901648  51.2403870
  27.6180315  74.8199797  50.9033108  39.6224403  68.3980227  16.5793991
  39.6871662  67.5385809  16.9958103  39.1651702  68.9413214  17.2212422
 115.7205021  94.5570374  35.1232791 114.8041546  94.7961235  35.2624846
 116.0170266  95.1410484  34.4252563 114.9478907  71.7684317  29.1565537
 114.7627444  72.6416397  29.5021749 114.2949539  71.6397524  28.4685493
  12.1381778   4.3428172  21.4170527  12.9341787   3.9835108  21.0252428
  11.4950532   4.3290556  20.7082295   7.0202029  93.9421177  52.1932602
   6.2630200  93.5827732  52.6556253   6.6440606  94.4303894  51.4609098
  12.3322082  87.9611111  66.9485950  11.8118858  87.1638012  66.8496370
  13.2038867  87.6495552  67.1922064  17.9242289  95.0803852  86.6168976
  17.3524857  95.2495098  87.3657227  17.8274632  95.8543491  86.0620499
  23.0745316  65.4574776  36.9476008  23.0481172  66.2819624  36.4620519
  23.8327003  64.9940920  36.5916753  86.2288790 104.0892315  25.8842969
  85.9075409 103.4930611  25.2078724  86.5443760 104.8525810  25.4005671
   0.6092647 109.2445660  53.0900621   0.4259451 108.3734798  52.7381659
   0.8945956 109.0843296  53.9895821  14.2314541  92.1291542  58.3906460
  14.6603549  92.8326893  58.8777924  14.7311103  92.0620918  57.5769663
  18.5258138  75.1035881  34.9777389  18.5930109  74.3047714  34.4546628
  18.9384723  74.8791742  35.8117557   6.8815166  84.0146255  10.2919519
   7.1854669  84.7840118   9.8104024   7.6834857  83.5524082  10.5357289
  55.0928766   6.7334021  80.6818581  54.7680015   6.1250723  81.3456535
  54.3069369   7.0276297  80.2214622  24.0913796  67.4939060  78.8039923
  23.2411742  67.6096106  79.2282486  23.9829969  66.7145157  78.2589769
 100.8733636  86.0408974  29.7416306 100.2822166  86.6917610  30.1199818
 100.3674238  85.2283382  29.7430182  25.8692670  70.6901741  23.6065674
  25.4584789  70.7187176  24.4706702  25.3707862  70.0291824  23.1261110
 112.9960408  98.1739140  71.0251570 113.5614189  98.5292912  70.3393793
 112.7594199  97.3008919  70.7119751 115.2065317  88.8977051  44.8161697
 115.1393383  88.0946445  45.3327036 114.6231768  89.5154953  45.2569294
  97.9764789  63.1619596  75.4538774  97.5799089  63.2726192  76.3180065
  97.2618120  63.3284950  74.8392630 103.4778243  82.3222446  51.8140793
 103.6728197  81.4122295  51.5902615 104.3308931  82.7079391  52.0134449
  51.8870317  35.4693784  86.5037854  52.1513235  36.3811864  86.3813986
  52.6710331  34.9623765  86.2927814  31.6149831  74.7864389  55.2234554
  31.6954422  75.7190084  55.0232840  32.4739361  74.5401573  55.5666447
 102.0684784  71.0535336  87.4656963 101.8037503  70.1976585  87.1286106
 102.9738861  70.9292412  87.7503395 115.3497841  98.2732391  22.7566862
 114.7521948  98.3328629  23.5020471 115.9139695  97.5274849  22.9610872
  31.3976693  82.2643375  17.8345680  31.1304498  82.4007034  18.7435412
  32.2775197  82.6380062  17.7849483  18.5359502 104.4042301  44.3964052
  18.1444418 104.7935200  45.1783276  18.0272985 104.7636795  43.6695623
  11.3975418  67.6234388  28.4190273  10.9573293  68.1440258  27.7471352
  12.0602620  67.1255875  27.9403043  15.8315873 102.3551178  33.3296514
  15.7208264 103.2163143  33.7325311  15.1343298 102.3051262  32.6757669
   5.6251365  81.3452053  25.4701877   6.4414495  81.1814499  24.9979067
   5.8043253  82.1255493  25.9947681  32.4588180  85.3495312  34.3342781
  32.6949477  84.4656372  34.6157169  31.7199349  85.2220631  33.7392688
  37.3801144   2.2636164  30.0926256  37.6687129   1.3599528  30.2203918
  36.6805893   2.3846949  30.7346821  14.7022724  70.0884295  13.9632034
  15.6392086  70.2347326  13.8329041  14.5124888  69.2932892  13.4652376
  94.1886192  62.2321081  68.2510281  93.6357051  62.3042965  69.0290403
  94.5650917  61.3537312  68.3054066 100.4472380  77.1450090  62.8293753
  99.8785525  77.4995899  63.5128260 101.2698250  77.6240540  62.9298544
 108.4758752  81.9513988  14.7381794 108.3710479  82.3299503  13.8652873
 107.8710949  82.4484444  15.2890122  22.7361965  57.6968336  64.2753458
  22.2818732  56.8929052  64.0233040  22.4117374  58.3572960  63.6631775
  98.5216969  76.6031170  55.5713034  98.6830371  75.7610798  55.9969568
  97.7314251  76.9381189  55.9949446  19.5100284  90.1548481  51.9651222
  19.8654056  89.4148731  52.4574327  18.5828102  90.1768303  52.2018003
   1.3469911  79.6484947  40.1495981   0.4222095  79.8233795  40.3240347
   1.8135414  80.3472137  40.6082439 104.2212349  77.3437119  49.2114687
 104.0063887  76.4110756  49.1954041 105.1246196  77.3760033  49.5262432
   5.3990829  21.3422012  46.1816597   6.1697036  20.8156419  46.3940477
   4.6773112  20.9025669  46.6311026   3.4774935  83.0745029  55.7803488
   4.1104722  83.4538364  55.1706982   2.6386887  83.1351280  55.3232241
   0.5925273  68.5321903  45.3619814   1.1424078  67.7789211  45.5774927
   0.9653649  68.8765192  44.5504045  87.9409342  69.5887375  27.7588415
  87.7867299  68.6459255  27.6992440  87.0795208  69.9816895  27.6181698
  31.7646074 102.7403259  53.1565237  31.1763549 103.0434036  52.4649096
  32.4024010 103.4472179  53.2553148 106.8486648  51.8048620  38.9016151
 107.4555921  51.8140602  39.6417427 106.9001454  50.9118986  38.5607362
 104.9680596  89.1909790  47.9631710 105.4029053  88.6058617  48.5834789
 104.1766816  88.7192917  47.7034235 101.6264349  64.1315508  46.2514544
 102.2816795  63.8170624  46.8743372 102.0528012  64.8623800  45.8038616
  17.1830666  82.2128963  61.5512466  17.1786702  82.7439213  60.7548618
  18.0596876  82.3350430  61.9157314  21.3099289 102.4541664  55.4931641
  20.4950285 102.9261971  55.6644964  21.0454416 101.5368080  55.4244709
  31.4482236  68.5786295   6.0858774  31.2475872  67.6433802   6.0501164
  32.3755431  68.6158657   6.3202363  27.4866748  38.5608292  42.0831490
  27.4939013  37.7828264  42.6407290  27.3627162  39.2898965  42.6908731
  22.4565673  75.7794189  23.7334323  22.9112816  76.3445473  24.3580079
  22.3681545  76.3156843  22.9455042  95.5266028 109.0468216  24.8809266
  95.8158880 108.3256245  24.3219805  95.6873947 109.8332977  24.3595433
 104.8400908  52.2809649  29.3916631 105.3024476  51.5503454  28.9809895
 104.3249827  52.6669884  28.6832237  78.5529537  37.6456594   2.9635767
  77.8326388  38.1498384   3.3419661  78.6388940  36.8837117   3.5365252
  46.9637805   6.8626536  57.9610300  47.2816211   7.2070826  58.7956381
  46.7365813   7.6406516  57.4517870 114.2238774  75.2455282  53.9095736
 114.8417949  74.5223141  54.0161800 113.3628129  74.8274612  53.9137983
  25.4455400  94.3450737  18.9472449  25.9865808  94.6623993  19.6703029
  25.4284620  95.0714970  18.3241522  33.6138082  57.5511312   4.2375505
  34.2903256  57.0533514   4.6966472  34.0082002  57.7687502   3.3929634
  36.3876200  79.8857117  50.4557800  36.8238044  80.6624126  50.8060789
  37.0755744  79.2212391  50.4179859   0.9153993  70.3530884  77.0452404
   0.0043314  70.0683832  77.1168518   1.2897861  70.1774406  77.9084969
   5.7317817  74.7917652  53.8709021   6.3923436  75.3987360  54.2047834
   4.9023253  75.1325941  54.2056656  47.7955723  59.9492407  67.6281261
  47.8833342  60.8734655  67.8612471  47.2478628  59.9512005  66.8431139
   8.0670244  76.6362810  61.3350916   8.3275902  77.2226763  62.0453596
   7.1945643  76.3313055  61.5841627   2.2223702  50.5538845  51.2440872
   2.1764103  50.6049824  52.1988153   3.0082196  50.0360107  51.0695028
  -0.0150072 100.2439308  62.4107075  -0.3894974  99.6032906  61.8060780
   0.6433322  99.7529125  62.9023695  25.5208755  78.1706810  57.7260351
  25.5123496  78.5642385  58.5985422  25.6140351  77.2318363  57.8876591
 108.8249915  81.7354202  29.1110039 109.0051883  81.1392212  28.3841515
 108.0403035  81.3770580  29.5258260   8.5901743  95.4522610  46.7979765
   8.6873019  94.5013809  46.8492317   7.7713275  95.5839634  46.3200903
 111.7562961 107.2354698  40.0378513 111.3128399 107.4346066  39.2132807
 111.4751535 106.3459587  40.2522612   1.7580406  91.7147064  37.4162793
   1.0614607  91.1160564  37.6857805   2.3753011  91.7087650  38.1478429
  23.3911943  72.0362568  31.2239480  22.8396106  71.4870214  30.6668806
  23.6100125  71.4775229  31.9697142 115.9144695  64.4429588  20.9881258
 116.2995211  64.9834967  21.6778970 114.9824593  64.6604013  21.0056281
  28.5927582  58.5238171  50.8470440  28.2391167  58.4215117  49.9634695
  28.3413577  59.4108200  51.1044359  36.2210155  89.4378948  44.3799019
  36.4612031  88.5324383  44.1832113  35.3562021  89.3736649  44.7851181
  26.1989498  68.4983540  68.5598612  26.1482525  69.1631317  69.2466879
  25.2862692  68.3067179  68.3441782 106.9720816  72.3541594  40.7682562
 106.0921281  72.0974398  40.4925632 107.1872967  71.7481375  41.4772367
   5.8415204  72.6548672  20.9135222   4.8872337  72.6473188  20.8392835
   6.0095596  72.9354477  21.8131161  22.7397442  89.7811985  34.7217560
  22.1248245  90.2095509  35.3172541  22.2938824  88.9774418  34.4545245
   1.1953345  64.9796915  49.5738792   0.7954212  64.2030716  49.9652433
   0.8953377  64.9713326  48.6649418  32.4406314  77.1314573  87.8624630
  31.6948080  77.6874447  87.6369476  33.1718898  77.7408600  87.9630756
 103.3458000  84.7725296  59.7191906 102.4283438  84.8962116  59.4758558
 103.5224264  85.4703903  60.3500938  26.5612674  80.9965038  40.8818436
  27.0634580  81.6304970  41.3937950  25.6898689  81.0053539  41.2778521
 111.8565458 102.9214478  85.1185703 111.9202536 102.6407814  86.0314751
 111.1832046 102.3558235  84.7405338 110.7478600 103.6659145  30.7289553
 111.3998961 104.1575527  30.2295828 110.8048403 104.0238857  31.6148710
  87.7676314   2.1884287   0.2146870  87.0383424   1.7128314   0.6124029
  87.3790425   3.0058611  -0.0967946 112.8510683  99.2015553  80.3254890
 112.3719066  99.9525261  80.6757545 112.5704014  99.1431522  79.4122219
 116.4249838 101.8773270  31.3423419 115.5385169 101.7281914  31.6712308
 116.7975876 102.5232697  31.9424653   9.9249792  81.7227745  27.1200323
  10.6356847  82.1029758  26.6037202  10.2671123  80.8782101  27.4131036
 108.2627379  81.5707588  56.1253786 108.5271388  80.9932041  55.4093075
 108.1879979  82.4350452  55.7208490 115.0350172 102.0582962  60.7986069
 115.5160438 101.9530392  61.6194391 114.1428512 102.2743988  61.0698509
  70.8372360  91.4881992  93.7106133  71.3833242  92.2523880  93.5261345
  71.0379749  91.2641048  94.6193027 105.0332742  91.6793728  51.3301754
 104.3528062  91.0062504  51.3400078 105.4712599  91.5648842  50.4867935
 100.2310186  70.5410147  52.6881409 100.8291786  70.0903368  53.2842350
 100.7407277  71.2763739  52.3480320  95.9638053  48.8793993  29.3574357
  96.9022089  49.0302753  29.4708538  95.6832915  48.4840965  30.1828313
 102.6996272  76.5059137  42.0376635 103.5906189  76.1781788  42.1599579
 102.5909978  76.5557432  41.0879517  26.5116763  78.8973713  79.1297674
  26.1130214  78.4189177  79.8566675  26.1711454  78.4679747  78.3449793
 110.7790702 103.9417934  63.7881279 110.2945095 104.6366119  63.3424282
 111.0985982 103.3811665  63.0811405  22.0847130  86.2773228  50.8923197
  21.5111589  86.2008190  51.6548252  21.5827584  86.7994213  50.2664709
 102.8542894  69.6335268  50.7888794 102.1583503  69.1063643  50.3964472
 103.2374602  69.0651989  51.4570189 111.2891298  64.0693188  81.5188789
 111.2095499  63.3693695  80.8708286 110.6175041  63.8694763  82.1709633
  51.1927509  72.4837112  75.9483576  50.4724789  72.5049782  76.5784264
  50.8760071  71.9215059  75.2413702  20.0558281  77.4336338  52.6528835
  19.1057336  77.3663092  52.5579119  20.1825380  77.8440714  53.5082912
 114.2307928  29.0401626  33.4524703 115.0726714  29.1488552  33.0101395
 114.0114530  29.9165964  33.7686729  26.8871159  15.4530943  73.1783199
  26.6350895  15.5317439  72.2582483  26.4478928  16.1856211  73.6104298
  14.2048240  86.8274498  54.9813461  14.0068519  86.6017437  55.8902454
  15.1597285  86.8867683  54.9518299 114.6416160  83.2741451  26.1536932
 114.8276136  82.5421143  26.7417192 113.9054036  83.7289238  26.5628338
 115.5859136  67.6903439  48.7538958 116.4683563  67.7616882  49.1178131
 115.0207962  68.0879879  49.4162798  43.9770687  13.4110106  42.4219322
  44.3684960  13.8221777  41.6512489  43.1647819  13.8965071  42.5658703
   8.0249143  82.4130821  47.7150869   8.1784379  82.7932644  46.8501425
   8.7554258  82.7272415  48.2478952 107.0669621  86.7303276  31.8778515
 107.8031879  86.6139698  32.4784040 107.3520916  87.4217987  31.2805271
  23.0837870  89.9568653  79.0837049  22.9241443  90.4434109  78.2749939
  23.4898806  89.1394711  78.7952566   5.7440841  63.8363886  54.8951101
   4.9277666  63.4144783  55.1631546   5.6766695  64.7277212  55.2374840
  20.6183261   6.4446772  67.4776506  20.0059134   7.0654620  67.0829248
  20.5303818   5.6520308  66.9483137 104.1934603 103.9681339  65.9918451
 103.3766204 104.4504738  65.8639669 104.8389655 104.4485474  65.4734230
  10.3749442  68.1540108  23.0310512  10.5753076  68.4109735  23.9310837
   9.4209898  68.0780125  23.0103922  98.7996059  89.6518135  53.2576036
  98.4592539  90.1184750  52.4943113  98.2260864  88.8908577  53.3484602
  41.0050605   5.8850134  63.8801527  40.3169638   5.7235373  63.2346487
  41.6675157   5.2191580  63.6957312   4.2648697  91.5991783  72.2582960
   4.4513518  92.1576691  73.0129719   3.4613907  91.1362362  72.4956465
  95.5155926  63.2784033  49.7604942  94.8149019  63.2775021  50.4126215
  96.2698537  62.9079628  50.2188540  95.5682474  70.4427099  70.6897116
  95.7577210  70.0040483  71.5191126  94.7564846  70.0376034  70.3844833
 105.6109172  75.7420111  80.9634781 106.4794057  76.1380529  81.0349464
 105.1116806  76.3552427  80.4240894 110.9794449  71.9341326  18.2177627
 110.1658880  72.4030876  18.4033322 111.5999388  72.6196575  17.9702270
   3.5732162  50.3597116  27.7134180   3.4117818  50.6758976  28.6023474
   3.1360260  49.5088911  27.6787448  16.9615042  53.7047243  54.7541523
  16.9985676  54.6040869  55.0797224  17.7987432  53.5767460  54.3081856
  64.0426832  82.0126915  38.8754511  63.2822138  81.9610214  38.2964468
  64.7956472  81.9399643  38.2889485   8.6024868  37.5493264  43.9434528
   9.4233817  37.9991698  44.1434622   8.5512221  37.5581932  42.9876661
  27.9590487  95.6191063   8.6700195  27.1990252  95.0490665   8.7868339
  27.5956821  96.4354134   8.3267480  10.0300992  83.6794376  63.5781479
  10.0415945  84.1529083  62.7463245   9.1073126  83.6636353  63.8320112
  18.9941823  87.3831081  58.2585287  18.0696249  87.3085499  58.4948874
  19.3980086  86.5937614  58.6192036  62.9690903 108.9949322  91.6987337
  62.1704333 109.5034552  91.5580787  63.5977476 109.6275664  92.0462923
  29.5929599  54.7976828  61.4798212  29.4945598  55.7263184  61.6900158
  29.1524196  54.3417931  62.1969843  21.4690447  86.8405437  62.9725027
  20.6290865  86.7889118  63.4286118  21.9008279  87.6060677  63.3516693
  16.9274473  78.1462002  39.2050505  17.0085025  77.2388744  39.4990277
  16.0854304  78.4371090  39.5552111  96.7905312  99.6955109  75.1652002
  95.9131437  99.4359016  74.8840809  97.0652455 100.3479004  74.5208788
  32.9592848  40.3386593  38.5831261  33.0783010  40.2139997  39.5246816
  32.0415163  40.1165819  38.4262419  48.0890519   5.1890887  73.0658245
  47.6632941   4.7324313  72.3402691  47.3988658   5.2941550  73.7206793
 102.5847369  72.8671360  61.4334249 103.3492785  73.2394600  60.9940100
 102.5366979  71.9677019  61.1094809  43.8367414  77.1189642  34.8174024
  44.4426775  76.5827560  35.3288245  43.1045341  76.5338373  34.6231532
  11.5790915  76.5061760  76.7126036  11.3687468  75.6008959  76.9416332
  10.7845712  76.8382978  76.2946796 107.2914582  97.3122406  54.0137339
 107.9819434  96.7052269  54.2801809 107.7457714  98.1415939  53.8653803
  12.5166094  79.5267582  25.6522417  12.5956857  79.2513943  24.7389221
  13.3204865  79.2139530  26.0671711  30.4295063  68.4250593  22.4565172
  30.0273418  68.4338808  21.5879440  30.3603387  69.3296719  22.7616811
  97.4508720  78.0412912  49.4700861  97.8183275  78.3924627  48.6589861
  96.7055422  78.6105537  49.6615458  97.1224218  85.9598160  56.0389900
  97.2124439  86.1913490  55.1145887  97.8848069  86.3563919  56.4605713
   7.8063858  62.7358055  49.6861982   7.4550402  62.8427267  50.5701399
   8.2550210  61.8905163  49.7074032  98.5351484 101.5949345  42.9662991
  97.6368695 101.3028812  43.1213140  98.9633315 100.8443928  42.5545025
  11.0681415  91.8203354  56.9934130  10.3916335  91.6249847  56.3450241
  11.8814433  91.5173626  56.5897083  51.8734169  60.9250212  14.4668043
  51.7066813  61.2427616  13.5794067  52.6393270  60.3577900  14.3781447
   9.6735108  84.5791054  42.7864695  10.0109708  83.7023640  42.9699659
  10.4554319  85.1265335  42.7146721  29.4347954  54.3472862  36.4016366
  29.9820352  54.0045404  35.6950331  30.0500059  54.7840261  36.9907069
 115.0831486  90.1466560  55.2789116 115.0554133  90.2569675  54.3284941
 114.1684171  90.0234604  55.5325270  35.2462244  99.8028088  39.5695996
  34.6735263 100.2554703  38.9504504  35.2520680  98.8937569  39.2698717
  98.1598442  91.2427711  58.0546618  97.4392753  91.1611462  57.4298811
  97.9906672  90.5617619  58.7056923  96.5355569  44.8592854  45.2590847
  95.5998045  45.0442600  45.1791668  96.6137701  43.9273643  45.0550270
  52.3576927  66.2007284  31.2487340  51.4897490  66.5669680  31.4183474
  52.9229069  66.6111326  31.9032049  13.8131058  75.4313183  24.8225260
  13.2252634  75.4156399  24.0672588  13.2827771  75.0968409  25.5457878
  11.9293749  85.3878307  21.9201255  12.6382446  86.0020542  22.1110916
  11.4817941  85.7663918  21.1634254  51.3322067  55.2490997  31.0631490
  52.1642017  55.6803560  30.8681226  50.7303476  55.9671831  31.2590003
  90.4374867 102.7859211  41.4176083  89.8770552 102.7767181  40.6416798
  91.3217359 102.9105473  41.0729313  75.2610153   9.4011630  73.5028505
  74.6826524   9.5978106  74.2397738  74.8318261   8.6762846  73.0483389
   9.2729884  85.9980392  55.3764820   9.6382660  86.0533905  54.4934559
   9.7294086  86.6811085  55.8677340  13.8028669  92.6629066  29.2927933
  13.2365227  93.3393574  28.9214373  13.2508576  92.2129345  29.9323535
  66.5313929   6.1332549  51.6966057  66.4448279   6.4135302  50.7854605
  66.9827813   5.2906836  51.6461611  32.6061344  75.0452185  61.9397306
  31.6894317  75.0958395  61.6689396  32.5712180  74.7484732  62.8491020
   9.0719247  80.0369644  83.1064701   9.2062187  79.5264006  82.3080254
   8.1712276  80.3539562  83.0394173  45.4756260   9.1244639  82.2955418
  45.5061281   9.8190440  82.9534626  45.4744464   8.3132208  82.8035831
  94.1979294  73.4265995  28.9192605  94.8724704  73.7440491  29.5196366
  94.5607382  73.5825348  28.0473185  15.1977170  93.7459373  46.7010927
  15.8067572  93.6161613  47.4280453  15.7138741  93.5519886  45.9186649
  33.4597039  78.6748981  75.7525015  33.9305019  78.1123590  75.1375771
  33.8626409  79.5365477  75.6455803  48.4491295   9.1265715  95.1648712
  48.0815649   8.2431544  95.1383591  48.4715074   9.3488444  96.0956383
  29.8802781  63.5780764  38.8779902  29.2703938  63.3816004  38.1668878
  29.8833919  62.7866507  39.4163895 100.0928848  98.8129711  76.4513636
 100.4199284  98.2335281  77.1394920 100.6226533  98.5964489  75.6840992
  16.9865549  99.6522808  45.9748363  17.7281761  99.1358566  46.2903357
  17.3851204 100.4300213  45.5843401  32.1770120  93.4605217  46.5569639
  31.4056587  93.8834381  46.9342995  31.9999695  93.4344959  45.6166410
  61.4851922   0.1028765  11.7288494  62.0538873  -0.5268823  11.2858796
  61.5992445   0.9159888  11.2368453   7.2054201  83.9952087  19.0007722
   7.7028173  83.2299328  19.2891753   6.3186938  83.8413048  19.3267477
  72.2074408   6.2660254  11.6655231  71.6310162   6.7560996  11.0791850
  73.0915421   6.5021742  11.3847506  26.4081478  77.7402067  48.1283903
  26.4165616  78.1221676  49.0060377  27.0874214  78.2181978  47.6526308
  63.8767356  22.5762881  34.3320370  63.0775541  22.0670928  34.4671893
  64.4793314  21.9674052  33.9049935  48.3185041  11.5764082  53.8039970
  49.0561038  11.7383040  53.2158089  48.2694632  10.6227244  53.8697720
  42.1048403  87.6438046  46.6422939  41.6628504  88.0560207  45.9000301
  41.4787912  87.7140427  47.3629570  72.4427146   2.1135462   0.1623004
  72.7484411   1.3723792  -0.3606099  73.2337517   2.6209582   0.3440129
  15.6392491  62.8517199  58.1206799  15.9679294  61.9620228  57.9916811
  16.3402307  63.2997227  58.5941267  35.0441957 102.0572948  51.8967772
  35.1981950 102.5907803  51.1170959  35.7445765 101.4049816  51.8828249
  92.4645572  78.9599419  41.7024469  92.5836521  78.5268021  42.5476885
  91.5593868  78.7656879  41.4592028  43.6316681  74.3400955  30.7628345
  42.7500010  74.5943880  30.4903841  43.5044003  73.5350513  31.2647748
  43.5297021  10.2973689  54.8910999  43.0413142  11.0931242  54.6801853
  44.4365072  10.5899752  54.9822950   4.3802592  98.4214020  84.5270348
   3.4413037  98.5799885  84.4298458   4.7771838  99.2905140  84.4693279
   8.6238557  85.4182816  32.8093815   8.0219954  85.4154778  32.0650768
   9.1224581  84.6063995  32.7172852  18.3161855 101.7444038  15.3753984
  18.3082032 101.0464764  16.0304332  17.4269843 102.0983601  15.3917015
   9.3948358  79.3713474  65.5743313   9.9232280  79.6150446  64.8143005
   8.5041946  79.6328259  65.3406191  70.9804982   3.5025443  66.2419081
  71.2089008   2.6255740  65.9337282  70.5501455   3.3558787  67.0842361
  21.9126987  76.5709162  31.3571215  21.4501214  75.8962774  31.8542314
  21.8391395  77.3584270  31.8962336  64.3056822  99.1674995   6.6752410
  63.9347124  98.7382126   5.9043133  65.0795078  98.6467361   6.8902427
  74.1650981   2.4291552   3.9099523  73.3883161   2.6617182   3.4012687
  73.9762038   2.7451075   4.7935402  40.9441948  69.5584011  59.9266100
  41.4914417  70.2018309  59.4763327  40.4194689  69.1617441  59.2312288
  11.0910726 105.9734154  58.3321667  10.6798518 105.4808807  57.6218557
  11.3297689 106.8113327  57.9357290  30.2305984  60.3152990  43.7749529
  29.8254085  60.5231953  44.6168709  31.1652446  60.4671669  43.9149618
  67.4669331   7.7810992  34.7456098  66.8004888   8.0260218  34.1036606
  68.1165975   8.4823073  34.6958113   6.8802148  97.6586628  65.9580755
   6.0170412  97.7122974  66.3682985   6.8056834  98.1993008  65.1716995
  22.7967996   4.7342242  40.5226088  22.5177056   4.0566481  39.9067831
  23.4477037   5.2434290  40.0396347   7.7606046  86.5944290  42.2314644
   7.6538670  86.3531494  41.3113451   8.4278333  85.9924412  42.5610828
   7.2275507 100.3276920  21.4636159   6.4638627 100.6736660  21.9254804
   7.1171516 100.6264019  20.5609417  76.6730160  11.1814345  24.1857409
  76.3093585  11.9196738  24.6746087  77.3749727  10.8470000  24.7439837
  13.7387574 105.7632446  50.3064203  13.9601195 104.8342133  50.2420855
  13.4501505 106.0022449  49.4256163  50.4874945 103.6638832  30.4784465
  50.9179878 103.4228325  31.2986875  51.2042093 103.7619972  29.8516107
  48.7193203 103.0425549  36.4352751  47.7995205 102.8609371  36.2423611
  48.6979866 103.8195229  36.9939303  10.9971321  79.9504185  33.2602644
  11.0281539  80.6496906  33.9131737  11.6088820  80.2309513  32.5796080
  55.8582312  16.0970438  60.3397942  56.0318536  16.6348494  61.1123562
  54.9951011  15.7163561  60.5020237  20.9244251  59.1606474  80.0159168
  20.6090832  59.3865681  80.8909893  20.1509094  58.8271666  79.5612812
  11.8457585  62.1527280  89.0639790  11.6844064  61.5130033  89.7574844
  12.7993709  62.1910085  88.9905884 107.6960015  92.9416180  23.1357121
 107.2325456  93.4800339  23.7772322 107.7127319  92.0670605  23.5244322
  28.7847829  75.6958294  53.9132690  29.3076301  76.3245106  54.4108868
  28.9734435  75.8993673  52.9971838  27.5312233  58.7720633  34.2634726
  27.3823023  58.2617664  33.4674501  26.6533017  58.9968157  34.5716429
  26.9037151 107.6088238  48.1392002  26.7717052 107.6719761  49.0851498
  27.6329327 108.2021141  47.9589939  25.3955859   5.0979746  51.7714930
  25.8292693   5.7422579  52.3309994  25.3763801   5.5065859  50.9061003
  31.7277789 108.2783413  61.7591953  31.5930271 107.8975105  62.6269722
  31.8901491 107.5260448  61.1900568  12.2480810  66.4945126  11.3921046
  12.0813775  67.2629404  10.8462477  11.7375398  65.7953405  10.9837687
   8.8908881  99.5569515  72.3975086   9.7118890 100.0310421  72.2655010
   9.0349132  98.7077141  71.9800329 115.5801579  88.1963730  35.2557683
 115.9632833  87.4721718  34.7608185 115.6587767  87.9287434  36.1714220
  65.9054107  10.2163161  45.9705973  66.7349714  10.4833830  45.5747032
  65.7466167   9.3381060  45.6245184  30.9902239  72.6091051  49.5892429
  31.1293030  71.7114973  49.8912096  30.9045911  72.5315905  48.6390400
   8.8705117  84.8209858  25.5197549   9.5450163  84.7730732  26.1972356
   9.2433619  84.3467236  24.7765994  25.9881949  76.4651251  72.8829765
  26.4465475  77.2952318  73.0136108  25.7398534  76.1873102  73.7646675
  25.6085229  91.6424942  29.4067478  26.1356568  91.7294979  30.2009726
  24.7097254  91.5551853  29.7241902  43.2796335  95.3119659  12.3571944
  42.7710342  94.5025253  12.3084736  44.1919470  95.0236511  12.3289061
 111.6726178   4.6893347  21.8751526 112.2873420   3.9748610  22.0421076
 111.4509982   5.0227011  22.7446222  42.8476286 107.3198414  42.7329826
  43.2717562 106.7994690  43.4153032  43.1648493 106.9428825  41.9123077
   2.4877931  99.5515156  53.0389023   2.2754529  98.6218166  53.1214142
   1.7719771 100.0014305  53.4876919  31.1275864  85.9605598  25.2987599
  30.9817100  86.2932777  26.1843419  30.3616071  86.2519932  24.8042130
  41.6627645  56.6270638  25.1448774  41.3123512  56.8382978  24.2795324
  42.6102543  56.5844584  25.0157309 112.5020533  79.8491669  71.8944073
 111.9817924  80.6444168  71.7797995 111.9537520  79.2800045  72.4344587
 103.1351774  88.1333637  30.7004714 102.5612515  87.5754356  30.1755404
 103.5605877  88.7066269  30.0627971   4.9436548  87.7282429  63.3147621
   5.1482069  88.3971024  63.9682245   4.0120766  87.8496170  63.1312943
  40.6394482  91.0654449  49.4521570  40.2998877  91.5167904  48.6793566
  41.5340996  91.3923931  49.5466709  49.2566413  16.3944853  11.7333746
  49.0599901  15.4667605  11.6034615  50.1893526  16.4720000  11.5326929
  20.7988834 103.4270096  29.6164131  20.4209423 102.5589275  29.4756031
  21.6256213 103.2578850  30.0682211  10.5010915  71.2252808  38.3651733
  10.7502532  72.0134735  37.8825712  11.2105787  71.0954380  38.9944577
   5.4518241  85.0897694  34.2303061   5.9335655  85.8291531  33.8595366
   5.8017433  84.3236446  33.7755060  16.0953772 106.4655972  28.3589435
  16.1476994 105.9785271  27.5365949  16.6892958 106.0025501  28.9497757
  43.0628920  90.9035397  72.9727554  43.6436939  90.8011532  72.2188187
  42.2602463  90.4470730  72.7205038  86.1600446  57.8210248  94.3820124
  85.2569126  57.8092374  94.6989445  86.5540391  58.5813703  94.8096571
 117.0653342  68.8198185  55.3873205 116.6292856  69.2531109  56.1210442
 116.9741877  69.4334173  54.6583366  41.0318851 106.6522121  48.6610031
  40.5195475 107.4173069  48.3995485  41.8040037 106.6764450  48.0957794
  59.2455548  23.1284464  23.6034036  59.1093844  24.0128554  23.2635498
  58.5109502  22.6226080  23.2559609  46.0646391   5.1471652  52.3353958
  45.4592842   4.6943797  52.9225636  46.6712248   5.6011237  52.9203749
  41.2074089  81.5284061  58.9488268  41.4857483  81.8721294  59.7977161
  41.4266777  82.2215652  58.3261919  20.3205156 109.8967838   2.0770271
  21.2320161 110.0397396   1.8221499  20.3247976 109.0452862   2.5142524
  28.8023710 103.1639957  37.1134377  28.2953358 103.9758110  37.1029305
  29.6911359 103.4395981  37.3378825 106.4806562  97.8560543  58.3949757
 105.9052330  97.9936790  59.1474247 107.3392701  97.6790524  58.7792730
 112.4206269  19.4779777   3.4444289 112.3779619  19.6399736   4.3868594
 113.3552778  19.5022010   3.2393126   4.1342422  78.1906700  61.3350010
   4.0307534  78.9393711  60.7476616   3.4158224  78.2767534  61.9616556
  49.0155763   7.0386542  63.9752007  49.8105186   6.9774760  63.4455252
  49.0300650   7.9287566  64.3269730  93.7949997  94.8770714  27.0065498
  94.3111926  95.4648495  27.5581789  92.8872305  95.0500488  27.2560835
  36.9778275  90.8356857  34.2879343  36.9417858  90.2959824  35.0776482
  36.8361044  91.7288685  34.6015739  51.6359520 109.3531418  47.5005198
  50.8279800 108.9472485  47.8146315  51.6884089 109.1002560  46.5788174
   5.4866582  68.4863663  35.4980779   4.8372832  68.3478165  34.8086238
   5.5944556  67.6253366  35.9021020 114.0642601 109.6423340  19.8136139
 114.2260441 110.2292919  20.5522180 113.1123733 109.5445728  19.7894096
  17.9097795  85.2328205  69.5468187  17.1334481  85.6510258  69.9191809
  18.2290244  85.8572769  68.8953829  85.4911857  53.0949582  80.9741803
  86.1020940  52.3790063  81.1486454  85.5956703  53.6860265  81.7198034
 113.0880057  49.2926110  86.2980189 112.4792206  49.9020852  85.8807112
 113.0158388  48.4903230  85.7809450  60.8044022   2.5328291  14.8065639
  60.5767363   1.7023695  14.3885481  61.6902918   2.7217711  14.4971585
  15.1039469  90.6944084   3.1902772  15.6523657  89.9459076   2.9553047
  15.0694418  90.6751919   4.1466618   9.9027640 100.6081104  21.7750049
   9.0219194 100.2345943  21.8038297   9.9461257 101.0543823  20.9293127
  71.7372030  22.9172171  45.1991415  71.6146058  22.5238074  44.3351793
  72.6649636  22.7840842  45.3934765  39.8586035 107.5614262  95.0866604
  39.5920062 108.0247307  94.2926121  39.1649985 107.7505684  95.7186127
  95.9107214  81.8555355  58.2336283  95.9437328  82.2336102  59.1123772
  95.4355841  82.5025272  57.7122116  14.3825090  93.7072945  51.1410141
  14.7408748  93.1232452  51.8093634  13.4416318  93.7231255  51.3163185
  48.4317350  99.9647999  67.0193672  47.9481792  99.3190670  67.5345612
  49.2440128 100.1007652  67.5071764  27.6028484   4.5985735  62.3366165
  27.1761233   5.4475916  62.2212505  28.4225434   4.6741522  61.8481255
 106.5322190  90.1353741  45.5892515 105.9803026  90.7435894  45.0976276
 105.9183078  89.6384144  46.1299706 106.5814131  89.9949169  32.7493000
 106.6280311  90.6613922  33.4347630 106.7050009  89.1662312  33.2121658
  64.4501084   1.4945448  27.3579860  64.9957460   2.0756758  27.8878832
  63.8649982   2.0836676  26.8817401  10.8341897  70.4331446  42.3190928
   9.9676859  70.1406813  42.0364761  10.8403862  70.2848959  43.2647228
  43.7572527  77.9026747  66.9717789  44.7075081  77.8012609  66.9173717
  43.6082458  78.8387346  66.8383074  87.7026528   7.3326052  36.7176080
  88.4672183   7.4369467  36.1512303  86.9554585   7.3689974  36.1204410
  39.2048240  66.0792875  55.3930759  39.3245864  67.0277357  55.4414129
  39.2712879  65.8767366  54.4599152  90.8163613   7.5145377  61.1185169
  90.2869910   8.2685126  61.3783503  91.7017192   7.7314032  61.4106464
  21.8750739  63.6285448  16.9361341  21.5426517  63.0914974  16.2168920
  22.1607518  64.4401979  16.5168035 109.0922123  91.3107300  51.7082405
 109.0433669  92.2553921  51.8547630 109.0770280  91.2149620  50.7559633
  18.4562695  93.7737751  50.3920650  18.3711672  93.3804226  51.2605476
  19.3994665  93.7956333  50.2304125  43.9667892  88.2240009  52.3716259
  44.6803951  87.6777267  52.0421028  43.1840897  87.6824093  52.2702169
  40.8812714  70.8018684  37.4838972  41.4542818  71.2591743  36.8684602
  41.4735174  70.4594278  38.1533837  29.3434620  12.0801295  43.0580282
  29.9771011  12.2147120  42.3533106  29.3463391  11.1343325  43.2053185
  70.7451052  16.7460288  54.8081589  70.5538434  17.6300181  54.4947577
  70.9125251  16.2408389  54.0125513  28.7506747  52.5892258  76.5575886
  29.5545888  52.9321146  76.9479513  28.3587408  52.0539665  77.2476006
 112.3839008  86.8963528  29.1070533 111.6594010  86.5368462  29.6190000
 112.0075628  87.6534748  28.6583114  36.1331168   1.5984858  32.7591896
  35.3238589   1.1734045  32.4752259  35.9280935   1.9491328  33.6259341
  25.0673819  77.1620512  45.9258652  25.6809902  77.2917080  46.6489840
  25.5722022  76.6872787  45.2655745  17.1965659  86.2930393  54.7713566
  18.0632365  86.0463047  55.0942135  17.0793307  85.7714462  53.9773607
 114.0913227  63.0723143  24.9735832 114.0182432  62.8023005  24.0581679
 114.9855521  63.4039593  25.0548172  18.8509023  95.6381416  56.8310499
  18.6375070  94.7262764  56.6330862  19.7271311  95.6012440  57.2145748
   2.8863111  71.0148430  47.7023792   1.9468483  70.9549570  47.8757477
   3.0714059  71.9539642  47.7073908  25.3648281 110.0278950  70.8483553
  25.7228422 109.4322014  71.5065432  24.6650863 109.5278835  70.4281282
  34.9691749  96.3558483  35.3621244  35.6256318  96.9068241  35.7884145
  34.5292830  96.9410038  34.7454166  38.5532174   2.4455107  47.2867298
  39.1241563   2.7340640  47.9987669  37.9414948   3.1709612  47.1612644
  11.1236584 102.9759598  73.8270855  11.7817974 103.5653687  73.4587288
  11.4930224 102.6984882  74.6654224  39.1324568 103.8166714  28.8937354
  39.9655366 104.2288780  29.1224265  39.1468120 103.7615967  27.9382300
  72.4005336   1.6717089  18.2962072  73.0849713   1.7814387  17.6361060
  72.8680724   1.6895522  19.1312635  36.9175267  82.1913719  43.4740448
  36.4249015  81.3755035  43.3851290  37.2778869  82.3498726  42.6015472
  13.3598125 108.3117104  58.1274509  13.5977161 109.0537834  58.6832809
  12.4153316 108.4009552  58.0000830  99.9319928  68.4506702  50.6329679
 100.2100497  69.1311932  51.2459993  99.8432785  68.9048386  49.7950602
  16.0990989  96.8428993  35.3176236  17.0103419  97.0522022  35.5227065
  15.5953312  97.2505093  36.0221148 103.9700752  84.1766071  62.8187323
 104.3282037  83.5825157  63.4782982 103.0521291  84.2851925  63.0673647
  55.0445223  95.5973434  12.4671090  55.3061056  96.1880684  13.1734037
  54.2348099  95.9764957  12.1252859  49.9856192  17.5318278  41.7758274
  49.1291720  17.9516829  41.6955185  49.8239929  16.6141737  41.5566921
  33.8613558  79.0478468  49.6308756  34.7068357  79.3410397  49.9706316
  33.2268882  79.6559620  50.0101852  43.5965633  56.5154552  39.8309016
  44.2897081  56.9485474  39.3326902  42.8641462  56.4530087  39.2177963
  50.5601925   5.9437407  55.2990150  50.9443957   6.1787928  56.1436272
  50.9579116   5.1007498  55.0812578   5.0680941  94.7045708  72.7161789
   4.8599371  94.4208717  73.6063576   5.5496305  95.5236340  72.8322744
  56.1554367   9.9717082  23.8096690  55.5654556   9.8563612  23.0647874
  56.8302363   9.3041171  23.6863518  18.1249642  61.5337515  64.0677595
  18.1826067  61.9133520  63.1909418  18.6413670  62.1225595  64.6180916
  25.8025384  89.5987320  49.8646832  25.4513025  88.7132454  49.9584246
  26.3056040  89.5719337  49.0507793  42.1760705   2.8199805  42.1903324
  42.1047515   3.5415686  42.8151941  41.8453598   3.1815947  41.3680840
 114.2714512 109.3324184  69.1377783 114.3936315 109.3530655  68.1886292
 113.7966516 110.1396275  69.3357611  56.7900497  22.1031226  46.3795900
  56.5303046  21.5816153  45.6201172  57.7438611  22.0275153  46.4071608
  13.1840086  83.8887501  42.5470877  14.1394556  83.9449310  42.5611687
  12.9674506  83.7207603  41.6299677  43.9070165   8.4886874  64.0788841
  43.7138495   8.9937724  63.2890701  43.0522710   8.1835211  64.3830490
  33.8082480  90.3533173  37.5551844  33.7194610  90.0221348  36.6615033
  32.9748893  90.7893848  37.7329183  47.8888989  38.1893290  22.0381808
  48.1760538  37.4484480  21.5044594  46.9363910  38.1975401  21.9438720
  40.3117561  98.9625835  89.2092514  41.1505842  98.9400101  89.6697807
  39.6605229  99.0680790  89.9027920  11.7967737  76.0583782  28.6660004
  12.5615096  76.5814400  28.9064574  11.1568260  76.2392044  29.3544769
  88.1268186   2.9798544  62.2546482  88.1627911   3.2030810  63.1847620
  88.9671201   3.2758368  61.9046259  22.8146243 107.9596519  64.9462414
  22.9864526 108.2342052  64.0455055  22.0198917 107.4293804  64.8875284
  32.1679854  85.6829739  68.3101273  32.1102047  85.9401894  69.2303085
  31.4170599  85.1048851  68.1754160  49.6197224  84.9127197  43.2369280
  48.9166212  84.9491596  43.8854265  49.2223454  84.4885540  42.4763966
  24.0228677 103.0332947  84.6332264  24.7489095 102.4096107  84.6226883
  23.3861113 102.6494408  85.2360725  63.3707518  30.0420607  14.4008565
  63.4701437  30.9117545  14.0135837  64.2627424  29.7757376  14.6237004
   5.6223637  84.2975426  50.1187420   5.4247338  84.7102737  50.9594679
   4.8146042  83.8432598  49.8791838  30.3598428  74.8194647  65.2046776
  29.5346308  74.4164085  65.4745007  31.0344195  74.2172003  65.5184507
   7.5440633 103.5629940  42.4110031   7.3718894 102.8117847  41.8433142
   6.9054019 103.4794712  43.1190729  11.1477470 102.5756931  32.5751877
  11.4040363 102.2416496  31.7155576  11.5098059 101.9431019  33.1956482
 109.2075461  81.2980270   7.3389322 108.9627146  80.4448605   7.6972705
 110.1601999  81.2580109   7.2547823  21.2327027  57.2028589  52.4384403
  21.5742779  57.8951216  51.8724585  21.9928408  56.9053221  52.9383326
 114.2011389  49.0390348  38.3322072 114.0806671  48.9261866  37.3893476
 113.3140313  49.1436815  38.6761856  25.1734662  56.3340139  70.4830742
  25.7581997  56.5514040  71.2090635  25.5945134  56.7170000  69.7134781
  39.7475076  74.7335815  54.1583347  39.4182968  74.6026516  55.0475550
  40.4013348  74.0443850  54.0410948  90.2205819  24.7947825  39.1355491
  90.4854363  23.8859404  39.2772746  90.8563870  25.3097857  39.6322942
  33.0244207  80.0316334  42.1133471  32.8847098  80.8033752  42.6620960
  32.4160552  80.1438141  41.3829088  35.9206986 100.3788185  41.9670820
  36.7031384 100.9050941  41.8026114  35.6539965 100.0691986  41.1014938
  18.8591957  87.9861450  29.2465758  18.0920362  88.1368828  28.6943293
  18.7060070  88.5261536  30.0219178  46.4402235   7.6729620  37.8469181
  46.0235900   7.5173415  38.6945224  46.0733050   7.0007647  37.2726703
  19.5577157  73.0470943  43.0245733  19.1287458  72.3526478  43.5245371
  20.2226925  73.3944416  43.6190367  33.4748554  70.8270693  68.4674692
  33.2202840  70.4967880  69.3290615  32.8536725  70.4217100  67.8624487
  19.0977919 102.0625019  18.9231288  18.5480595 102.3539066  18.1957328
  19.2701471 101.1392879  18.7381935   6.4154369  80.7025814  79.1742373
   6.4392006  79.7960567  78.8678360   5.5050802  80.8437729  79.4341373
  19.5800459 109.1456413  88.1130314  18.8829172 108.7461185  87.5928020
  20.0744176 108.4035683  88.4611225   9.1453058  82.9918861  31.3801932
   8.6401558  83.1266594  30.5783892   9.3951684  82.0682621  31.3534617
  41.7679501  64.1525984  57.3853397  41.9548368  64.8876476  57.9692984
  42.5527191  64.0718079  56.8432713  55.2743041  52.5853337  90.0183000
  54.8766767  51.8263902  89.5915456  56.2162124  52.4228944  89.9667902
  88.8269347  20.2180422  52.2880697  89.1130036  20.1405848  53.1982327
  89.4543046  20.8217658  51.8903780  23.9664435  82.8283024  33.2554173
  23.2530308  83.0585957  33.8505936  24.3415165  83.6693764  32.9943633
  20.9356761  95.7818604  58.5935163  21.7596078  95.4618359  58.9608765
  20.7127905  96.5417099  59.1312742  22.0922232 101.5265274  64.9751568
  22.7893496 101.8736649  64.4186163  22.4931073 100.7831001  65.4255295
  23.4939599  55.3576469  49.9652195  23.5442162  54.8507977  50.7756567
  22.8038692  54.9303198  49.4578743   8.3054966  72.8377962  14.7599590
   8.7237597  72.2210836  15.3607535   7.7594054  73.3870745  15.3223741
  28.1451559  95.7944202  48.2526112  29.0637922  95.5301571  48.3026552
  27.6573730  95.0187683  48.5294914  69.7060937   7.7767600  18.1346595
  68.8937634   7.2720564  18.0943203  69.4739837   8.5654009  18.6249650
 105.7300460  49.0208425  89.0606065 106.4451777  48.7831392  89.6507897
 106.1407077  49.0788831  88.1979241  45.5004615   5.9637202  86.9768715
  45.2231610   5.0502146  86.9073105  46.0157824   6.1185397  86.1852169
  14.6767688  67.9706764  12.3009562  15.3992248  68.0975294  11.6859794
  14.3228972  67.1090937  12.0803130 114.2536359 106.3329697  58.7752008
 115.1064784 106.0230637  59.0799141 113.6958223 105.5553150  58.7931347
  68.1910849  65.0411749   2.6356608  67.9875469  64.3321896   2.0256214
  68.5910749  65.7187414   2.0905541  26.3862324 101.0603619  35.3457308
  25.8244920 100.6521034  34.6869397  26.0043097 101.9274139  35.4820728
  43.5537767  85.9109020  33.0014658  44.3234396  85.3661060  32.8369737
  43.8267231  86.5066624  33.6991739  14.6550369  49.9635410  32.0027518
  14.7261083  49.1875172  32.5585961  15.5460799  50.3107262  31.9610786
  43.8891268  91.0717201  52.3675394  43.7666702  90.1417828  52.5584888
  44.0286827  91.4757347  53.2240009  30.1999569  79.6874475  11.2577021
  30.5089140  80.1389027  10.4722297  30.6652594  78.8509703  11.2518334
  77.5314278  13.0525435  29.1555595  77.8771490  13.3185614  28.3035374
  76.6855449  12.6513613  28.9561534  60.8030272 100.6399155  25.0585747
  60.7699251  99.8514652  24.5168424  60.1602983 101.2290764  24.6635699
  33.4099650  74.1185284  65.0656843  32.8344846  73.4285688  65.3958511
  34.0229201  73.6633015  64.4883776   8.6079687  30.8452929  16.7545104
   8.1088132  30.1247920  16.3698518   8.2118267  30.9781588  17.6157010
  10.1407909  93.9716530  44.0169525   9.9954009  93.4537697  44.8087215
   9.3473482  93.8426208  43.4973049  16.0974073  86.5215683  72.7856302
  15.8083463  85.9837246  72.0484686  15.4193103  86.4011478  73.4503937
  50.4242706 103.1686401  84.1265011  51.3399315 103.1425667  83.8488197
  50.0620890 102.3314190  83.8364697  66.6422892 100.1160526  31.4841604
  66.7070913  99.2126560  31.1744642  67.3131847 100.1850986  32.1633959
  28.9518690 104.1915131  59.8551607  29.1625285 104.9341202  59.2891359
  28.1933069 103.7813377  59.4397449  47.3436594 101.7548466  21.8069673
  47.8433371 101.7080116  22.6220512  47.4107599 100.8758354  21.4340520
  52.5496608  19.8857821  45.7234335  52.2053164  19.4165743  44.9634981
  52.5259298  19.2432917  46.4325666  18.9969075  93.4454060  32.4107313
  18.2591784  92.8664684  32.6026249  19.1179430  93.3733559  31.4639521
  31.9706964  83.7776375  56.8409157  31.7013931  84.6910572  56.9377089
  31.2728620  83.2762146  57.2626257  31.8208671  85.5124664  77.0506191
  30.8801126  85.4816532  76.8766546  32.1563387  84.6871662  76.7005062
  51.0980839  17.3576964  23.1951404  51.4069134  16.5853919  23.6688423
  50.1496285  17.2411860  23.1395459  22.6118684  97.3670578  74.0623379
  22.7024841  98.2796478  74.3365479  23.3140659  96.9077110  74.5229340
  33.6508989  93.2649517  23.7542224  33.9711094  92.5402927  23.2170272
  33.5812902  92.8974056  24.6353006   3.8353208  89.5201874  57.2375679
   4.6191600  89.9385357  56.8814611   3.6014810  88.8572693  56.5878820
  63.1943464 101.6086006  22.0258713  62.2555161 101.4463615  22.1180868
  63.2731390 102.5625420  22.0201802  13.9783049  60.6386566  79.7732210
  13.5296011  61.4783239  79.8724937  14.0703928  60.3091335  80.6671810
  97.6532059 107.1546745  72.9821730  98.3298772 106.5114212  72.7710533
  97.6178103 107.1599102  73.9387083  39.1146326  93.6397743  54.2081690
  38.8490057  94.4399643  54.6613503  38.2915878  93.1961346  54.0031910
  45.6606483  91.9023705  60.3034973  46.5081120  91.9942093  60.7389307
  45.3258276  92.7968502  60.2399778  82.8593558   2.4094046  77.3179722
  82.5784749   3.1886519  77.7976751  82.5626630   1.6763056  77.8571987
  76.5655679   6.2332762  68.4429121  76.4150185   7.1398772  68.1752443
  75.9241957   5.7267607  67.9445982  23.6012101 109.0278721  59.6858692
  23.8849425 108.1249714  59.8290539  24.3182182 109.5614529  60.0285482
  47.1585894  95.9825516  25.2333188  47.6895428  95.1989365  25.3757167
  47.5563097  96.6468716  25.7961035  39.9955177 109.3167019  40.7125568
  40.0635529 108.7985229  39.9106216  39.1087317 109.1490650  41.0315228
   6.7643255  74.2393589  78.0662680   6.0376114  74.6486759  78.5359287
   7.0394844  73.5182190  78.6323738   7.5221783  68.6688471  32.3658633
   7.1044111  68.5912466  31.5081453   7.3756909  67.8190708  32.7813840
  29.9216175  92.2770023  50.4160833  29.0808916  92.4406719  49.9887419
  29.7143316  92.2504234  51.3501930  35.6682682  81.5656376  60.7714558
  36.5005565  82.0074177  60.6030512  35.0363922  82.0268440  60.2198648
  39.8922324  81.5244007  39.3998361  40.7021236  81.8365192  38.9962482
  39.5851016  80.8312511  38.8154960  62.6934523   1.7313517  52.6322556
  63.2170528   1.3128603  53.3155870  62.8652448   2.6670397  52.7381468
  12.5238526  98.1333828  70.9067392  12.9301739  97.6796627  71.6451645
  12.5185263  99.0549469  71.1654472  64.9554253 108.0876064  78.6625338
  65.1051044 108.8430405  78.0940723  64.1273975 108.2794571  79.1027546
 111.0560626   3.2775057  47.9581928 111.8275994   2.7117575  47.9281616
 110.4614467   2.8395022  48.5671473  46.3033152  62.2500038  52.4629593
  46.5385485  61.6652775  53.1833696  46.1815882  61.6684771  51.7124653
  52.5998062   3.8297976  33.3334255  53.1296688   3.8441790  34.1304636
  53.2139987   4.0513171  32.6334763  10.7996493  46.9403066  91.4390873
  10.8553535  46.7251386  92.3701270  10.9373456  47.8868760  91.4033573
  41.9743347  88.7742901  64.3302441  42.5400829  89.5311928  64.1777277
  41.3143444  88.8253880  63.6388397  19.4797242  99.8629570  33.4406757
  18.6999595 100.3703690  33.6659241  20.1947594 100.4988194  33.4657884
  35.6760240  91.6332245  17.1796942  35.3344822  90.7815742  17.4522185
  35.9687829  91.4966869  16.2786508  51.7117363   9.9338664  31.1523700
  52.1029824  10.6671942  30.6776118  52.1252507   9.9592627  32.0152688
  40.8010101  96.7339993  21.0018039  41.7066765  96.4328575  20.9289026
  40.6747770  96.8890476  21.9378901  84.7609234  94.6941376   2.8967360
  84.1996288  95.0154400   2.1910876  85.6167698  95.0839233   2.7183467
  38.5183477  94.5841599  20.4235673  38.4199810  93.8176060  19.8588073
  39.1540265  95.1367283  19.9687946  83.1165761   2.1129549  46.2194824
  83.3920354   2.8573645  45.6844997  82.5464553   2.4953402  46.8865490
  26.4020061  82.2949600  38.5750437  26.4348650  81.8406105  39.4168997
  26.2577319  81.5997219  37.9331279  73.4087604   6.9397105  24.8967576
  74.3428463   7.1246375  24.9943233  73.3006448   6.0579813  25.2532673
  70.7507628  39.5516909  80.9984493  69.8303694  39.2936553  81.0486984
  71.1971516  38.9672698  81.6111565  17.9702085   9.5199431  40.2414513
  17.2459525   9.3880881  39.6296525  18.0518216  10.4708422  40.3146315
   4.2636839 101.3892651  35.9745669   4.9161050 100.7085228  35.8097458
   3.5432804 100.9308815  36.4071536  12.8341854  94.0870762  55.0780535
  13.4468043  94.3731308  55.7556295  11.9867253  94.0501022  55.5215359
   1.2789877  77.2336006  43.7285423   1.7027646  76.4287376  44.0265989
   0.9543128  77.0232677  42.8529978  83.8927287   9.6082629  11.5185785
  84.0059918   9.8070277  10.5891192  83.3963984   8.7898673  11.5297401
  26.2846231  59.0340233  75.2666283  26.9448161  59.2082405  75.9374666
  26.2906337  58.0821276  75.1661682 115.7152814   2.3749674  70.6934309
 115.0933761   2.8764952  70.1662397 115.6660956   1.4863719  70.3409863
  68.3194179  16.7934836  37.3295736  67.5870961  17.0247115  36.7581964
  68.1602281  15.8794344  37.5649500  44.0685701  89.9214649  56.3802290
  43.4892607  89.8951721  55.6186914  44.9051523  89.5875359  56.0564137
  81.5230388   3.8082255  33.1673741  80.9173221   4.1686476  32.5197411
  82.3845214   3.8820208  32.7567220  20.5662084  77.4184704  76.6042900
  21.0421014  77.0182657  75.8765602  20.9570408  77.0315123  77.3877096
  81.2703675  29.0508975  72.5701952  80.9011144  29.5196093  71.8217325
  82.0836419  29.5159472  72.7665091  47.2639060   0.8565939  39.8437119
  47.5410760   1.3000144  39.0419745  48.0362302   0.3663577  40.1255322
 114.9620830  97.9240704  42.0551157 114.4253998  97.2290134  41.6742086
 115.1281192  97.6341438  42.9521132  34.8506403  91.1545563  54.0515900
  34.9680853  90.5119991  54.7512722  34.1885161  90.7670307  53.4791803
 106.2342292  75.7806540  44.5676661 107.0868295  75.4576874  44.2761278
 106.4059764  76.6733503  44.8673820  14.0746987 103.4893227  57.9031849
  13.8901150 103.4756184  58.8423204  14.0673387 104.4179535  57.6711750
  36.1752129  86.2942982   6.9835871  35.4103041  86.7648411   7.3148465
  36.9018102  86.6100025   7.5208175  27.5788856 105.4381371  36.9943500
  26.6474175 105.4604435  36.7750239  27.7611256 106.3062859  37.3539734
  78.9263248  98.1762218  30.6222272  78.5421991  98.7818623  31.2561703
  79.8166323  98.0284691  30.9412098  32.6829195  65.0689125  42.1667004
  33.5890484  64.8405075  42.3740387  32.4108815  64.4118357  41.5260172
  24.2880940 102.2794342  63.5202551  24.7228289 102.9427719  64.0561867
  24.6724868 102.3850060  62.6500034  59.5159721 107.9145050  21.3677812
  60.2493572 107.3856831  21.6819715  58.9824629 108.0710697  22.1469402
   1.4202714 103.3319283  43.1609535   1.5142846 103.9963436  43.8435602
   2.2298890 102.8235054  43.2084608  62.7262658   8.3077372  21.6512918
  62.7479595   9.0407217  21.0360718  62.0514316   7.7240313  21.3047051
  62.4165863   0.5893935  41.1503553  63.0536860  -0.0641595  40.8619022
  61.5945524   0.1050223  41.2270021  25.3504205  96.8937397  69.2117214
  24.8800874  96.5917015  69.9887609  24.7466516  97.5041199  68.7884808
  45.7441807  73.0772877  50.8700657  45.4893780  72.1651983  51.0093498
  45.0372791  73.5866451  51.2663889  72.2188014  15.6304205  47.2565269
  71.5200848  15.7313097  47.9029369  72.9754132  15.3388442  47.7652025
 101.0436171  11.0329951  89.4663048 101.0710734  11.1860312  88.5218143
 101.9628638  11.0117472  89.7323227  27.5558257 105.9304333  31.3950491
  27.2161269 106.7097187  31.8349957  27.5055265 105.2406979  32.0568395
  52.0351213   8.6194552  89.1602516  51.7211694   8.7863577  88.2715416
  52.8104013   9.1738833  89.2484665  62.2742558  89.9667168  37.9092145
  61.9570732  89.3623829  37.2380924  62.3960543  90.7958317  37.4466515
  63.5003632  14.2723883  80.1501751  64.0404552  13.8913859  80.8425426
  64.1303510  14.6227778  79.5204306  52.5664789  12.9002417  36.4333606
  51.8602938  12.2962702  36.2036824  52.2337085  13.3806170  37.1914721
  42.3929977  70.0434542  23.2181382  42.0268679  69.7179604  22.3958039
  43.2476044  69.6175289  23.2850194  53.2340521   1.3373507  45.2454376
  52.8411466   1.9354189  45.8811808  54.1416186   1.2428511  45.5346203
  76.6044325   7.0809496  88.6950588  76.7430848   6.2439574  88.2518291
  76.7961234   6.8993891  89.6151257  66.7811441  88.5445118  39.5674086
  67.4127197  88.8119602  40.2350998  65.9536791  88.9331913  39.8510623
  42.5278091  84.5930672  47.6262045  42.4599695  84.0396690  46.8481445
  42.3816347  85.4816151  47.3016214  40.4840994  97.8848362  53.2120943
  40.8392477  97.4356079  53.9791012  39.7283340  98.3680248  53.5461330
  44.2888641  82.4640083  10.5513668  44.6871614  82.0444965   9.7887409
  45.0243759  82.8615189  11.0174561  45.8715820  90.1459312  12.1743798
  45.1258135  90.4793739  11.6755056  45.5823326  90.1758575  13.0863392
  61.3946247 108.5114002  63.7798309  61.1290169 107.9509354  63.0507469
  62.1244860 109.0249157  63.4336424  46.5103006  71.6498375  29.4785309
  45.7289791  71.9690847  29.0270257  47.2346640  71.8837023  28.8981581
  37.6863647 106.0938931  22.4731541  38.3851099 105.5390739  22.1265197
  38.1364155 106.8789577  22.7851748  81.2116411  24.6277990  88.3334382
  82.0231899  24.6766652  88.8386436  80.9571125  23.7061204  88.3776541
  10.5191875 107.6321983  30.0498748   9.7418445 107.0817757  29.9550200
  10.1898301 108.4493732  30.4240203  37.6814938  83.6947441  16.3930452
  36.8694496  83.8775253  15.9203851  38.3735681  83.8583183  15.7523382
   6.5429902  89.6086979  86.9382858   7.0178795  89.9581718  87.6923275
   6.3883299  88.6898613  87.1574879  59.8351860 107.2755718  61.8603468
  58.9696264 106.9303608  61.6415548  59.7656393 108.2164764  61.6987753
  77.7421254  16.7913664  26.4948606  78.6483926  17.0845927  26.5893412
  77.6057357  16.7357863  25.5490589  30.0980544  98.0757999  50.4412460
  29.2637467  97.9079151  50.0030899  30.7459235  98.0603027  49.7367907
  11.6968215 106.9296360  79.1021729  12.0343375 107.7431107  78.7272406
  12.4675786 106.3690758  79.1912556 101.4323825   1.4516581  37.8887701
 101.8305081   1.4964999  37.0194507 101.6515416   0.5761660  38.2077050
  59.4524956  99.4891644  39.0301394  58.9049673 100.0801182  39.5470738
  59.5514584  98.7119293  39.5799899  27.0851111 102.6067638  30.8643579
  26.3687611 101.9720459  30.8787727  27.8479314 102.1006870  30.5846763
 105.9688348   6.6783083  41.5981340 105.0740069   6.8267191  41.2923670
 105.9559506   6.9479216  42.5164890  37.1875143  75.7899380  59.0281916
  36.5578389  75.9736109  59.7253323  37.7999878  76.5248966  59.0588999
  71.7099142 106.8684673  36.9620800  72.1041346 106.0148811  36.7825985
  72.1851015 107.4757576  36.3949656  62.3809475   1.6843832  63.7827015
  62.3867721   2.6341666  63.9014769  62.0423597   1.3416422  64.6098137
 106.4417713 104.7636795  90.7908154 107.2708505 104.6144485  90.3362942
 106.0840457 103.8868999  90.9305668  46.8585873 101.3982677  24.9775910
  47.5462437 100.8544064  24.5934486  47.2862673 101.8441868  25.7086706
   9.1051067  42.1718729  33.4825826   9.2679179  41.5064658  34.1511393
   9.8428691  42.0897521  32.8782678  94.8900145   1.3346423  58.1402302
  94.8705977   1.6373862  57.2323751  94.1995591   1.8355025  58.5745525
  99.4744319   4.4825591  74.2886209  99.1892308   5.3954161  74.2488623
 100.1086348   4.4607676  75.0052404  95.1722770   4.0800244  33.5034275
  94.2281466   4.2258966  33.4436822  95.2648574   3.3658111  34.1339517
  62.0137840  36.3686705   9.6474218  62.6213556  36.1147094   8.9527345
  61.8139749  35.5502701  10.1018786  57.7683168  20.8181524  28.6565757
  57.1814066  20.3177643  28.0896711  58.6127287  20.7959890  28.2063389
  78.0791129 104.4798177  24.5230794  77.3720367 104.4904076  23.8779712
  78.8806676 104.4988971  24.0002227  92.0641487 108.6075688  90.2601160
  92.1064346 109.5631886  90.2952631  91.4291017 108.3709002  90.9360875
  22.7225542  21.0218263  39.2366409  22.8089857  20.1855350  39.6942186
  21.9973707  20.8872056  38.6265445 115.2536295  52.1100378   9.6294707
 115.9924061  52.3988342  10.1652288 115.6246228  51.4467859   9.0474999
  27.0320606  22.9083920  71.1597300  26.2801647  22.7494574  70.5890989
  26.7163849  23.5462976  71.7997742 116.6841723  13.8007510  10.4814482
 116.1886411  13.0448639  10.1663041 116.0326689  14.4973016  10.5626404
  97.4606710  66.0819721  20.8101892  97.6879304  65.7447767  19.9436533
  98.3033400  66.2805176  21.2185025   9.6732241  41.4917469  81.3321400
  10.3998601  41.0902929  80.8556271  10.0321019  42.3127794  81.6688156
  95.2316385  62.2640371  31.6800690  94.7992306  62.0920658  30.8435988
  96.0557419  62.6881838  31.4409351 104.6043401   2.2243260  74.2074299
 103.7678354   2.2887607  74.6682358 104.5542901   1.3931876  73.7352705
  14.4916022  32.6902246  21.8300939  15.0791669  33.1444573  21.2262154
  14.9896538  32.6244569  22.6448655  71.2510400   5.0723600  26.3896418
  71.9000250   5.5262858  26.9272280  71.1015945   4.2431134  26.8437862
   0.6917237  15.2958417  70.4131556  -0.0511147  15.8930075  70.5015612
   1.4232281  15.8592427  70.1607418  17.0288277  70.2531099  21.2724137
  17.4052513  70.5176210  22.1118021  17.5961137  69.5447206  20.9681129
 106.1570829  29.7499943  29.0533161 105.6766480  30.5761147  29.1075253
 105.8895677  29.3718696  28.2156467   9.7756785  44.5806408  40.5865812
   9.1154820  45.2677059  40.4953766   9.3222892  43.7773514  40.3308535
 108.9932382  35.9338236  69.0072203 108.1695598  35.4864860  69.2013216
 109.1712641  36.4575052  69.7884321  91.3976699  19.4205379  53.9489365
  92.2415572  18.9854157  54.0704012  90.8579069  19.1026402  54.6726942
  15.6295729  22.4866748  45.9945440  14.7754729  22.8277636  46.2598801
  16.0961926  23.2491684  45.6523418   6.8369788  14.3830669  53.7433910
   6.5302163  13.6514902  53.2077360   6.3950229  14.2660248  54.5843458
   2.2934256  52.8953505  37.3237562   1.4300117  53.2478666  37.1081567
   2.6488733  53.5088682  37.9667830   1.3479176  36.7692423  48.2392406
   0.8191283  36.8288970  49.0348864   2.1227622  36.2731147  48.5032558
  21.2255502  65.5806589  24.6747088  21.3792658  65.1045847  25.4907680
  22.1016979  65.7871675  24.3492126   7.9743063  27.4253368  48.1652117
   7.2637928  27.8118110  48.6771107   8.3482164  28.1613088  47.6806831
  13.9159012  38.2164407  41.3813114  14.7374475  37.7621269  41.1945152
  13.7336242  38.7181425  40.5867672  17.4861503  41.2759829  37.4512362
  17.3916495  42.2210264  37.3321056  18.2805562  41.1790228  37.9763532
 107.3741137  25.4080558  13.9034545 106.5132671  25.4843545  13.4919286
 107.3812049  24.5292544  14.2827833  14.9889493  61.9427061  11.5115798
  14.7957587  61.6713524  10.6142068  14.3495011  62.6304913  11.6967475
 107.1770930  44.4201231   9.2136163 106.9171005  43.6641312   8.6872047
 106.3843137  44.9529505   9.2754745  10.6993639  44.0077114  49.6234655
  10.8243978  43.0854368  49.8470974  11.0153806  44.0807676  48.7228966
  71.8628460  48.3613825  23.2007241  71.8571430  47.8630543  24.0179563
  71.5213924  47.7520418  22.5462437 105.3311955   3.1482925  92.9769345
 105.2183759   3.0008306  93.9159547 106.1773216   3.5898246  92.9037811
 115.1531210  76.1474133  43.5905933 115.8074934  76.5786076  44.1402292
 115.5098046  75.2729034  43.4348869  90.3871369 108.1407270  43.3789158
  90.0571667 109.0268096  43.5279465  89.7593033 107.7504622  42.7708483
 102.0214492  11.6750538  42.7308702 102.6619964  10.9973347  42.9468060
 101.6399222  11.9212258  43.5735226   5.9907752  92.4636936  55.6506157
   5.6733036  93.0390739  56.3465881   6.0836947  91.6085625  56.0705614
  23.5381818  18.7840629  53.1407881  24.4310784  18.4409964  53.1764841
  23.5174513  19.3155682  52.3449802  95.8723980  49.2045450  65.1519918
  95.5440002  49.7950935  65.8299541  95.9437352  49.7529316  64.3706989
  97.2885435  45.2347755  34.6452761  96.7577034  45.1096535  35.4319048
  96.7769914  44.8307323  33.9443493 115.3996454  47.9480267  52.5556660
 115.7139030  47.9045200  51.6525698 114.6225592  48.5052395  52.5122738
  30.6084609  82.1639729  20.4525995  29.6674943  82.1480274  20.6274056
  31.0136747  82.0421886  21.3112068   8.1205040  48.2881212  16.6372359
   7.1658587  48.3381796  16.5884578   8.4263408  48.8373852  15.9154308
   4.2325199  51.3290691  60.7596636   4.2736119  50.5404568  61.3006258
   4.2140734  51.0018873  59.8603058  15.5682099  51.2460852  25.5804920
  16.1337996  51.5859175  26.2739277  15.6734073  51.8671083  24.8597312
  68.6301171 110.3192394  14.6356797  68.2252442 109.5007179  14.3487430
  69.5437955 110.0885261  14.8035955  24.4804335  26.6265321  56.2130976
  24.3208170  27.4073124  56.7433214  24.5853019  25.9209204  56.8513298
 101.4121872  47.7301693  27.6894951 100.6586319  47.8353214  27.1086931
 101.8177944  46.9096375  27.4094200   0.3362815  52.8129101  54.0505171
  -0.5436993  53.1846952  54.1108513   0.9211397  53.5611343  54.1702271
  31.9950962  25.7117867  33.6511588  31.8211770  25.3864264  34.5344043
  31.1934972  26.1725831  33.4034920  18.1408489  30.0505447  11.1055696
  17.9299319  29.2796206  11.6322803  19.0939581  30.1223731  11.1570990
   3.9750430  40.1872396  36.0649180   3.6439976  41.0345554  35.7670927
   4.9267444  40.2650833  35.9983087  55.9012842  75.1309633  27.3623896
  55.7934809  74.3886280  27.9569936  55.3795719  74.8999548  26.5938282
  11.2853265  26.1296177  58.5943794  11.5978956  25.6994987  59.3903303
  10.4289341  25.7351184  58.4294701  31.2216330  56.6277409  31.7346191
  30.8120465  57.2654009  32.3193097  32.1491122  56.6477203  31.9704413
  42.5252104  47.1441317   9.0761030  43.3393335  47.2121859   8.5773033
  42.6466703  47.7400446   9.8152715  19.8482358  38.4988928  63.2666969
  19.0368795  37.9954743  63.3338118  19.8496056  39.0558720  64.0451622
  15.3640163  25.2999949  10.1048362  14.6665525  24.8943686   9.5898187
  16.1177540  25.3179431   9.5151007  99.4767636  44.7386312  80.3823185
  99.3295568  45.6842041  80.3609562  98.6108094  44.3580484  80.2356529
 109.4679784  50.7348680  29.9704766 110.0964462  51.1101818  29.3537116
 108.8295638  50.2843952  29.4175458   7.3655510  47.8951454  48.7963676
   8.2179695  48.0486155  49.2038727   7.1988302  46.9626331  48.9337111
 112.2629535  53.4641552  40.6360006 112.5490361  53.9423752  39.8577380
 111.8998926  54.1377640  41.2110376  55.1520920  49.6827412  21.0226989
  55.6125212  50.4186535  21.4260173  55.7788658  49.3230820  20.3949809
  25.4586148  75.5422020  34.6709871  25.4222703  75.5136299  33.7149048
  26.1273861  76.1987448  34.8657370  19.3607080  29.2991948  55.5782938
  18.7263477  28.7486172  55.1192904  19.0694916  29.2909908  56.4900827
  32.6349354  52.1068239  48.4182644  33.2273293  52.8506136  48.3083487
  32.9168725  51.6947222  49.2349148 107.0195299  11.2639916  34.2042518
 106.7286998  11.2275290  35.1154709 107.5126379  12.0820975  34.1427755
 107.0515048  58.2259607  42.8486300 106.4442640  58.9610434  42.9331541
 106.5936070  57.4892712  43.2534122 112.2441431  29.0619564  45.4317665
 111.4193916  29.4111061  45.0939608 112.7304568  29.8339915  45.7210684
  18.0390072  52.5479317  11.9671488  18.5966289  52.1128082  12.6120985
  18.0229664  51.9484472  11.2210989  98.2331293  22.9438472  58.1771231
  99.0154427  22.4154234  58.0190468  97.5792318  22.5899649  57.5742817
  94.6455532  49.3081045   5.1910067  95.5471378  49.4329929   4.8947328
  94.3026477  48.6136055   4.6285850   9.4014406  11.0491347  51.5925980
   9.0426123  11.6381001  50.9288263  10.1329339  11.5349245  51.9735956
  12.3451805  70.7983065  25.3545332  12.7267563  71.3129091  26.0657382
  12.9987288  70.8335161  24.6560574  81.2002927  55.1721382  49.9220991
  80.5474668  55.0715446  49.2293310  81.8311268  54.4706059  49.7604418
  29.0050316  58.3512926  42.2622728  29.4279790  59.0059948  42.8178930
  29.7060633  57.7399302  42.0363951 116.7210765  59.9398565  23.6904526
 117.2862546  60.6303358  23.3439732 116.3888681  60.2937365  24.5154619
  15.1655447  53.6338949  67.4981070  16.1175597  53.5345221  67.5031614
  14.8313773  52.7460527  67.6257896   5.6775904  43.8240528  22.0191884
   5.5617028  44.0792227  21.1039329   5.9259248  44.6343517  22.4641395
  91.6640835  56.3728237  62.4847269  91.6973978  56.8102074  63.3354998
  91.6438418  55.4394293  62.6959038  13.5231984  50.4581356   6.5110528
  12.8506064  50.9135246   6.0046208  13.3265054  50.6771040   7.4218750
  58.1979584 101.5808528  70.4601717  59.0795039 101.3581370  70.1609945
  57.6179516 101.0575902  69.9069834  30.7331181  41.9612932   3.1020549
  30.2138186  41.7056131   2.3396985  30.3538752  41.4651775   3.8275027
  16.4949906  18.7716484  44.6135139  17.1186662  18.9078844  45.3267431
  16.4262199  19.6267426  44.1888762 115.1809424  43.4747362  80.5677128
 115.1642464  43.0680084  79.7013855 115.9699758  43.1247663  80.9814453
   8.7541359  59.2954311  94.4520990   8.0573719  58.9198250  93.9138863
   8.6914604  60.2385534  94.3010213   4.0408736  39.5611477  48.5829544
   4.6073699  38.8524938  48.2777929   3.7041503  39.9608207  47.7810097
 105.9001499  40.6263638  23.8523388 106.0643857  39.7974038  24.3018723
 104.9614852  40.6154776  23.6651993  17.1280277  17.4175835  37.4765301
  17.1858788  17.9356694  38.2793188  17.9934502  17.4993765  37.0757985
  28.0145216  71.8022585  24.7725129  27.4444389  71.1726809  24.3310714
  27.4376273  72.2600937  25.3839159  10.3357518  44.6963310  61.2470675
  10.3283143  43.7401247  61.2041283  11.0627043  44.9558544  60.6810141
  29.0864944   6.7596680   7.8079599  28.8266516   6.1192507   8.4702128
  29.9876380   6.5239888   7.5874418  87.7009874  39.7865057  19.8587680
  87.7984219  40.7361889  19.9283361  88.0804568  39.5685267  19.0074635
  12.3378158  20.2868509  54.6275187  12.3284745  19.3479455  54.8135233
  11.8005264  20.6733656  55.3190088  88.8193910  68.1050146  89.1212477
  89.7120827  68.4383453  89.0305503  88.2784670  68.8898051  89.2091955
  14.9097109   9.8090500  54.3890333  14.0511680  10.0969958  54.0788317
  14.7490072   8.9469147  54.7726059  39.2398977  81.9533683  90.3649213
  39.0258996  82.1916080  89.4628807  39.0496461  81.0167027  90.4168274
  81.9436126  29.4192863  17.5878215  82.3702722  28.9522815  16.8694210
  82.5777083  30.0868464  17.8495812 107.0578998  27.8814960  37.4288344
 106.3503164  28.5193992  37.3359108 107.0754671  27.4194908  36.5906978
  14.0973103  26.1438298  35.7946539  13.9016867  26.4971113  34.9268079
  13.7480760  25.2528334  35.7748413  25.7718396  42.8138733  44.7764540
  26.2542033  42.2158146  45.3473091  25.5430341  43.5519218  45.3414011
  11.1198759  73.3740377  36.7567873  11.9005370  73.8699102  36.5099907
  10.5913281  73.3468485  35.9592080 101.6126328  76.0973692   1.4781874
 100.7367759  76.4602423   1.6102171 101.6311186  75.3114796   2.0243251
 105.9056478  29.4411397   8.4351563 106.1827391  28.6005068   8.0707526
 104.9959677  29.3002558   8.6975807  32.9272628  19.8974967  54.9143314
  33.7441468  20.3086329  54.6316719  33.1160617  19.5691073  55.7933950
  15.4717541  82.5345135  46.6970062  15.3051746  81.6561985  46.3548851
  16.4155376  82.6566219  46.5940905  95.5896192  28.6858726  23.7831140
  95.9613281  28.0412197  24.3851852  96.1846715  29.4337845  23.8357592
  19.1002488  93.3299255  36.2580800  19.2492425  93.8377666  37.0556593
  18.5484278  92.5998306  36.5385866   5.2033895  65.4959631  73.4358644
   5.4643166  65.5531120  72.5166893   5.6830996  64.7400141  73.7744570
 101.5837961  86.8290138  35.5294704 101.6653269  86.0488605  34.9808884
 101.4326482  87.5427818  34.9098539  24.8489356  80.3842449  14.1709316
  24.2849898  80.4883289  14.9373281  24.3721271  80.8162880  13.4622562
  29.4531560 105.3041935  24.7677064  28.6442089 104.8884392  25.0660181
  29.2647004 106.2422466  24.7954750  56.5964800   2.4731101  65.2290297
  57.4062115   2.0702494  64.9155521  55.9766275   2.3565901  64.5090008
  29.9872398  87.9752445  54.4155931  30.5460715  87.3726463  53.9248657
  29.3984151  88.3452606  53.7578678 107.4632608  23.8303614  19.1631818
 106.6118723  23.8936639  19.5960355 107.9055953  23.1081104  19.6091938
  24.0520191  56.6083479  54.2623043  24.9437761  56.7186069  54.5922184
  24.1546702  56.0932493  53.4620762  59.2474412  16.3023700  76.0211213
  58.7980925  15.6518735  76.5607293  58.9988612  16.0818662  75.1234456
  38.2148528  68.0205917  67.9362535  37.5539565  68.4118748  68.5075188
  38.5758543  68.7595177  67.4464560 115.2583330  53.0329323  14.5316863
 114.7473067  52.9082870  13.7319684 116.0485069  53.4891462  14.2423296
 115.1236139  46.9061470  63.0008936 115.6664881  47.6942348  63.0217552
 115.5205492  46.3597679  62.3225546  10.1598239  65.8219767  56.0627651
  10.4294395  66.1406898  55.2013922   9.6648425  65.0236559  55.8786058
  38.6509681  51.4060163   8.1926030  38.8311648  50.5958271   8.6694169
  37.6962280  51.4424276   8.1344706 102.5340670  39.9412727  51.4904594
 103.3425074  39.9237227  52.0026588 102.1040385  40.7562494  51.7495251
 108.8424545  53.3418179  52.3224115 108.3016812  53.7270021  51.6328955
 108.4944283  53.7109900  53.1340885 111.6913181  32.3509407  90.2846146
 112.2925451  31.6424823  90.0547314 111.5048271  32.2148633  91.2135506
  97.0233958  43.5153532  19.6586645  96.2701874  44.0747261  19.8484194
  97.1793359  43.0388689  20.4740644  98.7451857  78.3523226  23.5702348
  99.6232920  78.6458635  23.8131261  98.2325190  79.1581011  23.5059667
 102.9794913  49.0793037  16.6359150 102.6721805  49.2744827  15.7506490
 103.9062589  49.3185425  16.6259158 102.5971335  46.0718012  65.2001429
 102.7282172  45.4604626  65.9249306 103.1782323  46.8061972  65.3981781
  10.7171905  34.2549539  46.1267328  11.1214554  35.1169586  46.0279989
  10.8583724  33.8261056  45.2827024  52.2958242   3.4404363  93.9820750
  52.5654566   3.3233203  94.8930169  52.1800863   2.5501003  93.6501959
  87.5560861  32.8096509  15.6987631  87.4390679  33.4125733  14.9645793
  88.1622391  33.2617140  16.2856591   4.6825147  63.8140345  10.3143418
   5.6014627  63.6946154  10.0745392   4.3704018  62.9314232  10.5138731
 105.7070600 108.7499680  29.9177241 105.2796947 107.9887553  29.5251107
 105.6304347 109.4361191  29.2547345 111.1772543  76.8233967  50.5333090
 110.4821193  77.4696732  50.6572104 111.8320578  77.2750425  50.0008774
  40.8900261  11.7837012  39.9088883  39.9917531  12.0347905  40.1240444
  41.2210846  11.3713157  40.7067442  13.1414580  34.1400671  52.8636360
  12.3417914  34.6603370  52.9416418  13.8385963  34.7870803  52.7559090
  12.3299134  80.4390049  43.4028769  11.6937876  81.1056519  43.1437492
  12.2709775  79.7727203  42.7181625  13.1473792  36.5453768  49.9445295
  13.4071636  37.3608232  49.5158195  13.8182902  35.9139681  49.6848488
  27.8668380  78.4340954  55.8834887  28.1857848  78.9197111  56.6441965
  26.9480896  78.6905146  55.8036232  20.3475213  72.4807978  26.1091924
  20.5665684  72.6980925  25.2030849  20.9639049  72.9918051  26.6337633
   8.3400840  16.7951143  56.7328739   9.0192831  16.2486386  57.1282005
   8.0554014  16.3035035  55.9624815 106.5376228  85.0802803  70.9522438
 106.4342004  86.0134411  70.7658577 105.7856565  84.8611641  71.5024853
 110.8387750  52.8437090  15.3332829 111.0235875  53.7427139  15.0614965
 111.2203544  52.7748251  16.2084317  32.3381734  67.6135731  41.3841629
  32.6626587  66.8213177  41.8122625  32.0533395  67.3188782  40.5191469
   7.1607012  21.1461353  27.8332829   6.3803303  21.3311481  28.3557987
   7.8578907  21.6449308  28.2591486  84.1796714  95.5244637  30.2986956
  84.3935829  96.4570427  30.2710581  83.2403665  95.4994965  30.4812169
  19.7652388  46.4606094  91.0380745  19.3960655  45.7816792  91.6028690
  19.4588411  47.2829247  91.4203644  17.7377892  47.3325014  45.8972216
  17.9110217  46.8161392  45.1100779  17.7090514  48.2379818  45.5881643
  18.4357250  73.6187410  46.7488289  17.9663396  72.7869797  46.6849136
  18.4965789  73.7877846  47.6890182  44.3919516  36.3245749  31.3237405
  45.0960445  36.9688177  31.3974595  44.6619511  35.7561636  30.6024647
 109.6870183  77.8184795  24.4509625 110.1532542  77.2783422  23.8129139
 109.2938363  78.5187626  23.9301491   2.1055552  52.2596407  49.0076256
   1.5907620  51.7122030  49.6005297   2.3377010  51.6769838  48.2845402
 107.6255220  56.1915541  16.4266038 108.5655498  56.1631632  16.6048551
 107.5139880  55.6534052  15.6429029   5.9853357  52.4624300  32.3633528
   6.2154257  51.7147064  31.8118048   6.3256568  52.2354269  33.2287335
  98.8264578  57.0756817  64.3931866  98.7103491  57.4044561  63.5017490
  98.1505447  57.5221968  64.9030828 113.0058202  86.4055538  48.0119658
 113.8963428  86.0706234  47.9069757 112.7774086  86.7530060  47.1497965
 114.1223272  48.1644392  35.7190275 114.5718711  48.2073164  34.8750472
 113.2397186  47.8619385  35.5051827  29.0981412  57.5875616  24.4235253
  28.3399534  57.1220827  24.0703726  28.7242174  58.2390070  25.0168443
  31.3119698  59.4421053   8.8749439  31.6585660  58.6686039   9.3196869
  30.3681684  59.4048119   9.0301120 112.5171256  60.7632685  11.7307651
 112.2161886  61.2491560  12.4986076 113.4585881  60.9322262  11.6942537
 102.9785996  37.7586532  24.8478055 103.4515899  36.9561028  25.0678611
 103.4291058  38.4448338  25.3401780  99.7437494  83.4145355   1.0281579
  99.7635883  84.3605042   1.1730466 100.5020278  83.0826473   1.5088822
  25.9382153  70.0108719  41.5369844  25.6113744  69.7281933  42.3910904
  25.1496315  70.2158833  41.0346508   2.2742881  35.9542537  38.9981031
   2.7980915  35.7126665  39.7619724   1.5054856  36.3919663  39.3635917
  21.0283971  66.8928671   8.3941835  20.1869941  66.4366579   8.4063739
  21.2663865  66.9811296   9.3171144  34.9352884  41.7901134  26.5201163
  34.9829960  42.5184202  25.9008241  34.0499043  41.8397474  26.8804812
  89.4743877  36.9917011  44.6822739  88.9974623  37.3558593  43.9365101
  89.4389420  37.6787257  45.3478336  11.6246307  56.3804483   8.6731172
  12.2609568  57.0039082   9.0232903  11.9034791  55.5331326   9.0202850
 114.7379307   8.8475126   4.1171330 114.3167585   8.5874271   3.2978642
 114.6590931   8.0785102   4.6816254  47.4401665  55.1272202  11.6117907
  46.9518137  55.0805616  10.7898617  46.8295574  55.5274963  12.2307944
  30.2659082  61.0784101  25.1036549  30.9630322  61.3013363  25.7205439
  29.4870520  61.5084362  25.4567695   9.3716615  75.7720613  46.7791700
   9.0584910  75.5516958  45.9019089  10.2455223  76.1359692  46.6371393
 115.0617563   3.6921014  89.1111525 115.0702178   4.6367683  89.2653109
 115.0822984   3.3063115  89.9869247  79.3135723   3.6300267  82.1327777
  78.7263576   4.3418302  82.3872252  78.8339444   3.1548061  81.4542826
  44.4577646  62.3153639  41.0651875  45.0222158  62.4029064  41.8332767
  45.0323534  62.5032425  40.3230381  99.8111003  67.4283218  54.8389482
 100.7573801  67.2887373  54.8750114  99.6718639  68.2489443  55.3116322
   2.5330538  65.5912161  34.3512416   2.0034991  64.7964478  34.4156027
   1.9915296  66.1997938  33.8486290  58.8448715  46.2426615  24.8150277
  59.6156693  46.7539835  25.0613093  59.1852951  45.5591011  24.2378902
  97.4832421  72.0046139  26.2438035  96.8365150  71.3513184  25.9770060
  97.4214416  72.6888990  25.5773449  26.0595036  54.9352121  32.5017762
  26.3921452  55.2609587  33.3381200  26.8212628  54.9415827  31.9221950
  22.0366383  26.0509133  39.5289612  21.5979576  25.5063176  38.8753510
  22.4377203  26.7570066  39.0222073  33.5938525  54.4867611  66.3081264
  34.3402672  54.7979116  65.7959890  33.4609962  53.5854340  66.0145521
  88.4340452  12.1230020  92.5734176  88.4121107  11.9091882  91.6406612
  89.2438053  12.6208343  92.6860483   1.6619895  94.6065617  55.4823542
   2.4047041  95.0043774  55.0280952   2.0478272  94.1896152  56.2527514
 101.2856978  61.7479038   6.8725467 102.0046836  61.3100338   6.4169610
 101.7159122  62.3879147   7.4395895  43.9830017  31.8298030  23.3329487
  43.1373978  31.5378952  22.9923987  43.8459492  32.7501154  23.5576105
 110.3717166  39.6879172  42.8311729 110.5924749  40.2840424  43.5468054
 110.1236915  40.2636003  42.1077728   1.1661968  97.0809078  53.3985233
   0.2194881  97.2143173  53.4451914   1.2756161  96.3528538  52.7868080
  39.8438835  68.6838150  54.8736906  39.4359994  69.3220425  54.2884302
  40.7763052  68.8989067  54.8501444  72.0918232  51.0399199  40.5315828
  71.7100864  51.0787868  41.4085054  72.9897123  50.7404709  40.6742764
   6.5821671  50.5247116   6.8332493   6.4040178  49.6698904   7.2253972
   5.8302552  51.0630035   7.0804298  24.9862385  71.0930490  48.4894943
  24.5162845  71.5161848  49.2080545  25.8978343  71.3589191  48.6100769
   3.7541014  65.8898354  25.4296660   3.0506894  66.5126038  25.6129837
   3.3110705  65.1358747  25.0404382  44.4718205  87.7107883  77.8199263
  43.7483572  88.3373023  77.8376849  44.0525006  86.8651605  77.6608260
  25.4126525  42.4449873  41.0549498  25.0319695  42.3371267  41.9265461
  26.1363649  41.8189859  41.0305405  92.3225003  28.4140968  23.9061737
  92.1649724  28.4312081  22.9621792  92.9162293  29.1482902  24.0632653
 108.4606265  46.0640430  42.9359722 108.3603090  46.0053253  41.9858551
 109.0415781  45.3372955  43.1608438  35.8481884  43.1733274  40.4008389
  35.0422740  43.4975767  40.8028269  35.5610681  42.4611568  39.8293424
  45.3157187  61.8010092  20.6593418  45.4131508  62.1208000  21.5562630
  45.2218103  60.8529377  20.7519627  90.7177168  62.8749514  18.7001777
  89.8415261  63.2187176  18.8743734  91.2981086  63.6266327  18.8199711
  94.0112477  30.3497243  30.6270766  93.4137684  31.0844326  30.4875922
  94.5429831  30.6127167  31.3782930  99.8670810  53.6477613  33.0922174
 100.6037408  53.1676054  32.7140450  99.8850113  53.4205294  34.0218830
  20.3627801  65.2431107  53.5788059  20.2249384  64.4847727  54.1463900
  19.4803989  65.5517578  53.3729649 113.1376880  10.8457828  53.4678459
 113.2660397  10.6212890  52.5462389 113.9607620  10.6011176  53.8908339
 102.0824080  83.5578537  27.1802616 102.0031350  82.7227497  26.7192459
 102.8082317  83.4266949  27.7903509  99.9067538  63.8426685  48.4072018
 100.3510123  64.2717791  47.6759481  99.3646699  64.5298815  48.7946510
   8.0622333  44.1971302  69.9563980   7.5789630  43.5155916  70.4234982
   8.1687671  43.8507795  69.0704441 113.9164516  72.7671385  23.7289476
 114.5461896  72.0682049  23.5524344 113.0612969  72.3585033  23.5949302
  18.5314918  44.0848780   1.8755051  17.6667643  44.0643454   2.2854535
  19.1034722  43.6393356   2.5004560 101.3836514   2.8824939  92.6249494
 101.3759147   2.2266616  91.9277711 100.5299317   2.7920951  93.0482982
   4.7140673  55.4491234  61.1143827   4.7333735  56.2551928  61.6302395
   4.1650343  54.8523664  61.6229820   1.4073905  57.4937820  24.2648625
   0.6622728  56.9706869  23.9692235   1.2226994  58.3764839  23.9439988
   5.7391453  61.4164162  25.4013634   4.9487135  61.8461275  25.0745678
   5.4911029  61.0821533  26.2633252   5.6368428  78.6018753  46.3456631
   5.4954010  77.7725744  46.8022633   5.6221634  79.2622566  47.0384264
  10.1121759  69.0400314   5.5275166   9.6317899  69.3139839   6.3088059
  10.3381670  68.1248999   5.6939149  23.2133532  75.8456564  51.2166405
  22.8603411  76.7184210  51.3895321  23.9117002  75.9918404  50.5785418
   3.5455224  46.3271046  30.7668614   2.7154416  46.7188025  30.4952526
   4.0438640  46.2348223  29.9548435 109.2711466  32.6392698  16.3999224
 109.4334810  33.4344959  15.8924806 108.6337208  32.1494985  15.8802664
  26.1723948  56.6019440  15.3639102  26.1065722  57.5029135  15.6803870
  25.8411002  56.6384649  14.4666147  36.4349914  89.0817547  26.0269213
  36.3138890  89.8100948  25.4177475  36.9090962  89.4636345  26.7655897
  70.0204723  78.1553698  81.9908627  70.4233425  77.4067093  81.5510519
  69.0950435  77.9215241  82.0624955  34.7765565  63.9050388  51.5555334
  34.2987227  63.4121656  50.8884621  34.7360826  64.8135710  51.2569284
  21.1658001  55.8453226  62.3463726  20.6920075  55.0136137  62.3428631
  22.0602512  55.6124926  62.0974207 114.8345833  69.6869040  15.4557252
 114.8085439  69.6448708  14.4998026 114.2500412  68.9851904  15.7423353
 112.7796515  43.3145285   4.6957359 112.7002939  43.7853718   3.8661313
 113.1137821  43.9675093   5.3107208  27.3483968  59.5688868  40.4772711
  26.6364455  59.5202255  41.1152267  28.1429911  59.4379377  40.9946680
 106.9230157  72.4803400  63.8407421 107.0875465  71.6456842  63.4019804
 106.0088390  72.4281883  64.1196585 102.4179393  71.1893559  20.5344701
 102.2065955  71.1000681  19.6051741 102.0362406  70.4122257  20.9426498
  19.7323871  98.9321423  31.0224867  19.5566058  97.9941082  31.0961223
  19.7634256  99.2417908  31.9276857 110.8208793  33.6085749  61.4288378
 109.8913544  33.8366914  61.4154959 110.9837746  33.3198309  62.3267937
   2.6856798  73.8465166  15.4283452   3.5604286  73.6397266  15.7574105
   2.8043741  73.9558887  14.4848502 114.1637584  64.3413448  34.5314264
 114.3520182  64.9840260  35.2153492 113.4459525  63.8170290  34.8865008
   5.6635922  29.0703130  64.3652725   4.8092780  28.8377190  64.0015697
   5.8149910  29.9670148  64.0665436 115.8401567  48.0263853   5.5806315
 115.1975399  48.6929893   5.8233619 115.6106625  47.7883101   4.6823636
  25.3235602  75.4583454  48.9493704  25.6942415  74.7013378  48.4957552
  25.8446980  76.2002754  48.6424828 105.0264674  63.7097359  37.0028877
 105.3604859  64.2029238  36.2536025 104.7161465  62.8854847  36.6279936
   5.1727682  34.0302730  64.4736290   5.8550459  34.6532822  64.2234564
   5.4721206  33.1925631  64.1202736  14.3168676  36.0237026  55.0680399
  13.4605408  36.4279628  55.2077150  14.7269022  36.5596914  54.3892002
  38.2144786  92.7029849  84.5942696  38.5456613  93.1996608  85.3425093
  38.5369303  91.8129397  84.7359534  21.6384888  17.7614617  15.1480782
  20.6923652  17.6181769  15.1245522  21.7346478  18.7003958  15.3074133
 117.0861082  77.2110891  41.1232424 117.5313678  78.0157089  40.8576155
 116.1812026  77.4794722  41.2824535   7.4808407  63.7595701  80.8871651
   7.7933919  64.5386553  81.3471317   6.6803026  63.5129786  81.3503742
   5.9292513  61.8012571   5.5786157   5.5807877  61.7182207   6.4662588
   5.1602495  61.7362356   5.0123644  11.5590155  59.1013002  31.2376165
  10.6505251  59.1799784  30.9466100  11.4979327  58.7174511  32.1123528
  18.3321142  79.5404625  41.1947441  18.0994868  79.0024376  41.9514751
  17.8607166  79.1416597  40.4633284  98.7055069  48.3062077  29.0714073
  99.2313224  47.8261089  29.7111368  98.5674673  47.6825809  28.3584809
  16.9818556  52.1060658  95.4159069  17.1450722  52.8149462  96.0380650
  16.5897799  52.5386620  94.6573734  20.1699424  43.1900644  47.2913837
  19.3306947  42.7553368  47.1400404  20.3820062  42.9905891  48.2032347
   4.0751567  28.6146545  51.9994211   4.6052632  28.7688136  52.7813768
   3.5349035  29.4005656  51.9175482 114.8145109  39.6748805  47.8187704
 114.6549738  40.5287600  47.4166822 113.9420366  39.3434882  48.0313683
  21.8703055  39.8481369  41.4637804  22.4559784  39.6886086  42.2038937
  22.4539757  40.0862932  40.7434750  29.9724817  19.6156430  59.3911123
  29.2166543  19.3742371  59.9265385  29.5948386  20.0444865  58.6231852
 107.7264606   5.8467998  93.8306302 108.6435472   5.6259002  93.9930709
 107.7583825   6.5104999  93.1416355  41.3086319  74.6504116   3.3680815
  41.8893242  75.2816153   3.7930658  41.6589642  73.7957764   3.6192790
  20.3326416  20.6428599  64.9978971  20.4191899  21.3678885  64.3789673
  20.8315825  20.9223461  65.7654762  60.4938786 104.9811650  92.7338408
  60.6352084 104.8850632  91.7920222  59.7211736 104.4463587  92.9158820
  25.4454756  40.2945662  37.4932027  26.2387633  39.9323583  37.8878307
  25.7393694  41.0926628  37.0539927   2.4225807  40.3095913  59.0641308
   2.6084772  39.3707609  59.0475845   3.0685088  40.6921530  58.4702826
 112.6659861  99.3638134  27.9434109 112.9965704  99.5409393  27.0627451
 113.4238177  99.4918537  28.5139632 105.3811514  18.7145366  79.8645421
 106.1116254  19.1287269  80.3239854 104.6553861  18.7498225  80.4876407
  92.1559363  84.3329525  19.7503948  91.8451696  85.0603771  20.2893877
  91.7845970  84.5008945  18.8842916 110.0068348  25.3027177  53.2495642
 110.3006571  25.7499623  54.0432072 110.0618380  25.9692121  52.5647354
  33.3969378  42.8870106  32.4989343  33.9751434  43.6035204  32.7607059
  33.1264853  42.4838924  33.3239102  31.8637538  59.3059254  23.4666920
  31.2611580  58.5646009  23.5262418  31.4486241  59.9943638  23.9862609
 101.1854964  51.7708111  31.6736436 100.6124991  51.4271307  32.3590541
 100.8580738  51.3739824  30.8664560  16.6570044  67.5856209  50.2804995
  15.9891796  67.8687954  49.6559572  17.0283723  66.7938089  49.8914576
   7.1369100  55.5012608  51.6101694   7.0179278  56.4501095  51.5681458
   8.0779231  55.3833866  51.7399073  21.6939116  59.6147966   6.4745194
  21.6113496  60.5208874   6.1771709  22.4700356  59.6163416   7.0347524
  34.2216897  60.0032091  14.0656102  34.4407606  60.4487038  14.8840070
  35.0072527  59.5012569  13.8484335 115.9932091  87.5440693  63.7947989
 115.7198474  88.3829784  64.1659260 115.4436650  87.4350643  63.0186892
  99.3741136  47.5733137  15.6226671  98.5641258  47.9911566  15.3301632
 100.0706011  48.1151295  15.2517569   6.2250298  42.4802160  33.6960769
   7.1546865  42.2942638  33.8279581   5.9224957  42.8027010  34.5450234
  14.8446512  65.6607008  66.1691999  14.5853245  65.9881163  67.0304632
  14.1925550  66.0225105  65.5691195  29.6905804  53.7224340  16.9618118
  28.9862490  53.1349897  17.2357905  29.2455292  54.5365286  16.7264307
  12.1313620  88.4128284  15.7252228  12.4323320  87.5224686  15.5438137
  11.4125979  88.5529518  15.1088023  23.4655874  91.6381026  94.6309325
  22.9506760  90.8326984  94.5817208  24.1272633  91.4589143  95.2989953
   8.5144925  22.4371076  39.7165036   9.1502523  21.7237711  39.6600056
   7.7079475  22.0681834  39.3564892  13.3938706  47.1365786  39.5882273
  12.8952658  47.5963545  38.9127779  13.4680212  47.7686882  40.3031874
  79.0667260  23.3289756  92.0671080  78.6727246  22.5011100  91.7920967
  78.6303221  23.5393609  92.8926511  22.2902107  24.8455906  52.4969435
  21.8006611  25.5717278  52.8833342  21.6785073  24.1095018  52.5119019
  67.1300464  50.8157301  12.0691395  67.8015953  51.4355755  12.3538208
  67.2525888  50.7479906  11.1222363  21.9527364  53.2357025  19.5107400
  21.2182021  53.4665012  20.0794411  22.7225733  53.5837603  19.9606740
 116.4204946  46.3626480  38.2572412 115.8959806  45.5669117  38.3462119
 115.8156131  47.0086956  37.8925872  37.1412277  70.8582973  27.4999595
  37.2528577  70.9426403  28.4468794  36.1958265  70.7728052  27.3769164
  18.7208354  71.8264627  28.8868785  18.6879420  71.3546801  28.0546689
  18.1002712  71.3632298  29.4495010   1.4740422  60.3612328  52.0154715
   1.9525056  61.0431910  52.4868917   1.9826023  60.2202892  51.2168884
  38.5153309  96.9757891  71.1319991  38.1503812  96.5993024  70.3311844
  38.5493871  97.9168559  70.9603448  99.1244953  73.2273912  44.9299145
 100.0281971  73.0217552  44.6906042  98.9007812  73.9862204  44.3910599
  27.2090364  31.5320301  25.5928731  27.2913599  30.8632517  24.9130273
  26.8927908  31.0555935  26.3604856  21.1795807  50.1990366  39.4202471
  21.9005275  50.0114012  38.8191986  21.3070035  51.1146069  39.6686983
   3.6261204  38.1001401  57.7833939   3.8014463  37.4137020  58.4270525
   3.0460998  37.6865101  57.1440792  41.1876869  47.6575279  12.3244333
  41.4162731  48.4210873  11.7943788  40.8961201  47.0035696  11.6891718
  31.2543559  52.1804714   6.1997277  30.5582786  52.3997259   5.5803430
  31.9218493  52.8515863   6.0572952  16.1268437  89.6247673  23.4368610
  17.0166385  89.8392487  23.7170243  15.6625676  90.4616928  23.4523606
 117.0989623  23.3045006  55.7492113 116.9493487  23.9994955  56.3901711
 116.2455480  22.8825498  55.6498432   3.4861237  32.5663900  10.1496029
   3.2908902  32.3992062   9.2275596   3.8509491  31.7416859  10.4705346
   0.5035245  66.8372536  37.4979758   0.0194728  66.0126972  37.4528885
  -0.1434756  67.5071955  37.2770596  15.8943152  97.2873020  62.9955006
  15.9913170  96.9962215  62.0888042  15.1832199  96.7500877  63.3447456
   9.8720855  54.5996237  30.7961154  10.4892397  55.1842690  31.2360525
  10.3103065  53.7486410  30.7911372  50.2410936  38.7432337  31.1990333
  50.7968187  39.0746212  30.4936385  49.8403692  37.9529023  30.8370566
 114.8946881  16.8633282  68.1522417 115.0936628  17.2919166  68.9846802
 114.9870695  17.5560164  67.4981165 103.7002927  60.3576279  12.4177885
 103.6796301  60.3798342  13.3745074 102.8103274  60.5907774  12.1535242
   1.9553781  60.3746939  32.7272224   2.1227670  61.0605288  33.3736324
   2.7320743  59.8164415  32.7637267  46.0993624  48.8733864  42.6215076
  45.5954552  48.1560230  42.2371912  46.6293049  48.4566736  43.3010197
 109.4279348  17.0267905  88.1145890 109.6434175  17.7804221  87.5651856
 109.2855584  16.3114204  87.4947466  16.2787569  56.3519812  19.2993200
  15.4086947  56.2441778  19.6835101  16.1209238  56.8096113  18.4735489
  97.5364607  97.8797626  45.7827520  97.4889320  97.3844910  44.9650240
  96.7866617  98.4736919  45.7469702  42.8173685  44.4220638  32.8225350
  43.0890465  44.0831375  31.9695663  43.3467054  45.2098227  32.9468966
   9.6735030  79.3781996  61.4505625   9.7530347  79.0758038  62.3552513
   8.8650870  79.8906136  61.4394903  84.5723301  53.5395479  39.9733329
  84.3700152  54.3959808  40.3499269  85.0313574  53.7390709  39.1574192
 110.5625992  69.8892689  53.0603504 109.7495108  69.3876839  53.1197548
 110.6037265  70.3770924  53.8828897  46.2261485  92.7393032  87.3889484
  46.3365435  91.9800235  87.9612591  46.1682879  92.3689604  86.5081926
  96.8801051  61.5710068  46.6202593  96.5312606  62.4553347  46.7320681
  97.7047830  61.5756321  47.1061802  87.0758825  26.0706735   2.9555133
  86.2701731  26.2270761   3.4480602  87.5012189  26.9271708   2.9138488
  17.5104475  39.9635315   9.5620733  17.9318595  39.3397117  10.1532507
  17.5562036  40.8002996  10.0246263   8.9229953  45.1880455  34.7059608
   8.7823457  44.4232941  34.1477466   8.7878150  44.8629761  35.5960679
  40.8588743  75.8700275  49.7643709  41.4633274  75.7750559  50.5004740
  41.4200544  75.8479261  48.9892483  10.8715248  90.6250095  38.0789876
  10.9727740  90.1204872  37.2718692  11.4498055  90.1914787  38.7065768
  93.0514055  78.3630466  33.7242246  93.8417988  78.7336111  33.3315539
  92.7138262  79.0602493  34.2865252 113.6234658  62.7232933  27.6255035
 113.6585250  62.7968597  26.6717792 113.4470444  61.7966223  27.7879262
  26.3004541  84.2819691  27.7514362  26.0793877  84.1358376  28.6712217
  25.4758072  84.1515636  27.2832632  11.0208189  51.8471479  26.1449742
  10.1095009  51.5930462  25.9995008  11.0247064  52.7980709  26.0355926
  51.2267065  61.9992542  41.5844917  51.0388613  62.3923874  40.7322073
  50.3684044  61.7519951  41.9286060  21.0108209  73.8757515  45.2677870
  21.6329122  73.3795786  45.7998085  20.2238607  73.9322615  45.8097601
  44.0833807  96.1818409  28.8718319  44.3952608  95.6318951  28.1531382
  44.7639465  96.8465900  28.9775014 115.0644682  69.9584007  33.4553933
 115.1071071  70.6947136  34.0655255 114.4624745  70.2494526  32.7704668
  99.5673650  83.3527279  26.3727260 100.4572588  83.5608673  26.6573310
  99.6343284  82.4731827  26.0010338  40.9731817  88.6550903  34.7182608
  40.1433706  88.2978916  34.4019437  40.9087801  89.5952415  34.5503449
  49.5554590  61.0580683  51.2199450  49.8078585  61.3098383  50.3316116
  49.4084215  60.1136255  51.1685753  90.9866791  73.5684490  23.0570292
  90.6356078  72.7229881  23.3366251  91.6467243  73.7834835  23.7160707
  34.7202873  78.5453176  18.1854272  33.9102983  78.8255882  18.6115718
  34.8551917  79.1830158  17.4844491  43.6520624  65.6066227  27.0346785
  43.3147573  65.2837324  26.1990952  44.5114183  65.9703970  26.8215752
  36.4889455  67.4542379  27.4259686  36.9143057  67.1159887  28.2139325
  36.4243746  68.3975887  27.5748253   5.6818223  71.6090822  30.3219056
   6.4912486  71.6402531  29.8119164   5.0409883  71.2147379  29.7302508
   0.5864898 108.2045650  25.2939963   0.5301180 107.5085163  24.6393371
   0.3205537 108.9959145  24.8257232 101.4745086  48.9104605   8.3584076
 101.3614183  49.8608637   8.3452922 101.5558820  48.6661959   7.4364829
  11.5317094  54.4125223  54.0884924  11.6377580  53.5454559  54.4798708
  11.9017851  55.0138950  54.7347355 108.1475532  55.9162903  32.8556585
 107.4347025  55.5693769  33.3920574 107.7520990  56.0605001  31.9959784
   5.2894378  74.2624760  41.8335199   5.7770586  74.7394657  42.5050449
   5.5917472  73.3579397  41.9150925 103.0749613  82.8844166  77.1997833
 102.5619918  82.1158218  76.9500923 103.9597028  82.6933861  76.8883801
  36.2111998  59.6406364  38.2914305  36.7279053  58.9724159  38.7416887
  35.7556844  60.1047659  38.9937973   7.1222705 105.5041885  58.4260750
   7.2130644 106.3467026  58.8712311   7.6362967 104.8960209  58.9572525
 107.5599467  87.1113205  64.2238712 107.7197903  88.0391598  64.3964863
 107.1560293  86.7842674  65.0276852  12.6288235  90.4633904  49.4182825
  13.3311141  89.8189735  49.5063066  12.8451252  90.9458923  48.6203861
  41.1743164  60.0704861  32.7034283  41.7598915  59.8302221  31.9853687
  41.4677668  60.9415579  32.9705477  14.5247948  54.0140152  53.2367086
  15.1081252  53.7339783  53.9420748  13.6763787  53.6321926  53.4617329
  23.2044458  75.5907726  72.8238440  23.8539338  75.7752275  72.1453381
  22.3616695  75.7439280  72.3966408   6.3424724  83.8744354  26.0510683
   5.8641064  84.6882057  26.2097549   7.2295034  84.1574478  25.8290005
  48.9209795  90.5466652  78.0566025  49.4206524  91.3279152  78.2936716
  49.1951561  89.8851204  78.6917591  42.1234560  82.7281475  49.4693232
  41.5050888  82.0862103  49.1203594  42.1697950  83.4067535  48.7958431
  12.9641867  58.8479280  20.5394936  12.4359763  59.4174242  21.0988665
  13.3545697  59.4394112  19.8960829  22.2351670  90.6196499  51.2415075
  22.1839380  89.6852112  51.0404682  21.3783860  90.8323574  51.6115284
  82.6296859  89.3980217  29.5444059  82.2132950  88.8131714  30.1774931
  83.0433207  88.8107204  28.9117765  21.0232162  81.0222054  32.9031515
  20.3230500  81.6314030  32.6688910  20.5691290  80.2700615  33.2830334
   0.2710384  61.6138697  55.1019716   0.7735118  61.3092327  55.8575821
  -0.6115186  61.2733507  55.2481651  29.5489264  76.6751862  62.9738331
  29.7930384  76.3603115  63.8441753  29.7582817  75.9473991  62.3884010
   1.1580018  78.4117937  51.7094517   1.1548662  78.7462378  50.8125877
   0.2355799  78.4028673  51.9649696  10.7548296  78.6873817  10.0272286
  10.5305243  79.0721607   9.1799599  11.6881728  78.4861565   9.9593395
  15.7101691  53.7347603  24.1608739  15.6308365  53.8979149  23.2210255
  14.8794115  54.0375233  24.5274901  42.3982000 103.2292080  57.2910213
  42.0644188 103.1932640  58.1874180  43.0804873 103.9000988  57.3162270
  14.9542844  84.6272659  20.1694798  15.0574207  83.8405895  20.7049537
  15.2818227  85.3373718  20.7214785  24.8807025  82.3949146  57.1993828
  25.0587273  81.7332649  56.5309763  24.6330523  83.1754589  56.7037630
  34.9637341 105.8935165  17.2304106  35.2645087 105.2115822  17.8310132
  34.7921991 105.4314041  16.4098907  37.2643256  97.4546432  44.4715881
  36.5376401  98.0753040  44.5258570  37.6057816  97.5626659  43.5839081
  11.1332500 106.2155437  22.7484846  11.3104105 105.6401157  22.0043516
  10.2782774 106.6002750  22.5555182  13.9320636  74.2410898  43.6486673
  13.0809796  73.8388014  43.4753084  14.2558599  73.7899733  44.4283342
   9.6769285  93.8671970  58.4780455  10.1063395  93.1369114  58.0324841
   9.1229069  94.2650890  57.8064966  30.2854276  78.8429308   6.4666724
  30.4910707  78.1093073   5.8872420  29.5564651  79.2904377   6.0370356
  16.6831243  83.5738850  51.1705780  15.9667158  83.0182266  51.4775419
  16.4032173  83.8686085  50.3039646   9.9339056  40.9065580  89.3562317
   9.4998813  40.1453733  88.9709282   9.3760222  41.6467762  89.1173363
  47.4758387  55.2917242  41.7641830  47.8930616  54.6442270  42.3324299
  46.5653753  55.0032282  41.7004871  54.2110395  55.1646948  30.2219701
  55.0216770  55.0459766  29.7269964  53.9271069  56.0531902  30.0070429
  30.9984469  97.0934010  31.7341232  31.8870616  96.8271637  31.9701648
  31.1202955  97.7783585  31.0766959  18.6125529  74.1549969  54.5525885
  19.3674922  73.6487770  54.2525196  18.4303021  73.8164759  55.4291821
   4.5720679  68.6297750  11.1088574   3.8981488  67.9947758  11.3514233
   5.3131652  68.4216261  11.6777861  30.6832719  84.8537445  32.2422266
  29.9409080  84.3678379  31.8830204  30.6722212  85.6885529  31.7740417
  17.3872471  66.2913513  24.9655890  17.2062671  65.7384682  25.7257175
  17.4607813  65.6773901  24.2349195  14.0699112  49.3663692  25.1488829
  13.6525273  49.2729807  26.0052109  14.7754765  49.9967718  25.2938080
  45.3393173  30.4006553  25.3040934  44.6345663  30.1031518  25.8794618
  44.9195957  31.0288191  24.7163248   6.8115753  64.2606401  25.7298088
   6.9371068  63.4285736  25.2735877   6.2001133  64.0560293  26.4372563
 113.9892905  54.6861219  21.0714912 114.6994021  54.4848251  21.6809607
 114.0644741  54.0203857  20.3878450  39.1171527  53.2311106  65.5671501
  39.2207599  52.4184895  66.0622692  39.1769433  52.9623032  64.6504164
  17.0325172  77.0721579  20.6949377  17.2052240  76.9795561  19.7580123
  17.2035670  76.2027740  21.0570860  95.0258737  58.0856752  23.8371706
  94.3651539  58.7257290  23.5725737  95.5095750  58.5178089  24.5411062
   8.5922873  37.4227452  40.6041384   9.5294851  37.4229527  40.7987976
   8.4045660  36.5247130  40.3311348  27.3556590  56.4377928   9.5887524
  27.7721667  56.1009693   8.7954652  26.7783880  57.1354342   9.2784512
  23.7216973  68.7125206  35.5874181  23.4440494  68.4231520  34.7182775
  23.8678694  69.6535873  35.4911876  35.2610874  49.1904354  33.9339232
  36.0171533  48.6547995  34.1741157  34.7800136  49.3067980  34.7532272
  11.0309112  51.5327501  39.0369201  11.4466476  51.5495157  38.1748772
  10.2244723  51.0344648  38.9042592  57.3882484  57.1317005  44.7471046
  57.9141188  56.3379860  44.6485472  57.2026491  57.4089766  43.8499403
 115.9478640  48.2399368  26.9545627 115.0927309  48.0812740  26.5548062
 116.5570407  48.2611465  26.2165332  27.5570607  65.0998354  45.7819319
  27.9528999  65.9470654  45.5776310  26.6315746  65.2965784  45.9268332
  98.8951212  71.5152836  23.3784914  98.4071916  72.0455360  22.7484202
  99.6505504  72.0549583  23.6115289   8.5477877  51.3419390   8.5879022
   7.8926575  50.8225536   8.1217754   9.3776691  51.1112833   8.1703782
   9.9730426  85.1749039  29.3506598   9.1330141  85.5876541  29.1501069
   9.7389495  84.3429184  29.7620320  15.1257157  81.9234371  21.0027027
  14.3600023  81.4465714  20.6825328  15.8728302  81.4040565  20.7055664
 103.5943287  55.5669641   7.3495370 103.1385284  56.4036655   7.4412274
 103.8737815  55.5454922   6.4342898  78.3840471  89.1072750  75.2257967
  77.5837784  89.3482113  74.7591591  78.1496149  89.1703320  76.1517000
   8.2550132  65.7932854  70.3692865   8.4050006  65.8887911  69.4287491
   8.5440922  64.9028397  70.5687189  10.4785907  82.6242447  20.8609533
   9.6543378  82.3214722  20.4799485  10.2349710  82.9582977  21.7242575
  25.2064538  54.8214912  46.4759445  25.8662176  54.1280985  46.4634991
  25.5139828  55.4563522  45.8289433   3.1850061  65.4587889  45.9198999
   3.7770796  66.0731649  45.4860592   3.3455032  65.5907726  46.8542767
   0.9930854  67.4138927  31.2633133   0.2200269  66.9177151  30.9942031
   0.6643478  68.2970428  31.4312506 106.1754888  93.8940525  25.4073310
 106.5276902  93.7568283  26.2867379 106.0677939  94.8426342  25.3377843
  24.2558169  74.8214626  32.2996521  23.5182476  75.2330732  32.7499819
  23.8551402  74.3339443  31.5799189  32.9863024  49.0219450  32.5549197
  33.8401508  49.0716934  32.9846883  33.0237699  49.6893263  31.8697715
  89.9097335  20.0079717  87.1148010  89.5084881  19.1570081  86.9384511
  90.4720616  19.8548783  87.8741296  27.0059681  52.9756546  46.3433218
  26.1675692  52.6276112  46.6469383  27.4432683  52.2270441  45.9376335
  10.3446674  33.2470632  38.6738658  10.9927762  33.7718844  38.2040238
  10.1164246  32.5457978  38.0636501  17.4510324  74.6467447  22.1193600
  16.6112792  74.3000460  22.4207711  18.0276966  73.8834190  22.0873499
 108.1621938  66.5580845  34.5246840 108.5419207  66.9225121  35.3242040
 107.2471606  66.3894224  34.7494030  23.5054111  72.3092985  58.4519863
  23.1727338  72.1745014  57.5646353  22.7270269  72.2720957  59.0078306
 114.9845924  79.1913939  42.9710817 114.5845192  79.4893694  43.7880182
 114.6581295  78.2989645  42.8560829  16.5426326  64.9700356  36.7438793
  17.0179820  65.8003521  36.7730308  17.0723450  64.3721485  37.2712970
  16.4033115  60.7781315  25.4217434  17.2349989  61.2450266  25.5026007
  16.6526949  59.8582888  25.3326941  57.0415020  58.1005621  17.0896697
  57.4748325  57.9813814  17.9348040  56.1255646  58.2679653  17.3116398
  28.9958596  51.6467953  37.2629714  28.8327289  52.5577021  37.0182872
  28.8737869  51.6282225  38.2121754  52.9058599  97.9985142  42.5902891
  53.5348082  97.3063564  42.3864126  53.1350088  98.7130260  41.9959831
 105.4898971  82.8713226  60.4996920 105.2269059  82.4949646  59.6597958
 104.7230154  83.3639145  60.7920551  38.9453888  70.5772352  84.1906357
  38.2024097  70.2452993  83.6866188  39.0063739  71.5009642  83.9472580
  23.4421802 100.1314068  25.6564975  23.8491154 100.2139759  24.7940469
  22.8378272 100.8718967  25.7080579  42.8945589  58.9642954  37.3361778
  42.6344681  59.3193722  38.1861806  42.1983814  59.2381477  36.7390394
  19.0259647  72.5265455  33.5683036  18.8785052  71.9288826  34.3013024
  18.5838664  72.1111393  32.8278852  15.0609851  77.9609108  41.2211037
  15.1168323  77.3835468  41.9825220  15.2509558  78.8328743  41.5672588
  42.6170540  94.7136211  48.8140774  42.2468853  95.4555511  48.3358049
  42.4633646  93.9603424  48.2438278  17.1321046  34.9395037  45.7799292
  16.4936435  34.2972398  46.0899210  17.0039463  34.9662089  44.8317242
  60.1685190  60.1227808  24.0095949  60.0789404  59.5874691  24.7980452
  60.6690788  59.5757294  23.4042788  23.8253188  48.7377214  21.4378405
  24.3228483  47.9201508  21.4214206  22.9112363  48.4606266  21.5002918
   4.0135527  33.4903026  30.0899959   4.6813560  34.1439772  29.8826790
   4.3304217  32.6856971  29.6795917 114.8478610  72.7664661  37.9155231
 114.5103685  72.2337914  38.6356544 115.7700204  72.5192976  37.8465104
 114.0209364  92.7348042  33.3496928 114.2123454  92.1876049  32.5880027
 114.7385330  92.5580311  33.9580011  49.4404078  58.0173731  66.7073441
  50.1257992  58.5920668  66.3664675  48.7285995  58.6102581  66.9482613
 101.5851336  72.5202513  48.4453726 100.8530586  72.6064730  49.0559959
 101.6501373  73.3785582  48.0266619  15.6276953  56.4679050  35.5607224
  14.8869538  56.9232607  35.1604939  15.4813755  55.5447960  35.3540969
  49.3873739  87.5937748  46.3376141  49.0383196  88.3741760  45.9070683
  49.6892309  87.9056835  47.1907425  89.7900658  71.7384005  15.2870774
  89.2867594  71.7911339  16.0995626  89.6810585  72.5985718  14.8815501
 114.2120400  86.5410042  15.2154946 113.8159903  87.3283386  15.5889773
 114.9001228  86.3014603  15.8362937  24.8141503  83.4745216  20.6203341
  25.4307365  83.8054085  21.2734532  25.2982974  83.5080051  19.7952807
 112.5048246  88.1953335  78.6649799 111.7048209  88.0289936  78.1664276
 112.2710812  87.9868221  79.5694780 113.1433847  61.9824886  42.1886492
 113.7104019  61.9953012  42.9597235 113.1401786  62.8880882  41.8786335
  23.9140797  31.4600039  41.2658453  24.0837717  30.5884552  41.6233921
  24.5277715  31.5431142  40.5359745   0.3661129  83.4731007  31.5248299
   1.2500748  83.3235741  31.8602180   0.4597162  84.2125034  30.9242082
  49.8451406   7.8221072  57.5124025  49.5189423   7.9848326  56.6273308
  49.5581192   8.5830821  58.0171347  20.0255680  85.4166508  56.2065315
  20.7087731  84.7463036  56.1969995  19.7629654  85.4779530  57.1249628
  21.9405913  33.6970162  32.3834848  21.2350821  33.1118345  32.1077156
  21.6383195  34.5704842  32.1346450  45.4061890  57.2808218  64.6187210
  44.9977922  57.4705172  63.7740564  44.7582865  57.5593138  65.2659464
  43.8610172  74.8868084  41.8281364  43.4658051  75.5755949  42.3625708
  43.2998037  74.8321104  41.0546494  53.8596201  65.2846527  15.6577301
  54.0505648  64.6386337  16.3377523  54.6892500  65.7425833  15.5226731
 113.2966837  97.8203201  17.2957611 114.2015996  97.9844189  17.0303750
 113.2984331  97.9478073  18.2444322  32.8339767  61.3570213  43.3315229
  33.6763048  61.6585207  43.6718369  32.9101729  61.4550400  42.3824120
  14.1303885  82.4853897  63.2314014  14.6341884  82.7917576  62.4773741
  13.7619483  81.6482449  62.9491377  87.5241756   6.4367713  91.5764298
  87.1684390   5.9617318  90.8254172  88.4467351   6.1832084  91.6050930
  35.5382657  55.5663919  51.1565065  34.9609327  56.2629509  51.4691067
  35.3894997  55.5381203  50.2113581  81.0732823  60.1584864  44.1522980
  81.3595849  59.6390152  44.9035740  81.6257387  60.9397793  44.1768360
   2.0763648  90.0276852  46.0304213   1.5361011  90.7641411  45.7441044
   1.4757036  89.4663143  46.5206289  17.2209346  60.8128262  35.1711273
  17.2551894  61.1561823  34.2782879  17.6041245  59.9380779  35.1062059
  32.7431308  96.2367583  86.6653271  33.6144941  95.8475304  86.7391981
  32.4457263  95.9935857  85.7886018 104.4882428  10.7656850  84.5142646
 105.3059446  10.2682485  84.5267160 104.7651231  11.6819276  84.5226629
  32.7639389  57.3750353  74.0467024  33.5213208  57.4318933  73.4641457
  32.1265078  57.9821539  73.6707735   6.5699971  72.4034834  43.8707256
   6.4052999  73.2684326  44.2461777   5.9361070  71.8304777  44.3020916
  12.6002705  55.9019089  59.5678186  13.3587861  55.3938007  59.2802191
  12.4302864  55.5952215  60.4584837  28.8176155  56.9215155  14.3307590
  27.9883289  57.0095682  14.8006129  28.5911918  56.4440012  13.5326719
  40.9144926  80.2182293  35.8719611  40.3147078  80.9548283  35.9899068
  40.7631397  79.6614552  36.6357160  29.0744019  44.4822788  45.8313799
  29.9386191  44.5414066  45.4241180  28.4611940  44.6662426  45.1197863
  43.4341717  65.8455992   1.6411817  42.6703882  65.6128883   1.1132525
  44.1775465  65.4816246   1.1604017  18.0166960  67.1364117  33.7611508
  17.7357244  67.2670794  34.6668053  17.7435005  67.9341507  33.3081508
   0.5333625  43.4241819  84.8026276   1.4474124  43.6765385  84.9332523
   0.3501225  42.8109884  85.5144215  28.3932257  93.0654621  30.0905085
  27.5633740  93.5287762  30.2041841  29.0056586  93.5270500  30.6633091
   9.7379118  81.8046188  43.1209946   8.8870400  81.9969463  43.5150290
   9.5470589  81.6700363  42.1927214   3.1610638  78.6388779  30.0960755
   3.3052751  79.1321087  29.2885113   3.5724407  79.1700697  30.7778621
  39.2976939   2.5790156  12.1474028  38.9696496   3.1461466  11.4495599
  39.9514734   2.0262278  11.7193532  41.6822815  80.3621483  27.6621890
  41.1799526  80.9823895  28.1905794  41.4539576  80.5778885  26.7580009
 106.6730481  78.7327385  41.7896795 105.9683352  79.2364025  41.3823318
 106.2744694  77.8875113  41.9969559  11.7478299  46.7371559  31.7626166
  11.7345583  47.1052361  32.6461172  11.0132003  46.1237001  31.7476630
  97.3222774  43.6250019  40.9799290  97.4134880  42.7499819  40.6027603
  97.3508387  44.2147398  40.2265215  46.0588551  77.0901966  27.6527047
  45.7879448  78.0044031  27.7367806  45.4099751  76.7010546  27.0664048
  93.5296231  88.4482670  76.4376831  92.7381521  88.4102631  75.9006929
  94.1628366  88.9213848  75.8978415  28.5796332  78.8316536  61.0840511
  29.2079639  79.5404005  61.2223101  28.8703561  78.1355095  61.6731977
 110.1477807  86.4483356  14.4886470 109.2298454  86.2703133  14.2838681
 110.1529616  86.6279507  15.4288292  11.4928699  73.8957691  47.3355246
  10.7625532  74.4198847  47.6644278  12.2539711  74.2143965  47.8207397
  10.4202938  83.4421539  48.2706404  10.9952438  84.1042519  47.8868484
  10.9940875  82.9256153  48.8364887 114.0929606  62.5415468  48.2006741
 115.0501170  62.5324392  48.2013845 113.8585606  63.1355000  48.9137697
  44.2115831  47.4344015   6.9104445  44.4240665  48.3668327   6.8697202
  43.3706999  47.3604345   6.4591420  12.1082771  57.2662783  46.8500519
  12.5573862  56.8687773  46.1040449  11.5409756  57.9319715  46.4611387
 108.6130011  72.8775501  55.3758812 109.4064664  72.3429871  55.3460550
 107.9696392  72.3265886  55.8217096   0.7384036  61.3935947  42.4435139
   0.0249957  61.3014889  43.0750179   0.5159558  60.7835865  41.7402077
  95.0182467  86.1636448  51.0162973  95.9236699  86.4737797  51.0322380
  95.0923544  85.2107334  50.9643269  23.4135985  68.8375664  68.6470938
  22.9636550  68.1408501  69.1249704  22.8201652  69.5866919  68.7007761
  36.3378286  91.4927197  37.7613544  35.9365392  92.2860527  38.1160736
  35.6103802  90.8777046  37.6675797 114.4275787  38.5510921  54.8619604
 113.6597716  38.0122161  55.0525284 114.9415111  38.5297489  55.6692076
  97.4425412   1.0626935   1.9146590  97.3039937   1.9926309   1.7350726
  97.8241098   0.7171630   1.1076598  17.1557248  80.3608036  19.9919987
  18.1095111  80.4403782  20.0058413  16.9952476  79.4344568  19.8121309
  78.8992757  10.8099879  47.9641819  78.3613128  10.3168238  48.5835505
  78.3032721  11.4619673  47.5954914  26.6472220  25.4706955  38.1912470
  25.7258153  25.5086279  37.9347277  27.1211386  25.3624249  37.3666787
  79.2325897   6.9018401  53.8512989  79.4858383   6.3782682  53.0910583
  78.3293933   6.6411199  54.0315528  38.8902760  67.5746202  63.3526945
  39.3782258  67.3654556  62.5562096  38.4020305  68.3680964  63.1330490
  10.1492453  83.3357811   7.1239185   9.6158314  82.6231003   7.4757564
  10.6746805  82.9251862   6.4372146  72.6101160  73.6548042  25.2493382
  72.2787905  74.3505907  25.8170843  73.5010862  73.4954357  25.5607867
  45.7218599  50.9357119  32.8406882  44.9874401  50.6922817  32.2771263
  46.4538240  50.4078293  32.5216341   3.5691774  36.3412309  85.1934719
   3.0572149  35.8827877  84.5271683   2.9289779  36.8791032  85.6593800
  20.2642536  88.7496376  42.0393229  19.7594845  88.4957409  42.8119612
  19.6781898  89.3263245  41.5492249  16.9560528  89.4106770   1.7347670
  16.1512244  89.0559292   1.3570932  17.5692010  89.4474316   1.0006481
  36.3682604  63.1382370  39.0918732  35.7927632  63.9023447  39.0576553
  36.0621047  62.6415968  39.8507190  12.5634062  70.7442713  21.1872220
  13.1207001  70.6605911  20.4134941  12.4992788  71.6877699  21.3352990
  10.0047326  77.0479679  13.9043319   9.4613516  76.6076469  13.2508111
  10.1292479  76.3940668  14.5921850  12.3503995  61.9391966  23.4228444
  12.0654058  61.1585665  22.9478455  11.8126762  61.9473743  24.2146897
  33.3155084  97.6651764  19.9557090  32.9781628  96.7716599  20.0194049
  32.9386187  98.1178379  20.7102156 109.4516426  79.1850138  50.4516459
 109.5325434  80.0478458  50.0451899 109.6154481  79.3420029  51.3815641
  34.2987013  50.6862259  46.6857672  34.4398403  51.2769604  45.9459400
  33.7285542  51.1763096  47.2782040  18.6745191  76.3706684  41.1717701
  18.8573492  76.0750866  42.0636415  19.5360684  76.5638971  40.8021402
  29.0677071  93.2808495  67.8788948  28.3550143  93.5717392  68.4478283
  28.7140203  92.5167942  67.4235296  14.3517995  85.8260536  57.5398254
  13.7101781  85.1276684  57.4101686  15.0009274  85.4478455  58.1329679
  18.4561467  55.6266832  51.6754675  17.5745344  55.9994888  51.6782856
  19.0261388  56.3613558  51.4483118 114.4432796  51.1113119  42.5964499
 113.5549938  51.4664650  42.5640917 114.8421797  51.3883400  41.7716026
  23.4658360  55.4758596  20.3639913  23.6226964  55.5211830  21.3071609
  23.0014682  56.2874222  20.1591492  71.2135124  60.3451824  47.6174164
  70.5645943  60.9734106  47.9343796  72.0412445  60.6460810  47.9923248
  58.2672930  54.2091465  25.0532269  58.8957357  53.5273600  25.2908349
  58.4629726  54.9330902  25.6480789  15.6657720  99.2344952  30.3796434
  15.9187412 100.1576138  30.3703284  14.7345042  99.2435741  30.6007481
 104.1585522  85.4190636  24.4994807 105.0198429  85.3635120  24.0855670
 104.3101555  85.1487160  25.4051089 107.8267776  63.0509462  92.5034805
 108.1102597  63.5319127  93.2810013 108.4023058  63.3635320  91.8054195
  22.0897985  29.8245478  58.5708666  21.6411471  29.0431881  58.2477236
  21.4121056  30.5003405  58.5871840  82.6590729  25.2287483  29.1738105
  81.8463898  25.6755161  29.4108343  82.8140926  25.4805708  28.2634354
  46.0480070  16.2364520  17.3419225  46.8095029  15.9443129  16.8409157
  45.5747664  15.4308547  17.5499833  60.0174141  67.1193743  15.8834410
  60.7824469  66.5549421  15.7722378  60.1957178  67.6090384  16.6863549
 107.1415889  77.3849010  49.8635101 107.1483206  76.6661882  50.4956818
 107.5678014  78.1099224  50.3205824  23.9395022  28.6497021  41.9288731
  23.3603764  28.4776115  42.6713228  23.3474469  28.8644147  41.2080383
   6.6083515  79.0275478  42.3113155   6.8456846  79.1703129  43.2275677
   5.6548059  78.9445543  42.3210239  36.7575645  37.3805928  21.4947796
  36.6551924  36.7921591  22.2427750  37.2574735  36.8718123  20.8564496
  18.1921899  92.7981377  56.1620617  18.6273050  91.9889069  55.8936596
  18.3877790  92.8769398  57.0957470  38.9044929  91.9057465  36.9722891
  38.0480981  91.5015030  37.1115851  39.2005086  92.1481133  37.8497100
  94.3809634  54.8396778  35.0210786  94.5555740  53.9523172  35.3346586
  93.6434727  54.7401714  34.4190478  13.3342957  79.7921562  61.7746210
  14.1842759  79.3863058  61.6041756  13.0776966  80.1724625  60.9345293
  53.6531401 103.2599545  25.9108162  54.0034819 103.1777668  25.0238347
  54.0087605 102.5050354  26.3797092  46.1257792  38.7737703  38.5982418
  46.6078854  38.5812998  39.4024563  46.7390966  38.5614443  37.8946853
  43.2079423  12.0180644  15.6621468  44.0270776  11.8198431  15.2083218
  42.6840860  11.2223280  15.5693448 113.2598388  15.4337682  66.5130229
 113.5926067  14.8708524  65.8140083 114.0451490  15.7555284  66.9557329
  34.4335341  92.2310448  26.1348248  33.9143920  92.8845310  26.6035342
  35.2716255  92.2145557  26.5969539  18.6951566  92.6062107  43.3008766
  19.0293872  92.6458454  42.4047995  19.4310868  92.8889656  43.8437271
  26.5117884 106.7029285   8.7560332  25.5678749 106.7594147   8.6074823
  26.8355775 107.5858784   8.5777259   4.6770915  99.6170712  59.3335247
   5.0506353  98.7451267  59.2054367   5.3291690 100.0823879  59.8574638
  23.7862325  84.1063213  26.9240117  23.4501266  83.5828686  26.1965060
  23.1870270  84.8506355  26.9804335  27.8509498  88.8646030  38.2890797
  28.6954522  88.5764694  38.6355257  27.5211287  88.1089497  37.8028297
  85.6325531  52.2630215  62.0711470  86.4736557  51.9074678  61.7841578
  85.7317734  52.3798752  63.0159950  41.3368177  63.1686640  36.7607594
  41.3631344  62.9156971  35.8379650  40.4063272  63.2907581  36.9491959
  33.3824301  96.6133499  40.9624672  33.8570356  95.7824039  40.9397173
  33.7439847  97.1157455  40.2323294  46.2776327  98.6559963  28.3145380
  45.4846430  99.1290092  28.5668421  46.8556547  98.7355995  29.0733433
  53.1173515 109.3735218  34.1943884  52.5259876 109.7756004  33.5581017
  53.7202930 110.0758648  34.4381428  55.1153564  67.9769850  42.9337835
  55.9893274  68.3278465  43.1049442  55.0833464  67.1602678  43.4319592
  28.6010885  74.0735912  21.3140130  29.0958905  74.2057037  20.5053401
  28.7653565  74.8646784  21.8272662  25.7379007  96.3140678  42.1372175
  25.3769398  96.9867134  41.5597343  26.4277101  96.7629910  42.6259518
  31.2354636  83.0041885  49.0871429  31.4893126  83.5984230  48.3809757
  30.3866887  82.6561737  48.8138294  41.5349674  95.3882599  24.0477204
  40.9488010  96.1433887  23.9984536  40.9495401  94.6310616  24.0605903
  47.9578543  78.5906219  40.9416485  47.2122049  78.0069304  40.8018446
  48.5366917  78.4220219  40.1981735  27.3911285 102.0508862  62.9805279
  27.2045827 102.8386021  62.4697208  27.7805877 102.3779202  63.7914515
  96.8100137  25.3440131  51.3398600  96.1285800  25.2328146  50.6768990
  96.3357753  25.3552569  52.1712446  30.7719755 101.1281300  63.2685328
  30.3389835 100.2753353  63.3071041  30.3422761 101.5823555  62.5437737
  17.1660531  99.6922684  36.6549730  17.1512735  99.5925140  37.6068473
  17.9783642  99.2657852  36.3820386  64.1000146  13.5616625  35.8593059
  63.6289686  13.5942973  36.6919422  64.7634739  12.8834094  35.9858823
  38.3187723  67.9567432  50.1473522  37.4898410  68.4353828  50.1444054
  38.3625603  67.5482798  49.2827845  73.1503195   2.6430739  57.2526789
  73.7642330   3.1092776  56.6852283  72.8682369   1.8903006  56.7330647
   6.6346389  76.8432903  40.7892799   6.5369147  77.6867533  41.2311554
   6.4565313  76.1942673  41.4699268  26.6886115  85.9300137  10.2121055
  25.7764339  85.6766033  10.3533471  27.1454406  85.6278419  10.9971118
  47.2511959  62.1594572  40.1242924  47.9069424  61.7013693  39.5985746
  47.7163029  62.4094868  40.9226656  56.3235998  82.7213001  15.9711361
  57.0168686  83.1998062  16.4257193  56.7870235  82.0646000  15.4513121
  32.2936702  65.1483107  44.9410105  32.3155618  66.0996008  45.0449276
  32.3093319  65.0104094  43.9939260  23.0725121  75.4754639  16.2631226
  23.2433152  74.8092270  16.9288445  23.9019370  75.9452677  16.1761034
  72.1160811   4.5542944  59.2493153  72.3203319   4.1471327  58.4074545
  71.2700433   4.1812075  59.4968176  59.1851473  69.2883396  10.3392172
  59.9313354  69.5409727  10.8829153  58.4364271  69.7300959  10.7398486
  13.9236283  79.7290421  45.8934784  14.8028088  79.4433451  45.6451845
  13.4577096  79.8200893  45.0622940  40.3336525 109.7450829  50.7801151
  40.9770441 109.6538734  51.4829350  39.6046185 110.2170753  51.1825562
 112.0012605  27.2881307  84.3593164 112.6066291  26.6820611  83.9321812
 111.8794047  27.9929723  83.7232478  30.5899358 109.4392586  67.8359413
  29.9008417 110.0902843  67.9683733  30.5292368 109.2115784  66.9081926
   6.0955691  94.6366882  34.8543453   6.9424051  94.7408676  35.2882218
   6.0319388  93.6985207  34.6753979  82.3056889 100.2705669  33.2411861
  83.0232334 100.8465195  33.5050631  81.7133713 100.8370113  32.7466798
  68.9511556   1.0026015  50.3053093  69.8481316   0.8036555  50.0368214
  68.9367932   0.8218230  51.2451744  66.9177341  61.7540407  19.2167020
  66.6067600  60.8489513  19.1982746  67.3359156  61.8809986  18.3650935
  57.2628069  92.3941135  45.4138231  58.0747700  92.8578758  45.2091694
  57.2108364  91.7005444  44.7561884  53.1672335  59.8831320  42.1401453
  52.5235176  60.5892992  42.0836210  53.9815044  60.3206348  42.3887110
  19.2764056 106.8323421  27.8906655  19.5882428 106.5797329  27.0216560
  18.7901473 106.0688591  28.2019281  28.7811255 103.2759857  54.4670200
  29.4092822 103.0863857  53.7700987  29.2715287 103.1338501  55.2766705
  20.9048271  17.3524761  46.6937494  21.5870118  17.7103591  46.1256170
  21.0186529  16.4038014  46.6363621 114.2310959  86.2165165  32.6480603
 114.0947732  86.0531139  31.7148137 113.6216312  86.9238567  32.8588986
   5.6889194  77.0545244  27.0632029   5.5489844  76.8082762  27.9775405
   5.0217086  76.5678263  26.5792727  80.3245324   1.4459837   5.7189846
  80.2788609   0.5225123   5.9666562  79.7357911   1.5219725   4.9680912
  45.6949997  90.3927326  48.5668993  45.5971575  89.4427490  48.5022163
  45.1118326  90.6453991  49.2826557  19.3595099  95.2688694   9.9483812
  19.8389459  95.0246811  10.7400548  18.5104060  95.5746841  10.2673328
  73.7552071  61.2678289  42.9278278  74.4744968  60.8212090  42.4813032
  73.0402136  60.6314230  42.9260349  17.5278449  86.9664288  41.7670345
  18.2976604  86.8517399  42.3242283  16.9058084  87.4463940  42.3137856
  44.4468641  92.1805382   4.4525144  45.2233362  92.0536995   4.9977082
  44.7911358  92.4823570   3.6119112  41.3166428  86.7281532  58.2117987
  41.4690447  87.1493912  59.0577126  41.1380911  87.4525928  57.6121950
  -0.0259033  53.1746387  28.9853692   0.7715269  53.5487747  28.6107230
   0.1795792  52.2480059  29.1093063  46.1405182  56.2342262  50.9487772
  46.9001579  55.6781483  51.1218500  45.3872490  55.6584978  51.0805321
  34.7480321  76.5026999  66.0654688  34.2381525  77.2416258  66.3974953
  34.0957212  75.9103584  65.6914949  19.3592036  77.1801329  56.1878824
  19.7498441  76.4085960  55.7775640  19.8581183  77.3001671  56.9959116
  61.3276052  72.9991341  48.3654737  60.9702921  73.7452173  48.8470507
  62.1909761  73.2929564  48.0747986  46.4332294  73.1241465  35.7314754
  46.1178923  73.3025789  34.8454952  46.0055208  72.3038483  35.9772611
  28.7619567  56.7748976  19.4656456  28.5647726  56.2737703  18.6743021
  28.0378580  57.3962116  19.5423281  52.5151587  49.9354887  32.7506757
  51.9760513  50.6079102  32.3342085  52.2726059  49.1239357  32.3048353
  63.9999980  11.0220278  30.5170202  64.0223807  10.2508009  31.0835457
  64.1364163  10.6755103  29.6352339  18.7023914  98.6326981  42.5938845
  19.0902555  97.8888702  43.0548716  19.4493651  99.1794014  42.3502064
  36.1326456 108.1847668  18.0394626  36.0212445 108.6001301  18.8946187
  35.7912159 107.2983456  18.1574428  86.1238164  10.6129397  42.3021412
  85.4677123  10.1487769  42.8220606  86.9111937  10.0732745  42.3730183
   5.0925964  99.6292591  13.1984174   4.4284856 100.3174973  13.2374001
   5.3111100  99.4551468  14.1139317  39.3659043  88.7835312  20.6194520
  39.0398860  88.7512684  19.7200608  39.7704220  89.6475983  20.6967306
  50.5631781  91.2738705  50.0910234  51.0854340  90.9684086  50.8327579
  51.2073898  91.6000843  49.4626904  16.9144583  94.2530727  44.5239258
  17.5028515  93.7566471  43.9550781  17.4947643  94.8178291  45.0343370
  59.5227623  72.8217602  52.0508862  59.8724413  72.2868299  52.7634859
  60.1903963  73.4919167  51.9046164  41.1392450 108.8458920   6.5956956
  40.3830290 108.3272171   6.3211972  41.8960047 108.3495998   6.2838483
  60.1407141   0.6990851  19.0481329  60.7358021   0.5256880  18.3187246
  60.4865235   0.1734961  19.7695184  27.5597191  71.7213535  21.4911318
  27.0036650  71.5340757  22.2474146  27.7379346  72.6598835  21.5514302
  26.0405660  88.2929611  18.7503004  26.5989041  88.9731693  19.1268587
  26.6485190  87.7051544  18.3018446  51.1919546  75.8415747  28.1635618
  51.8436909  75.9330750  27.4685097  50.4411411  76.3495874  27.8562665
  96.9039732  81.6143322  44.8553848  96.3494783  82.0724869  45.4869413
  97.5013524  82.2871590  44.5287704  90.2355069  10.8445300   3.9529911
  89.4411391  11.1595191   3.5217246  90.8974141  10.8392752   3.2615554
  95.9290332   2.5038184  25.9470344  95.5762690   3.3357848  26.2626648
  95.1978702   1.8904246  26.0203433  78.7464136   9.6534289  40.3542662
  79.3921536   9.9779643  40.9819078  79.2495078   9.0984286  39.7583628
  18.3423972  79.4344616  48.2116508  19.1305530  78.9318991  48.0055618
  17.6478803  78.7782097  48.2683277  41.9379473  93.3840847  18.5901678
  41.0820341  92.9956150  18.7711143  42.2653389  93.6527538  19.4485748
  26.8415284  43.9847088  33.0177402  26.2183762  43.2865238  32.8166199
  26.5451193  44.7286654  32.4934292  18.9289784  96.8654346  21.9315839
  19.6764731  96.3449764  21.6372919  19.3194950  97.6550388  22.3060942
  47.8215075  75.1279068  23.2845259  47.9542875  75.3655005  24.2022133
  48.7012768  74.9447966  22.9548144  57.6541323   8.2573546  34.6915293
  57.2576362   8.8502539  34.0531754  57.7559894   7.4307860  34.2196894
  30.0096083 109.1527653  84.1856384  29.5181894 108.3877277  84.4847393
  30.4958129 109.4419956  84.9577713  46.4022446 108.5486221  57.6285553
  46.6447973 109.4447136  57.3952866  47.0659447 108.2783127  58.2631159
  51.8686152  55.6447220  37.5889897  52.7163172  55.2274275  37.7422905
  51.3301611  54.9566507  37.1980214  12.8515816  61.5383911  45.3320694
  12.7689779  61.3272715  44.4021034  13.5498500  60.9643364  45.6468964
  21.4536142  64.7490644   0.9656031  22.1184325  64.9784136   0.3162573
  21.6732264  63.8550377   1.2277403  24.3303156 106.4546013  24.2597675
  24.6517682 106.9789028  24.9932551  25.1225042 106.1225033  23.8374138
 106.8753045 105.9951305  12.0082092 107.4758297 106.2823677  12.6960301
 107.3560196 105.3123188  11.5403342  84.8634690   5.7355250  37.1094608
  84.1481894   5.1899851  36.7823553  85.1481265   6.2396182  36.3471651
 102.4699050 105.7682610  61.0625219 103.1957346 105.1611900  61.2069845
 102.5790041 106.0610485  60.1577520  56.5471935  83.1603527  27.4444413
  56.9441175  83.3563137  28.2931352  56.6925478  82.2220802  27.3229694
  30.1382518  94.3089199  31.6663384  30.2787519  95.2477455  31.7892194
  29.9602675  93.9762115  32.5460315  93.9026075  86.3563251  38.0102444
  94.8379546  86.2412167  38.1778860  93.4920698  86.2642574  38.8700199
  20.6328392  84.8841763  23.9753294  20.2111173  84.1898918  23.4690094
  21.2648511  85.2719402  23.3699989  55.5035275  10.7319392  12.6237512
  55.6638867  10.3061903  11.7815804  54.5642668  10.6226958  12.7723622
  16.1534882  68.1760311   9.9848694  15.9615135  67.2480297   9.8500001
  16.7098355  68.4156990   9.2437410  30.6944537  98.5042572  73.8610744
  31.5613532  98.8285732  74.1050816  30.4245687  99.0656185  73.1342506
  34.5735669  52.2609472  57.9386091  34.7616148  52.8354168  57.1964121
  35.0264072  52.6679039  58.6772299  41.8326712  92.5378799  12.1594763
  42.4888468  92.0352077  11.6767907  41.0393763  92.4684143  11.6283536
  74.3439198 102.5180149  34.2764831  74.8861122 102.6336861  35.0567889
  73.4448814 102.5945950  34.5960164  11.8329108 102.3544693  41.0054255
  11.0991728 101.7936611  41.2571335  12.3581553 101.8120193  40.4171276
  45.7322788  71.6139889  40.3276348  46.2327290  70.8945751  40.7126284
  46.3942146  72.2566700  40.0726175  37.1178555 102.4215984  36.8409419
  37.9709744 102.3332882  36.4159417  37.2949624 102.9348660  37.6292419
  48.3866787  72.7995729  39.8226523  49.1433334  72.4454117  40.2898598
  48.6465263  72.7868605  38.9014840  61.4808321  86.4666462  29.7546697
  61.1640978  85.6163311  30.0594354  62.1641874  86.7061043  30.3807020
  12.5070381  83.9425087  19.1715336  12.0792544  83.2259369  19.6403253
  13.3586705  84.0336323  19.5989084  38.6319089  91.9242382   0.3283680
  38.8202310  92.5198746  -0.3968843  39.1756654  91.1558819   0.1546397
  32.9923677 108.0490685  44.7262001  33.3260250 107.2012615  44.4327354
  32.5441432 107.8579044  45.5500841  47.9576921  98.5949516   5.6914765
  47.2370863  98.6344051   5.0626677  47.7668285  97.8245068   6.2264639
  46.5082216  67.0759535  45.2884531  47.4574280  67.1597433  45.1977921
  46.1982632  66.8917465  44.4017601  36.5802431  94.7431946  60.8331442
  36.4627862  93.7977028  60.7410192  37.4984884  94.8934937  60.6084919
  90.2514285  11.4554442  43.4692764  90.5087346  12.0049704  42.7289724
  91.0790986  11.1426676  43.8344669  59.0763044 102.4000168  36.6450810
  59.3067455 103.2446861  37.0319343  59.9093485 101.9339752  36.5737963
  60.7863730  12.9131640  48.4703588  60.9654182  11.9879664  48.6382246
  61.5041131  13.1971491  47.9042912   1.8686509  81.3660049  32.8247690
   1.0894849  80.9085655  32.5087214   1.7100973  81.4907742  33.7604642
  13.8693297 106.7863178  36.3427830  14.5811594 107.3083305  36.7129588
  13.1395125 106.9123077  36.9491863  24.3959570  67.3309517  32.2841406
  24.3655491  67.2681952  31.3294840  24.7184920  68.2156610  32.4558592
 111.4099079 107.2403431  43.3214903 110.7397198 106.8966198  42.7307844
 112.2310450 106.8779850  42.9888296  43.4598017  75.7007313  55.6593275
  43.8494062  75.6883621  56.5335655  43.0973911  74.8220444  55.5461693
  23.0086637  48.4764004  73.2454348  23.5620403  48.8500309  72.5595713
  23.1925631  49.0098143  74.0186596  88.2571811   9.8961390  31.2198424
  88.4508580   9.5801581  30.3373027  89.1137999   9.9735392  31.6398954
   5.6623495  76.3054323  19.6603048   6.1289638  75.6059170  19.2029440
   6.3547283  76.8533945  20.0298762  62.5838441  11.8160666  23.3677244
  62.9101819  11.8115462  24.2675638  63.3510417  11.6100729  22.8336740
   0.2425199  57.1814871  32.5041056   0.5090843  56.3839912  32.9614639
   1.0589211  57.6608181  32.3628163  41.4913750 104.3213558   8.2943225
  41.2451315 103.8076878   9.0635723  41.5187931 105.2250957   8.6085397
  59.5418596  64.6924543  44.3653965  60.2951670  65.0616074  43.9044333
  59.0913248  65.4519653  44.7347212  16.6778672  77.5314903  70.2373266
  17.0913470  76.6682005  70.2373123  15.7386196  77.3471928  70.2463150
  94.2632026  12.9770697  49.4043636  94.6870250  13.3239020  50.1894188
  93.8421172  12.1687258  49.6967793  68.8008595  81.7002773  31.2098360
  69.0377140  81.1101627  31.9253039  69.5459747  82.2963905  31.1344075
  76.6625208   3.0853499  29.7020841  77.0627517   2.2311629  29.8645997
  76.4364308   3.0708731  28.7720823  41.8959999  68.6200476  10.4148698
  41.5993023  69.5301008  10.4181492  41.9859838  68.3941269  11.3406646
  13.2122755  89.7043133  82.9472637  13.8994253  89.3830967  83.5311031
  12.6335216  88.9522648  82.8219795  31.9982076  97.5712872   1.6453506
  32.2076440  98.3177280   1.0839275  32.0595503  96.8114948   1.0664037
 114.3021833  25.0796880  80.0387509 113.8070642  25.7005967  79.5043762
 113.6613642  24.4136037  80.2875729  41.2496567  85.9567070  35.5088568
  41.7298985  86.7768764  35.6225371  40.9911919  85.9562683  34.5872140
  30.5803800  76.3744497  14.4098282  29.6931648  76.6074848  14.6832716
  30.5540037  75.4244757  14.2954218  50.1625109  78.2451153  29.9409294
  50.1903534  77.5935936  30.6416297  50.9894657  78.7202024  30.0226235
  95.7841987  -0.0508653  37.5300241  95.5611199   0.6846179  36.9594669
  95.5912799   0.2639903  38.4131336  91.6544777  85.0526619  12.0580041
  92.1224957  85.8696938  11.8858290  92.3251777  84.3732548  11.9887006
  20.5790377  59.2397118  35.1830292  20.8930922  59.0397978  36.0648656
  19.6724820  58.9325571  35.1762748  -0.2155298 105.1964951   6.1664551
  -0.1092777 104.8156834   7.0381916   0.3567347 105.9637928   6.1688989
  44.4713974  97.9701233  41.3492346  44.8775530  98.5967255  41.9480991
  45.1731491  97.3561382  41.1329079  76.9064778  10.4774226  50.3999805
  77.7679700  10.8169497  50.6424189  76.8155092   9.6707953  50.9072495
  45.0979841   1.7115630  21.4206648  44.4191390   2.3279513  21.6953611
  45.8051914   2.2656573  21.0904121  40.4418325  77.7607393  37.2919130
  39.5734763  78.1315327  37.4490929  40.7904959  77.5882339  38.1665039
  21.3644290  80.9908199  36.4778066  21.4940095  81.8115520  36.0025859
  20.6409407  81.1729336  37.0774961  20.0470567  87.5355911  37.0253444
  19.5864415  86.7783833  37.3868847  20.2371454  88.0855942  37.7853370
  79.3172150  17.9242648  72.9342456  78.6005963  18.1625022  73.5224052
  80.0712084  17.8044976  73.5116358  68.1733030   2.7851332  17.8316307
  68.9198107   2.9296435  17.2501862  68.1637234   1.8393267  17.9785597
  78.7064737  10.6855334   8.9537525  77.9494757  10.1305331   9.1412842
  79.2710370  10.1426447   8.4035033  27.1428204  70.1784754  52.0607090
  27.2178960  70.8700228  52.7182484  27.2971511  70.6228447  51.2270737
  42.8589439  63.3801365  13.8116777  43.4825802  63.7172413  14.4548464
  42.0099497  63.4333277  14.2505550  26.6041112  87.2198963  65.8912230
  27.4915719  86.8781662  66.0001469  26.0423756  86.5631676  66.3027906
  76.5216702   0.5673541   6.7525309  76.8284434   1.3505019   6.2955922
  77.2936171   0.2427424   7.2161651  35.1457334  64.0656424  42.3184109
  35.9588194  64.5610619  42.4168348  35.4200482  63.2258701  41.9499540
  58.7005806 108.4355450  38.5308957  58.3457565 109.3118095  38.3809185
  58.2707453 107.8874779  37.8743196  40.8574533  76.3451385  34.9981284
  40.8419561  76.9664431  35.7261157  40.5920935  75.5123329  35.3883219
  52.2746229  78.2937574  40.4315710  52.6264429  79.1099215  40.7870007
  51.3247108  78.4024811  40.4771471  14.0852070 103.5488796  10.0060415
  14.6872330 103.1724167   9.3641120  13.9788198 104.4591045   9.7296131
  40.1198700  11.0473002  42.6914167  40.2664469  11.1644782  43.6300421
  39.2950130  10.5648173  42.6362085  12.0622146  68.1965399  51.3130522
  12.9340935  68.3672762  51.6692924  11.7325926  67.4606848  51.8288994
 116.9561565  81.6764832  13.1497884 116.0377105  81.5072060  12.9399514
 116.9566191  82.5538349  13.5325408  21.1735320  96.9560623   8.6960715
  20.4207349  96.4964104   9.0678889  21.0124898  97.8786373   8.8939393
  32.2054815  74.6290779  37.2945452  31.4086533  74.9705124  36.8886900
  31.8917656  74.0754843  38.0096316  46.3946915  91.4750481  67.9629517
  46.3714743  90.8971977  67.2002077  46.9678593  91.0273457  68.5852623
  39.7440052  83.6319065  14.6343839  40.2619505  84.4366264  14.6143949
  39.3606591  83.5720158  13.7593460  54.8770905  97.9761982   2.8292811
  55.7447481  98.1681919   3.1850040  54.4923687  97.3620701   3.4546393
  54.6185780  92.4676037  22.4944067  54.9117804  93.0748272  23.1737757
  53.6636448  92.5309277  22.5124812  31.8210196 106.6385078  38.5749602
  32.6513505 106.7377758  39.0407157  31.2580180 107.3205948  38.9410567
  22.7683496  65.7781696  15.2219975  23.6682916  66.0384798  15.0255919
  22.2277498  66.4323139  14.7791862  48.7322330  72.5053549  51.1168432
  48.9000750  72.2137785  52.0129728  48.3036995  73.3552933  51.2178230
  40.2993488 106.2575245  17.7868867  40.4776859 105.7083797  18.5503411
  39.6150637 106.8595219  18.0794442  11.7809379  70.3745747  72.0301819
  12.6319933  70.4311705  71.5957451  11.9642353  70.5888796  72.9448986
  53.7960577  90.8747673  45.0750971  53.9162016  91.5543365  45.7384109
  54.3383265  90.1462841  45.3775835   8.4912872  66.6318369  83.4808254
   8.9470607  67.2473240  82.9066467   7.8968954  67.1787071  83.9945030
   7.8195208  57.6374388  55.3854704   8.3065003  56.8137550  55.4104853
   8.4951079  58.3154726  55.3946018  48.8733745   8.9154662  39.0690136
  48.3193839   8.3631075  38.5174489  48.2624436   9.5138777  39.4990158
 109.6882188  48.1978788  80.0135894 110.3933965  48.6507692  79.5511516
 110.0812613  47.3741140  80.3019495  44.1334963  86.1664104  10.2506280
  44.5350218  86.1401749  11.1191463  44.7600651  85.7170582   9.6834195
  40.9178019  64.5474625  32.0361948  40.9070921  64.0861750  31.1975479
  41.6696453  65.1367950  31.9758105   2.1931624  74.1090727  58.8821888
   1.2663458  74.2960739  59.0314293   2.6139891  74.9688053  58.8821745
  31.1451674  93.8717461  28.4877276  31.2841916  94.0122890  29.4242930
  30.7170415  94.6730328  28.1862545  11.9120228  74.2997503  70.4903936
  11.4617288  73.4808540  70.2833271  12.8332531  74.0527058  70.5712366
  22.1823072  84.1658878  30.6345153  21.5266299  84.4556332  30.0001931
  21.8258476  84.4269371  31.4836454  32.7956080  74.2489004  41.6986609
  32.5647378  74.3976688  40.7817078  33.7496924  74.1717958  41.6959572
  98.9439499  15.8598651  92.8037141  99.4775283  16.0536565  93.5744085
  99.5037638  15.3081693  92.2573866  56.2545890  19.8112048  34.2276978
  55.9331781  20.7004393  34.3766189  57.0976669  19.7823561  34.6800470
  46.8416786  76.3504553  59.5819569  47.0552063  77.0564318  60.1920700
  47.6731062  75.8984518  59.4382381   1.6258180  96.1470032  44.5634985
   1.0373716  95.8957100  43.8515902   1.3591962  97.0375919  44.7915554
  60.2980298  11.7326964  33.7964821  59.6157688  12.2122324  34.2663717
  60.9130114  12.4086512  33.5116768  23.9127588  66.8100357  29.6647263
  23.0923653  66.6185427  29.2102861  24.5944524  66.6064548  29.0243483
  65.7764912  68.4054327  19.9662137  65.2395725  68.1225395  19.2259955
  66.5566111  68.7874413  19.5640779  29.9605513   0.7103861   1.3011436
  29.7625429   0.2985896   0.4600453  29.2905837   0.3738345   1.8962127
  41.9908905  77.6456785  40.2360630  42.4268055  77.4051285  41.0535908
  41.8222237  78.5840034  40.3216553  32.0096159  73.3297682  19.9980807
  31.3750720  72.8881216  19.4336903  32.5494504  73.8422823  19.3963027
  50.3855228  66.4423800  25.4768610  49.9684238  66.7404175  24.6685100
  50.5926371  67.2479248  25.9506106  50.1814556 106.4736271  34.9593949
  49.8125029 106.0203362  34.2013502  51.0765076 106.1407948  35.0252295
  18.9977980  97.3643589  40.0833416  19.7610307  96.8024921  40.2175474
  18.8258517  97.7445889  40.9447908  80.7772255  89.0353775   6.9113415
  80.0165367  88.4764671   7.0701098  81.2769413  88.9970970   7.7268440
   3.1831917 100.4096127  50.6315899   2.9760957 101.3375568  50.5208874
   2.7816468 100.1726627  51.4675617  35.8783007  65.4305220  59.9832201
  35.0003791  65.2753115  59.6348047  36.2671781  66.0633469  59.3794537
 115.9179580  80.9476376  16.5066183 116.8397950  80.9889507  16.2521744
 115.6922125  81.8490791  16.7361331  51.9289446  88.2829857  41.1342287
  51.1510229  88.1134319  41.6655684  52.6035166  87.7171993  41.5098238
  37.8926015  79.8827314  27.4989176  37.4950004  79.3610144  28.1960225
  37.4319363  79.6120501  26.7047191  11.8831599  87.1209526  29.0895891
  11.4151299  87.8805828  29.4361997  11.3186383  86.3764381  29.2975521
  12.6113617  91.6282558  41.4396429  11.6834259  91.8009281  41.5988636
  13.0333591  92.4823284  41.5329361  31.1898756  90.8616734  45.9718657
  30.8408689  89.9771976  46.0819864  31.5641475  91.0794735  46.8255138
  60.4686642 107.7207279  57.4305153  61.1322212 108.4076118  57.3664474
  60.7577372 107.0499992  56.8118143  62.8760862 103.3181477  58.8649416
  63.2633543 102.9740715  59.6698475  62.4020243 104.1017818  59.1431808
  43.3692217 107.9208374   5.2251524  44.1723108 108.2422066   4.8152673
  43.5860443 107.0345211   5.5143869  51.4441347  98.9662170  83.3058548
  50.7924461  99.0758705  82.6133823  51.9823027  98.2304192  83.0139446
  40.7388639  89.5549583  39.5161080  40.9827948  89.9533081  40.3516006
  40.9131432  88.6214161  39.6359158  83.9001483  28.3489836   1.4532882
  84.1133183  29.2709959   1.3094512  84.2478866  28.1557501   2.3239046
  78.4347980 103.8298369  92.7042924  79.2366379 103.3074332  92.6849197
  77.7507012 103.2093383  92.9557471   9.6895283  96.4790058  23.5676575
  10.1391554  95.8498287  24.1317534   9.6212685  96.0362244  22.7217770
  18.0934560  91.6054821  22.7045894  17.9859412  90.8769321  22.0931244
  18.6621273  91.2590981  23.3922410  45.0408602 103.7908745  38.1457376
  44.1489983 104.1372013  38.1753087  44.9536133 102.8801632  38.4272051
  93.8248509   1.6901244  50.6127596  93.5402030   2.2951640  49.9278307
  93.1381148   1.0240782  50.6445217 109.6289033  18.8957442  38.9400768
 109.1927260  19.4796599  38.3195758 110.5597609  18.9783133  38.7329054
  49.1485119  75.3112125  33.6978936  48.3262253  74.9939919  33.3244801
  49.8145914  74.7197342  33.3475661  25.2197337  77.3899508  43.0057955
  25.4946065  77.8082514  42.1898890  24.4176078  77.8503084  43.2525682
 100.6294459   4.3279398  37.8360844 101.3145799   3.6630000  37.9044437
  99.8882312   3.8684405  37.4415135  55.6857061 108.4901524  41.0456514
  54.9883461 109.1323566  41.1779118  56.2171745 108.8558960  40.3385448
  71.9830322  86.3681698  15.4208088  71.3253593  86.2016678  16.0960710
  72.4143076  87.1756649  15.7004392  94.3044681  10.0276316  53.1768179
  94.6217793   9.1281737  53.0960560  95.0886840  10.5419768  53.3683443
 109.1826648  19.7237528  25.9988999 109.6986360  18.9292086  25.8621240
 109.7613305  20.3026522  26.4951420  29.5641947  87.8065109  31.0020447
  29.4812179  87.7733326  30.0490260  29.8914599  88.6875534  31.1834383
 102.6658935   4.2364253  25.1237798 101.7897099   4.0394343  25.4550385
 103.2260817   3.5658492  25.5146217  39.1205788 105.4940891  38.2061958
  38.6587548 106.0830307  37.6094556  38.4682298 104.8357582  38.4455132
  79.1172379  14.1610182  36.9270849  78.6686200  14.2765940  36.0894585
  78.8862795  13.2737292  37.2020507  65.6585217  68.2987881  51.3013649
  64.7286320  68.1873274  51.1035824  65.7802725  69.2467594  51.3538694
  94.0327043  30.7500590  24.8707867  94.6506804  30.1640166  24.4338751
  94.2034072  30.6252707  25.8043385  26.4155149  98.6615276  16.7857432
  27.0219398  98.0836678  17.2489512  25.5515599  98.4181881  17.1183133
  66.6551447  97.2134209  31.0191512  66.2605715  97.2155285  30.1470613
  67.5864506  97.3680210  30.8610439  54.5719046   5.7799853  43.0476189
  53.7514478   6.2345160  42.8566217  54.5400316   4.9908293  42.5068331
 110.3087205   4.1451682  57.5282478 110.7859630   3.9521922  56.7212582
 109.4121856   3.8610686  57.3500872  99.7039908  25.6160487  31.9657826
  98.9585799  26.2149085  31.9214249  99.6940249  25.2874030  32.8647375
  69.6497840   7.9817141  31.5934372  70.0723595   7.3316325  32.1547437
  70.3487462   8.5967101  31.3710499  80.7156104  24.7203959  35.7893419
  81.4385528  25.1660956  36.2308621  80.0376195  25.3906382  35.7036495
  27.2560149  48.3516778  88.9346470  26.6998321  47.6917352  89.3486066
  26.6636306  48.8393583  88.3623888 107.0796698  19.7217024  65.4921103
 107.0395106  18.9534415  64.9225569 107.6187533  20.3490580  65.0103998
  50.3482580 102.7523518  34.2523026  51.1013412 103.3416557  34.2950249
  49.8730087 102.9115295  35.0677967  62.6898670  81.6147804  42.1194744
  63.4282780  81.4381504  42.7023888  62.7030563  80.8931065  41.4907932
  21.2513566  83.0771828  79.4105530  21.9988561  82.6254463  79.0188789
  21.5280509  83.2648945  80.3074551  16.3951361  99.1190815  73.4742546
  15.6134224  98.9156914  73.9878559  16.5898728  98.3087921  73.0033779
  87.1101254   2.4411715  59.5967054  86.3972920   3.0030955  59.2928362
  87.2628945   2.7158869  60.5008221  45.2409744  64.4839048  34.3479919
  45.9054136  63.8262177  34.5534134  45.1427650  64.9859619  35.1570201
  23.0456877 106.1306667  47.8693485  23.3019972 106.9657898  48.2606411
  23.0771852 106.2885857  46.9257927  22.8617382  71.0000801  52.5949240
  23.3819890  71.6759729  52.1604824  23.5061717  70.4551792  53.0466127
 104.0370244  15.5172766   2.4223024 104.4164866  15.0392188   3.1596607
 103.9479035  16.4158667   2.7398357  96.1444682   6.8102206  66.8933296
  96.0618800   6.1895216  67.6173067  97.0085591   6.6317404  66.5222168
  86.6190631  47.5700235   4.4159464  85.8049453  47.4514627   4.9052195
  86.8366182  48.4947347   4.5334486  59.9813599   1.0563410   9.2170775
  59.8612708   0.1102198   9.1354245  60.3180570   1.3295687   8.3637232
  43.4944344  96.9126034  15.3346729  44.0238047  96.1449528  15.1185536
  42.6050854  96.5714264  15.4289389  40.1665592  92.1506596  39.3719339
  39.6234202  91.8835735  40.1134872  40.6552887  91.3619709  39.1366768
  27.1135068 104.0291405  33.2226586  27.1446681 103.5400009  32.4004650
  27.9351354 103.8108063  33.6625314  18.4068614 101.0485639  81.4758189
  17.9229575 100.7425203  82.2428949  18.3310062 100.3336515  80.8438583
  96.9157981  47.8036489  71.2064572  96.6004299  48.1002607  70.3527613
  97.8435993  47.6143636  71.0664983  26.3083339  86.5335655  58.6623001
  25.3790975  86.3318729  58.5524273  26.6621923  86.5244293  57.7729559
  36.0143661  70.3446531  47.5212288  35.3288817  70.4621553  48.1789017
  36.6636443  71.0164881  47.7293396   8.6307764  97.0829201   8.3833420
   8.4489739  97.3971462   9.2690301   9.5018703  96.6905785   8.4424913
  34.5395517 105.4017639  31.3015103  35.4398656 105.1352406  31.4876223
  34.1053319 105.3907871  32.1544838  20.8081227  35.4288568  94.2001108
  21.3185531  34.8439683  94.7601108  21.4539271  36.0317601  93.8317715
  82.9780263   0.6247748  38.9039826  82.8523511  -0.2706777  39.2180085
  82.4330253   1.1596907  39.4811058  81.9240254   6.6167963  45.3018045
  81.1460656   6.8883837  45.7888889  81.6838139   6.7331923  44.3825722
  58.4216976  87.6627445  26.3440180  58.1298399  87.5178528  27.2440505
  59.3769169  87.6255703  26.3930631  55.4101467  93.5807419  49.5980692
  55.0604391  94.1549587  48.9167356  55.9873056  92.9774761  49.1298962
  54.7124338 107.2390747  66.3702679  54.8927832 108.1572437  66.5719366
  53.9919615 107.0025921  66.9544172 112.2998160   9.8320521  18.0122483
 112.6584405   9.1574133  17.4356294 111.5952891  10.2326621  17.5029528
  47.7672052  80.5820656  38.4137893  47.6737213  80.5733299  39.3663740
  47.1452904  81.2469482  38.1181860  53.3143330  72.1553230  35.2467656
  53.0741167  72.9022789  35.7950258  54.1233826  72.4268007  34.8132181
  68.2500935  92.1956253   7.1154767  67.6134872  91.6212654   6.6899449
  68.9951515  91.6263676   7.3079842  22.3522377  82.9027653  21.8359232
  21.7843938  82.9048157  21.0653520  23.2291460  82.7434349  21.4868116
  84.6559829  10.4395617   8.7286973  84.4485921  11.3649977   8.8583279
  85.4037398  10.4431094   8.1311381  84.4456786  13.7013663  49.1542912
  84.8064822  14.5205725  48.8152504  85.0078696  13.0207480  48.7842369
  94.6700066   4.8385848  38.9998531  94.8453635   5.2104891  38.1354666
  93.7518519   5.0493945  39.1695189  73.4510803  85.6243801  20.2182722
  73.5127926  85.1955032  19.3647575  74.3604326  85.7645702  20.4821873
  53.3587408  55.8926201  34.1094255  53.7470055  55.0532866  34.3564105
  53.3527756  55.8813667  33.1523108  70.4541302  88.7075901  22.5593543
  70.5446053  88.3454800  23.4407854  70.3362322  89.6474075  22.6974535
  47.9025173  87.0846081  32.7806997  47.9645824  88.0397797  32.7850509
  48.6386395  86.7992210  32.2394872  71.4875740  19.7682322  37.6294756
  72.1253199  20.3565348  38.0337167  71.9578451  18.9412154  37.5240016
  19.2902768  89.5665932  38.8484788  18.8455880  90.2366543  38.3293509
  18.9511096  89.6865654  39.7354984  42.2358751 103.3705330  62.4013901
  42.6990938 102.7000427  62.9034805  42.9199886 103.9835358  62.1322346
  21.5297914  92.7823925  70.7335138  22.2803092  92.4795437  71.2446260
  21.7548990  92.5689888  69.8279667  80.0788707  10.8853854  27.9872298
  80.6447715  10.1144637  27.9462647  80.0594920  11.1192358  28.9152241
 107.4006480  13.4267367  19.0068173 107.1785373  13.4612597  19.9372506
 108.1027383  12.7784194  18.9520776  12.9861271  85.9753609  14.1464245
  13.0535138  85.4306984  14.9306619  13.8851273  86.0450077  13.8252091
  86.9997662   3.6042918  75.0876284  86.8056268   3.8946188  74.1964197
  86.1541480   3.6245192  75.5356741  71.4402151  92.8317070  20.5878997
  72.2686958  92.8478909  21.0670543  71.6055202  92.2535896  19.8431277
  80.0535554  38.8519991  29.5208383  80.3610009  38.0030764  29.8387218
  80.1579493  38.8040293  28.5705590  44.1838884  90.5836391  46.2010145
  44.1483974  90.4666424  47.1503735  44.7109032  91.3729382  46.0765028
  60.2216291  85.9588909  38.5634017  59.8965502  86.8441010  38.3992147
  60.7577515  85.7546711  37.7971792  64.8740911  94.5550346  44.1093397
  65.5412102  95.2406406  44.1429472  64.5348024  94.5946121  43.2151651
 100.9785956  16.3810671  49.0017462 101.1374396  15.5772913  49.4966698
 101.7847938  16.5195406  48.5046530  98.6983842   0.8781088   4.2189109
  98.1384677   0.9356440   3.4446910  98.5071629   0.0164355   4.5892894
  57.4628019  94.9606419  47.3726702  56.5839863  95.3172779  47.5020170
  57.3710775  94.3600368  46.6330194  38.1935883  92.6138401  31.8499708
  38.8293481  91.9238472  32.0395875  37.5955868  92.6004696  32.5972652
  91.0479802  40.0088538  41.8712997  91.6220588  40.7552756  42.0431137
  90.4171056  40.0212325  42.5910759  91.8146819   2.3604811  61.7433119
  92.1408242   1.5378226  62.1081352  91.5225095   2.8611315  62.5050306
  86.7822456 109.5005703  43.3440685  87.6859760 109.8006058  43.2466888
  86.7729473 109.0360928  44.1809750  54.9685639   1.1755980  55.0803995
  55.4708558   0.8208025  55.8139229  54.3936426   0.4579867  54.8144436
  48.7801266  61.6637421  42.5764179  48.6039162  60.8811474  43.0986500
  48.4085274  62.3820496  43.0884552  68.3017987  22.2321452  12.6574790
  68.3127636  23.1196059  13.0159831  68.5913843  21.6775836  13.3819306
  40.9485722 106.7416668   9.2717612  40.0240421 106.5012932   9.2110223
  40.9437227 107.6151657   9.6631706  37.0426822  81.3304234  33.5614085
  37.8642011  80.8445930  33.6342597  36.9021153  81.4233303  32.6191545
  80.8547276  12.1890582  34.9168468  80.6717986  11.9033469  35.8119059
  81.0526532  13.1219710  34.9989557  40.7925844 107.9406166  38.2040834
  40.3665066 107.1803093  38.5998321  40.3352261 108.0656433  37.3725653
  33.5691857  68.8656569  16.4527977  33.4631419  69.7937441  16.6617107
  33.3790398  68.8076735  15.5164671  66.3780445  30.7585753  33.8763857
  65.5332941  30.4551638  33.5438633  66.2086624  31.6492022  34.1835022
 100.4339635   1.1194886  77.9875918 100.1875936   0.5400027  78.7085135
 100.7301056   1.9224824  78.4162386  52.3350430  99.0405273  61.3274002
  52.9802370  99.2907524  61.9887209  51.5653753  99.5721245  61.5304899
  77.7105302   2.5380171  19.8546457  77.6206249   2.0395125  20.6668282
  78.3073682   2.0162619  19.3181872  72.3089260  12.9235590  22.9260516
  73.0140942  12.2914351  22.7868176  72.3968500  13.1822623  23.8434243
  68.5709495   6.5647353  29.4466686  68.9696235   6.7006911  30.3062081
  69.0755552   7.1252478  28.8572359  35.0818276 106.2561417  28.7438416
  35.0781298 105.9383583  29.6467423  34.2256069 106.0043907  28.3978128
  57.4777985  71.0250473  40.5818605  57.9748964  71.2426424  41.3703918
  57.4419785  71.8440390  40.0876951  89.6340293  44.9813784  33.8104510
  90.3215140  45.6313075  33.6649275  88.9471787  45.2153910  33.1861830
  41.3093615 108.4552860  75.0313330  42.0402670 109.0717888  74.9874687
  40.6609869 108.8914299  75.5841637  24.5513725  99.4099426  33.7810111
  23.7737107  98.8518810  33.7870884  24.9703979  99.2276859  32.9399204
  63.6831331  58.9345455  27.2622824  64.4118166  58.8815451  26.6438627
  63.6829329  59.8460054  27.5546432  71.1389685 109.6871853   9.1444278
  70.5443716 109.3667889   9.8226857  70.8681726 109.2254353   8.3508986
  81.5258283   3.1094874  28.4225798  82.4297017   3.3708609  28.2467031
  81.4259356   3.2144583  29.3687463  61.2363511  27.8639211  87.7205892
  60.7159024  28.3406533  88.3671816  62.1216756  28.2138242  87.8206463
  43.5051680  76.2493944  48.6032104  43.2980967  77.1832085  48.6398649
  43.9718485  76.0752869  49.4206047  42.1125078 100.0682449  34.2010689
  42.6336288  99.2818260  34.0391922  41.5394974  99.8300457  34.9298739
  54.9920177 106.0048580  49.1914177  54.9567413 106.7925358  49.7341394
  54.0817404 105.8444500  48.9426279  65.8257580 105.0630951  18.4173346
  66.2633038 104.2134476  18.3636034  64.9109983 104.8751259  18.2073081
  66.0591316 105.3964996  33.7465358  66.6931772 104.6795940  33.7627196
  66.2326860 105.8879089  34.5494223  38.0740690  71.3823891  33.7944198
  37.4765277  71.5664196  34.5192027  37.5004816  71.1496592  33.0643058
   4.2795814   9.1618289  50.8261824   4.0519584   8.2323588  50.8037853
   4.4205058   9.3516196  51.7537308  30.5712700  96.1554909  25.6975675
  29.7033978  95.8381557  25.9472251  30.4253697  96.6357517  24.8825264
  12.6197445 109.3259335  43.9961481  13.3336508 108.7053299  43.8497686
  13.0433893 110.0908279  44.3856192  15.2776492  73.9805937  91.2154102
  16.2310791  73.9603806  91.1329842  14.9666452  74.2167902  90.3415012
  89.7411603  17.3088778  33.4700894  90.4212207  17.1619452  34.1274762
  89.8526734  18.2233942  33.2103872  88.4072196  30.2011289  76.7254408
  89.0962922  29.5419206  76.6426738  87.6589274  29.8249044  76.2620337
  64.3592262  93.2851982  28.6495852  63.4169483  93.1602764  28.5367370
  64.6644115  93.5902882  27.7951765  43.4240866 104.5946217  30.9405422
  43.1033564 103.7871170  31.3421607  44.3520403 104.4277859  30.7753181
  83.1122703  12.1455897  27.0257783  82.8512305  12.9592455  27.4571085
  82.4731749  11.4994753  27.3263121 115.5462403  33.6140203  26.6525078
 115.1352524  34.0452600  27.4017406 116.4270284  33.9869022  26.6150427
  47.3244238 110.2029800  28.5775733  47.9692173 110.4119205  27.9016852
  47.4829435 109.2816639  28.7831974  47.5002766  99.2014217  21.2259889
  47.1681643  98.6457253  20.5209136  47.9779530  98.6015797  21.7989111
  39.0663838  45.6890249  13.6982358  39.5530128  46.4950991  13.8704884
  39.3781376  45.3996420  12.8407407   8.1260472  42.4575319  91.9709899
   7.3736888  42.5185670  92.5595997   8.5825330  43.2919873  92.0784469
  25.5325770  68.0012703  48.4969044  26.3137937  68.5491371  48.5728550
  25.0034404  68.4305143  47.8246021  37.0048928 107.0692539  26.5949273
  36.5628195 106.7493153  27.3813343  37.5455356 106.3333416  26.3079190
  22.6990581  58.8607693  30.5241990  22.6432228  57.9692459  30.1802516
  23.4627032  58.8475037  31.1011767  47.1950245  94.1724205  33.8128233
  47.6786947  94.9439240  34.1079116  47.3598480  93.5138416  34.4876075
  27.9590249  86.0814667  56.1767197  28.6335278  85.4250717  56.3511562
  28.4477019  86.8722725  55.9485769 112.9403418  34.0483607  59.8458862
 113.3874148  34.6426905  60.4484892 112.1210832  33.8289679  60.2896309
 102.3349577  98.7397957  52.8038120 101.8525153  98.4246254  53.5681057
 103.1974631  98.3317375  52.8800154  27.0205188  98.5858727   6.0969830
  27.9224634  98.2657146   6.1120760  26.9752431  99.1375828   5.3160912
   5.7061547  99.8173237  52.5392818   5.2878493 100.5576515  52.9787922
   4.9866593  99.2168808  52.3442793 114.4636094  24.7160758  77.0043774
 113.9998733  23.8801803  76.9548126 113.8460027  25.3074731  77.4345477
  10.3912079  81.6387653  10.4190075  10.7478201  80.7824326  10.6551421
   9.9690050  81.9513130  11.2191880  49.7001123  96.6373062  29.1275287
  50.5795479  96.9400501  29.3537140  49.8036242  96.2172985  28.2736468
 105.9590453  46.9622172  38.7437606 105.2773017  46.2933386  38.8074350
 106.5134543  46.6709841  38.0198526  28.9946508  58.0853224  37.0829773
  28.8779569  58.7916946  37.7183175  28.9899611  57.2861481  37.6097894
  69.4344091 101.4821434  43.3138180  69.5126104 100.7377243  43.9104366
  69.3975878 101.0878372  42.4423838  40.6424379  88.2326317  27.1667600
  40.1013374  88.6416626  27.8421354  40.0560236  87.6129341  26.7327881
  61.0688877 103.3066368  28.0891657  61.5819645 104.1139984  28.0552554
  60.1761675 103.5978031  28.2749343  54.3250996  13.9163722  32.8633285
  53.7564677  13.5486163  32.1868300  54.5734376  14.7769202  32.5256777
  91.5365601 106.9402981  22.0660782  92.2326756 106.7508221  21.4369941
  90.9659767 106.1725807  22.0303631  49.9759299   4.1990508  52.1585083
  50.6577939   4.2399252  52.8290462  50.4392678   4.3564452  51.3358450
  35.8080220  78.1036329  28.7651491  35.2969456  77.3893785  28.3845305
  35.1684690  78.7980890  28.9230585  71.4572477  98.1836796  49.8976421
  71.2655306  97.3785782  49.4167185  72.4070549  98.1717014  50.0157642
 104.2569560   5.2107848  44.6352482 103.8275021   4.3553675  44.6437407
 104.1445273   5.5440749  45.5254745  51.2802315 101.8113613  53.1778765
  50.5776453 102.4601555  53.2186985  51.0852480 101.2020493  53.8898802
  46.7980862  93.0150890  72.0765591  46.6717529  93.8544941  72.5188923
  47.6679039  93.0805779  71.6824007  39.9525476  57.7974176  29.2555833
  40.2533102  58.6546946  28.9541745  39.2323256  57.5752211  28.6655498
  69.2062092 105.9247303  36.5547013  70.1300287 106.1553478  36.4566803
  68.7339497 106.6445827  36.1363578  99.7336835  11.6720236  21.9186878
  98.9084691  11.2448634  21.6889358  99.8344869  12.3649920  21.2661028
  26.5460300 107.6356316  33.4521461  26.5972710 107.3513699  34.3647289
  27.0230103 108.4652901  33.4325695  69.6591062  10.3734244   1.8252660
  69.7193474  11.2640322   1.4796931  70.4080838  10.2945841   2.4160701
  41.3836670  59.6069336  76.5951729  42.1924114  59.2739868  76.9841576
  41.5067530  59.4934225  75.6527281  55.4071569  91.5333843  47.2888374
  56.1312628  91.6976357  46.6847467  55.6279087  90.7009506  47.7066278
  65.3062862   6.6291464  12.2141063  65.5453462   6.0251177  12.9171216
  64.8563665   7.3477496  12.6584148  65.7015896  71.4360666  32.1979833
  65.2012920  70.9388304  32.8450441  65.0671911  72.0464516  31.8222189
  26.4408994  80.4222488  36.5478396  26.3368869  81.0820961  35.8622646
  25.5614305  80.0654984  36.6723084  71.9902706 104.6384335  24.5335674
  71.8697214 104.0847206  25.3049946  72.7715826 104.2872524  24.1064072
  97.9521054   8.4764231  12.4834645  98.6929625   8.3985461  13.0845475
  97.4531716   9.2235316  12.8138041  53.9727259  94.3086720  45.2134466
  54.7440815  94.7916508  44.9168444  53.8674831  93.6072922  44.5706177
  46.5157986  96.4509583  40.5927324  47.4339390  96.4322758  40.3227329
  46.3414478  95.5649662  40.9102869  90.5513573  92.5607395   7.1149546
  91.1183262  91.8533707   6.8077105  90.9747887  92.8777218   7.9127347
  50.2880335  92.3923016  36.0552144  50.5433798  91.5623569  36.4579916
  49.3394756  92.3239708  35.9465885   8.7431205   2.4876441   6.7221242
   8.7294734   2.9763640   5.8992016   8.3805812   1.6306437   6.4977729
  92.3664874  12.7065600  47.4313068  92.1521586  11.8117274  47.6950645
  93.2807416  12.8203238  47.6909733  78.4349436  14.6346320  34.3424821
  77.6070255  14.2241419  34.5920348  78.4672731  14.5486964  33.3896947
  89.1930884   1.0960616  37.0758557  89.2807311   2.0415247  36.9547868
  88.9782638   0.7619704  36.2049580  82.4244088   8.5534132  21.5561104
  81.5857667   8.9873541  21.3992453  82.8999823   8.6457766  20.7305646
 106.4597159  62.1598673  44.5905209 107.0993602  62.4298191  45.2494717
 106.4567750  61.2038088  44.6371269  50.4572040   4.6502055  31.4667130
  51.1151391   4.6012724  32.1602249  50.9165615   4.3572939  30.6796765
  63.3601564  24.7066248  36.0786724  63.0482930  24.3892802  36.9261789
  63.6079687  23.9140643  35.6025791  36.7806506  68.8460159  44.8318338
  35.8972359  68.8137245  44.4647264  36.6887069  69.3630552  45.6321144
   2.4546358 103.6362553  69.3073463   2.6531571 103.3923817  68.4032774
   2.6696879 104.5676708  69.3569040  83.4527844   3.6282671  40.1302385
  83.1147212   4.1817416  39.4262457  82.6720828   3.2418192  40.5269718
  78.9053577  19.4399107  48.2028246  78.5113877  19.1357840  47.3851919
  79.7476310  19.8106516  47.9394722  61.0020161  79.8167562  43.8958073
  60.3520298  79.5623827  44.5508242  61.3343430  80.6601715  44.2031193
 116.4676875   0.4747237  31.5645504 117.3042506   0.4646624  32.0296192
 116.7022532   0.6511343  30.6534600  40.5497247  16.7304839  32.0323896
  39.7769775  17.1795500  32.3750734  40.2012970  15.9521140  31.5976810
  27.2808194  82.5059223  61.6552496  27.1623421  83.4159756  61.3832235
  26.3949084  82.1937275  61.8394470  42.5342035  83.3030701  18.3756077
  42.6063919  82.8194332  17.5527370  41.8181801  82.8736973  18.8437700
  98.9177722  20.9890688  12.0482159  99.8023862  20.8225382  12.3737311
  98.3434314  20.5793131  12.6951063  45.3603697  87.0288849   5.1735222
  45.3075600  86.0832787   5.3123409  45.6688881  87.1217823   4.2721787
  43.1168079  73.9985895  47.0561743  43.1043243  73.6436749  47.9450560
  43.5578251  74.8438025  47.1419287  65.4458523 102.9921913  35.9711528
  65.9626579 102.5345612  36.6342640  65.8076000 102.6929665  35.1369834
  79.1796130   9.7691954   6.4891428  78.8184971   9.7997035   5.6031984
  80.1217145   9.8874796   6.3679874  82.9300374  42.7831877  29.2643404
  83.2966107  42.9204882  30.1378417  82.7650088  41.8414057  29.2191696
  63.1079292  93.8302803  33.9527488  63.9498281  94.0748310  33.5685229
  62.4933195  94.4835663  33.6185384  82.9118824 100.6837749   0.3844047
  83.3166695 101.5412331   0.2534541  83.2265568 100.1557922  -0.3493805
  45.7269239 101.3405132  17.2322738  45.7974291 101.9791698  16.5227818
  44.7861004 101.2591171  17.3886383  37.3226023  71.2574053  40.3678370
  36.7109537  71.9904947  40.2992630  37.7382112  71.3713837  41.2225342
  11.9314301 104.8450089  34.0197134  11.3559759 105.5018044  33.6276579
  11.8464601 104.0810299  33.4493303  74.7600430   0.5355013  51.3131666
  75.3690070   1.1474646  51.7265701  75.1335186  -0.3284418  51.4873457
  42.1395111  83.2484722  35.6899619  41.5373516  82.7333736  35.1530147
  42.0384645  84.1450119  35.3701949 105.8685970 107.4454880  47.8426313
 106.6033649 107.9191399  47.4527550 105.0909233 107.8635597  47.4729490
  73.3062983  44.6093559  33.0994010  72.6159763  45.0902414  33.5559535
  73.5803318  45.1956081  32.3941016  56.7180252  58.1846809  32.2972417
  56.5322590  57.2822714  32.5568128  57.1411371  58.1057072  31.4422727
  19.5748199  27.7657832  32.8913951  20.0397456  27.8213824  32.0565343
  19.0139259  28.5413016  32.9052925  88.5364503  26.5212668  49.4814157
  88.3739203  25.7037676  49.0107679  87.7016944  26.9883097  49.4455671
   2.7580608  24.2673243  25.2867484   1.8543637  24.0883006  25.0269103
   2.6879848  24.6064795  26.1790991  10.5669814  51.9725217  93.1437822
  10.3070098  52.8486051  93.4286051  10.2371245  51.3904084  93.8283007
  32.0576919  10.6695403  58.8729286  32.9252494  10.4862822  59.2334604
  31.4997638   9.9774302  59.2278051  47.9939175 102.8221321  29.6281123
  48.8495731 103.0058575  30.0158405  48.1743383 102.7014351  28.6958504
 114.1347665   6.8566741  58.9126682 114.8568314   7.0377673  59.5143843
 113.3649463   6.7850436  59.4770098  98.6763638   3.2109965  19.3123591
  99.5689792   3.1273402  19.6477246  98.7144584   2.8340662  18.4333217
  93.9784211  38.1754626  45.6290722  94.0141791  39.0415896  45.2231455
  93.5386962  38.3214701  46.4666605  59.0138435 100.4197407  31.3552427
  58.2855940  99.8150635  31.4975286  59.3229198 100.2187920  30.4718852
  31.9733310 104.2198181  48.6917973  32.0450759 103.2659721  48.7272644
  31.7150855 104.4736958  49.5778513 100.6723327   5.8673132  11.7160547
 100.6814975   6.4271773  10.9397185 100.6581658   6.4788950  12.4522555
  94.2825431  26.5209998  46.8399334  94.6004552  26.5099467  47.7427292
  95.0728339  26.6193331  46.3088989  82.7031869  19.0002383  41.1660147
  82.5720948  18.6698950  42.0547915  81.8214482  19.2025031  40.8531904
  93.6909694  14.9813879  17.4614358  92.7644271  15.1914347  17.5781941
  94.1504449  15.6027258  18.0262828 108.6920184  16.1677207  36.9667220
 108.2454318  15.6958617  37.6696730 108.0945319  16.8800963  36.7391825
  58.6328602 105.6631184  53.8306522  59.2216539 106.2222195  53.3237314
  58.9245987 104.7718811  53.6387920  49.4988680  99.1583061  42.4200439
  48.8716125  99.1431713  43.1429243  50.3110313  99.4764233  42.8142881
 108.9151544  49.9622954  83.6634922 108.1312055  50.5012930  83.7690163
 109.4051856  50.3874625  82.9596901 114.6481580   5.5791033  69.5249414
 114.8860043   6.5010203  69.6235085 114.7789115   5.2036036  70.3956509
  70.7135534  97.7615547  41.8819332  70.4528236  97.9598045  42.7813482
  69.9048233  97.4790478  41.4548683  64.5643473  73.8760281  11.2519121
  64.4045734  74.2227268  10.3741288  64.3762112  72.9404259  11.1778033
  88.6026734   4.5204772   9.3372303  89.1716784   5.2172698   9.6642536
  89.1743964   3.7556208   9.2710930  93.0816192  38.1051482  36.6232967
  93.6582202  38.7054194  36.1506081  92.6418036  38.6557711  37.2710633
  59.6050501  84.3150806  30.4340911  58.9997005  84.6860218  29.7920728
  59.2438316  83.4511757  30.6326365 114.1018409  35.5185450  12.7823234
 113.8724870  34.8591174  13.4371340 114.1422433  36.3394106  13.2730174
 100.9706205 101.6877651   0.3286006 101.5032583 102.3696804   0.7379027
 101.4770299 101.4153099  -0.4366100  87.9752606  33.5522116  12.1896875
  87.3340768  33.5660017  11.4791059  88.4103888  32.7040232  12.1032381
 111.7851848  14.7695769  46.0293150 111.8521708  15.6699217  45.7113028
 110.9468335  14.4571341  45.6890678  63.4917969  32.6388491  15.1527154
  62.6122230  32.4854792  15.4977596  63.3652944  33.2745780  14.4483829
  33.8102412  80.1040268  10.1132774  33.5880709  80.8468246   9.5519161
  33.7889004  79.3467951   9.5281506   7.4744380  19.1552390  23.6257696
   7.6955379  19.6850241  24.3917108   6.5175784  19.1583670  23.6004996
  68.3396721  90.6955910  33.6212802  67.8200960  90.8814144  34.4034195
  68.9350319  89.9958706  33.8899064  74.7402287  98.6992264  31.4283347
  75.2446938  98.9739799  30.6626582  75.1639843  99.1396713  32.1649957
 112.7320260  13.0154551  39.3139172 112.6997107  12.2917403  38.6882687
 112.0661181  13.6294878  39.0044713  92.4258965   2.4637640  32.4647498
  91.6264075   1.9935072  32.2282839  92.2400969   2.8330458  33.3280802
  88.0489654  33.0689753  40.9942389  88.9345282  32.8415049  41.2775421
  88.0260343  32.8326739  40.0669479 111.0931271  12.5317229  16.1554372
 111.8079585  12.7002753  15.5415642 110.3280991  12.3875941  15.5984867
  38.5432410  98.2626057  15.6950951  38.6438203  97.9814148  16.6045165
  37.5993299  98.2343769  15.5386662  43.2734013 102.4866676   4.1572434
  43.0468988 102.3005676   5.0684488  44.0789700 103.0008793   4.2109051
  48.1013375  64.0675153  89.3984057  48.6592275  63.2951059  89.3068476
  48.6972505  64.8080816  89.2858209  43.5203648  99.8123932  28.1118083
  43.7080956 100.7092094  27.8348279  43.4307909  99.3229580  27.2940946
  92.8768921  89.3895149  47.9919910  92.8668022  90.2012920  47.4848938
  92.1448708  89.4791794  48.6021852  66.6942090  44.1660250  70.6513500
  66.5023583  43.7377203  71.4856005  67.6419872  44.0787734  70.5496979
  93.7309712  12.5642909  19.2667985  93.3463592  13.3249129  18.8311899
  93.4129256  11.8142642  18.7642717  74.4065803  23.2037581  45.6569767
  74.3813723  23.1397379  46.6117001  75.3312916  23.0967368  45.4340792
  36.0153008 104.9893856  13.3215928  35.7615280 105.4074001  12.4987352
  36.8809557 104.6206093  13.1458926   6.4311773 109.8328686  47.1574306
   7.2915196 110.1591587  47.4211979   5.8119905 110.4574394  47.5352430
   8.5562974  63.7756433  84.1882558   8.4112626  64.6944799  83.9625664
   7.6799851  63.4290399  84.3561144 100.5648059   1.9648970  46.2287807
 100.5941743   1.0081519  46.2306929 100.1855725   2.1945799  47.0771074
  50.4159689  95.2581024  54.5882082  51.3625526  95.1670170  54.4790316
  50.0757742  95.3102970  53.6950254  92.3093414  90.0900555   3.2852936
  93.2015991  89.8839283   3.5639009  91.8181515  89.2828655   3.4382665
  95.3150338  20.2268828  20.1351333  95.2978009  21.0305537  20.6547952
  96.2247580  19.9324835  20.1794314  91.2735194   7.4653281   3.8974503
  91.5756005   8.3188380   3.5868165  91.9248790   7.2029150   4.5479193
  62.7094889  93.1344795  11.4931321  62.9348850  94.0622520  11.5614283
  61.7745066  93.1296062  11.2881553  70.8109075  26.1324109  88.7753381
  71.0806924  25.9881772  87.8683414  70.6178075  27.0687761  88.8217671
  85.4386109   4.2770995  15.8375490  86.3007802   4.3616618  16.2446678
  84.8346776   4.6600092  16.4738524  66.2456173  12.8498114  54.6351957
  65.7290572  12.4909533  53.9136553  65.5977553  13.0875243  55.2985191
  35.8285618 106.4483643  49.3976021  35.2738309 107.1971607  49.6162558
  36.7182422 106.8015003  49.3969059  36.4098930  75.0540781  62.1484756
  36.0723281  75.4650116  61.3526058  36.5696311  75.7846165  62.7459908
  65.0264406 104.7986889  45.7076931  65.1423120 103.9630127  45.2555418
  65.8180761 105.2951241  45.5000830 107.8243035  19.7532786  32.1357608
 107.4808759  20.6390036  32.2531343 108.4321803  19.6334494  32.8653908
  58.0489987   9.0157641   9.3039703  58.5176295   9.7683180   8.9430261
  58.6380655   8.6645735   9.9717212  92.5496358  23.8714064  48.7355375
  92.6217145  23.3155097  47.9596376  93.3740443  23.7378920  49.2032528
  53.2943535  99.8477554  30.4424858  52.6603127 100.2571678  31.0312223
  53.8748837 100.5625629  30.1812005  64.4595713   2.8223074   6.7721629
  64.2263717   3.1056822   7.6562148  65.4163450   2.7938689   6.7743319
 104.4408530   2.4585474   4.9760962 104.6545810   3.2833518   4.5399117
 105.2478141   1.9459857   4.9278849  81.7217082   5.4199160  38.5755038
  81.6417808   6.3186587  38.2559538  81.7038840   4.8818434  37.7840567
  53.2306606   3.8614119  25.3018618  53.8854069   4.2833746  25.8581829
  52.7180010   3.3210124  25.9030032  82.8678435  31.5558566  36.0874343
  82.9188365  31.2427176  36.9905257  83.7756652  31.7398585  35.8461142
  94.1522521   1.0272158  23.6402011  93.2777995   0.6615866  23.7739372
  94.0007371   1.8405283  23.1587577  53.8333559  96.5626526   4.9532351
  53.3155012  95.7859707   4.7415060  53.1907701  97.2030544   5.2585292
  89.8998422  15.8275069  20.6665015  89.3062943  16.5665091  20.7999849
  90.6356353  16.0022582  21.2532806 105.2967042  12.3690642  32.0892954
 105.9627599  11.9268168  32.6156163 104.4663114  12.0130003  32.4053621
   4.7723067  33.8647402  25.6348562   4.6712840  33.8450564  24.6832061
   5.4892600  33.2558478  25.8122492  62.8540754 103.6475945  36.2326407
  63.6094522 103.0649376  36.1542130  62.3381758 103.2759190  36.9481373
 103.8181895   7.3190726  37.1373272 104.6424693   7.6061858  36.7444515
 103.2502622   8.0882109  37.0914197   4.3862403  15.5903376  41.2471676
   5.0955642  15.6866110  41.8826437   3.7252677  16.2230147  41.5283298
  50.9818620  20.3544844  15.5450594  51.2817913  20.6858672  16.3914979
  50.5801815  21.1121977  15.1198936  57.4203873 105.5283451  22.3301530
  57.0657778 105.9126949  23.1318712  57.5896978 106.2780666  21.7596507
  32.9225779 101.4063549  23.8018084  33.4205317 100.7232571  24.2508578
  32.9873252 101.1793709  22.8741670  39.2633486 108.4177876  22.7352953
  39.7420382 108.1062603  23.5034347  39.8615646 108.2678795  22.0032430
   3.8925057  74.9714936  87.8132017   3.3881646  74.6692647  87.0578666
   4.7678643  75.1403512  87.4646808  54.7367150  35.4786147  26.8776655
  54.7293502  35.0295008  27.7229333  55.5748171  35.9406508  26.8592262
  88.5413045  10.5658473  18.8630855  88.2763070  11.3894499  19.2725921
  88.1284207  10.5839289  17.9997003  44.1881752  71.5342093  32.4929714
  44.2960930  70.7862282  33.0804324  43.9969110  71.1434698  31.6403437
  64.2634291   4.3721426  67.5295448  65.0524753   4.1782416  67.0235443
  64.5098370   5.1133479  68.0828333  79.0703392 107.8389359  40.4678392
  78.9678860 107.4929619  41.3544273  78.6975384 107.1626472  39.9022579
  11.4854079  55.6210126  91.4559521  11.2296086  56.4668836  91.8237861
  12.4046928  55.5205335  91.7030348  33.8056850  96.0001278  53.3984709
  33.7426639  95.1905346  53.9052391  32.9375362  96.1076641  53.0099010
  32.0469713 109.2841244  42.3687172  32.1662307 108.6813068  43.1026220
  32.0549321 110.1535130  42.7691364  47.7419233  97.6825619   0.1370044
  46.9902658  97.1071529  -0.0049394  47.8224277  97.7409840   1.0890221
  46.2373066 107.2589397  38.6871076  45.3122711 107.4886608  38.5989594
  46.6604233 107.6769638  37.9371357  80.0818366  15.3641070  46.9817591
  80.5356282  16.2033976  46.9048977  79.1707486  15.5996073  47.1569395
  53.1329590  28.7894572  51.9219398  53.0903846  29.7371329  51.7941475
  53.5170680  28.4554804  51.1112881 108.6857575  12.6840437  11.6534317
 108.2635230  13.2439269  11.0019112 108.3697289  13.0147017  12.4942791
  15.3997755 103.2619476  41.7608976  14.7506070 103.2463551  41.0576391
  15.8781636 102.4386024  41.6635609  72.0122403  32.1479262  47.0126343
  72.7313322  32.5536860  46.5283823  71.9192666  32.6859702  47.7988243
 116.7766208   5.4374445  11.4844573 117.5258941   5.9809817  11.2407589
 116.0311955   5.8458651  11.0442698  93.5744018  10.4261149  50.1606083
  93.6230773   9.5779742  49.7195530  93.5809916  10.2116908  51.0934591
 105.5324477  18.2543696  38.6742592 104.7738141  18.3528746  39.2495918
 106.1906547  17.8213252  39.2178273  69.9061722  13.7789668  28.5464859
  70.5027551  13.6305464  29.2801690  69.0356058  13.6136664  28.9084530
  89.9298286  98.6674309  47.1295452  89.2555809  98.3371830  46.5357780
  89.4745445  99.3074131  47.6766920  73.9921731  17.8081931  36.5895677
  74.8327178  18.1988371  36.8285465  73.8912410  17.0704974  37.1911097
  27.0355153 101.1342430  18.5364497  27.1971273 101.9204998  18.0149961
  27.3542023 100.4152679  17.9907906  31.7546606 106.9594955   5.5719781
  32.5315762 106.5355110   5.2074707  31.3504601 107.4014854   4.8253143
 109.6299952  10.0577200   3.2703060 109.4530267   9.6466864   4.1164517
 110.4401654   9.6465052   2.9690450  90.5036640  63.1159449  14.4335568
  90.6549740  62.2420645  14.7936487  89.5507050  63.1995392  14.4001889
 111.8787593  20.0160826  22.9949999 112.7903861  20.0608767  22.7066159
 111.9140166  20.2103652  23.9316130   0.7057250  17.2054232  53.2956743
   1.6167129  17.2614325  53.5841274   0.2865709  17.9780329  53.6746502
  82.7347093  96.1860024  38.4505892  82.8895833  97.1304940  38.4371209
  81.9673746  96.0771023  39.0123463  48.2187128  35.6815863  20.3140759
  47.8857613  34.8091960  20.5245781  47.9653072  35.8209205  19.4016039
  82.0427250  97.9664456  42.8441572  82.6949712  97.2944223  43.0421209
  81.2817966  97.7245842  43.3720970  -0.0021163  29.6435285  32.5983739
   0.8683473  29.6820450  32.9946566  -0.1572143  30.5307460  32.2743011
  26.7444134  38.8917589  14.3280649  26.9376087  37.9570746  14.4006681
  26.9039226  39.0984774  13.4071660  29.8189354  39.3599844  37.5436640
  29.0362287  38.8113880  37.4922395  29.6224213  40.1107836  36.9833803
  68.0380648  95.8715392  91.8007936  68.6441009  95.9212495  92.5400369
  67.3860185  95.2240325  92.0687582  21.5866756  56.2869835  22.4415255
  21.3768768  57.1702242  22.7450037  20.7613325  55.9516811  22.0913672
  17.9912293  56.7030907   5.1884031  17.2359431  57.2907209   5.1667494
  18.6825013  57.2168398   5.6060618  64.7326994  23.2394266  14.9103034
  64.8530054  22.7530313  14.0947199  65.4706001  23.8485432  14.9369907
   3.4554669   4.0811867  17.6081812   3.7716970   4.3449962  16.7441010
   2.5033158   4.0493199  17.5153136  33.1828332   9.6268380  23.0665874
  33.4315419   8.7663877  22.7289462  33.7886429  10.2347279  22.6426792
   7.7047598  41.3140154  30.5228996   7.6287442  41.9811153  29.8406744
   8.5931677  41.4196062  30.8632135  15.6766152  29.4141030  35.0631380
  15.0077879  28.9197755  35.5369973  15.1867199  29.9170780  34.4125605
  67.7104061  51.5519709  91.7563372  66.9761818  52.1660931  91.7551337
  67.5118368  50.9398649  91.0477270 116.6276583  37.5435448  50.3061724
 117.1286981  38.3356786  50.5003786 116.2249930  37.3041630  51.1409092
   2.9171777  51.0330772  46.1749554   2.7113783  50.4489374  45.4451227
   3.0657494  51.8852520  45.7651281 116.2795495  41.8729973  12.8931952
 115.9620180  42.4183416  12.1734679 116.3371147  40.9934664  12.5199091
  23.4121299  71.3875580  34.5235991  23.1620669  72.1683931  35.0175571
  22.6178861  71.1386108  34.0509105  47.9027348  91.4490987  93.5476813
  47.0236312  91.3810158  93.1751578  47.7641385  91.8061233  94.4249243
   5.0273716  34.0972614  22.7091479   5.6615061  34.5467806  22.1505451
   4.4269553  33.6727476  22.0963502 112.6861244  46.2205839   0.4415239
 113.1595137  45.4008484   0.5835461 112.2684711  46.4048338   1.2828615
  24.2587948  68.0728912  25.1746273  25.2105570  68.1703997  25.1451373
  24.0532756  67.5034714  24.4331717   5.6460482  35.9189105  29.4134021
   6.4703023  35.5582023  29.0867114   5.8342254  36.1639786  30.3193617
  31.0380507 100.4193783  27.3522067  31.7452192 100.1762390  26.7546892
  31.0588551 101.3761616  27.3711896  83.3500319  20.3278484  95.3707892
  83.9437544  20.0191011  94.6863915  82.5100958  19.9193134  95.1614174
  55.0615316  86.9880152  95.5031111  55.3081267  86.1786414  95.9507013
  55.1990455  86.7997695  94.5747335  21.5049744  34.0387249  65.3262520
  21.9523907  34.8691940  65.1638508  21.7536592  33.8034844  66.2201452
   0.6854133  33.3524847  11.2239969   1.3228185  33.2922006  10.5124402
   1.2039601  33.2380700  12.0203960 107.1613579  29.4857407   1.4680286
 107.1780770  28.7853765   2.1202879 107.9665535  29.9788308   1.6253585
  54.3411141  74.3806530  94.6062322  54.9162727  73.9730824  95.2537744
  53.8342982  75.0210870  95.1054444   9.1361058  48.3694792   5.7815415
   9.7283262  47.6645184   6.0433370   8.3616692  47.9189777   5.4446012
  26.2861228  40.9129572  15.9981477  26.5447474  40.1841688  15.4340458
  25.3292871  40.9080362  15.9722447  18.9426887  26.1010695  57.1253681
  18.2270539  26.2810993  57.7350283  18.6144233  25.3910804  56.5736485
   6.5491259  32.6023769  40.5020714   6.4943784  31.9571424  41.2069893
   5.6496119  32.9089856  40.3876305 113.9774310  46.4049196  17.7143836
 114.5941558  46.9801474  17.2616220 113.1352376  46.5782690  17.2937989
 108.1671208  27.2288275   3.4551239 108.7159514  27.1893644   2.6718873
 108.7313133  26.9093084   4.1592735   5.8232272  56.1176062  42.6983643
   5.1591015  56.2300873  43.3784485   5.9923065  55.1756001  42.6821709
  13.7382722  65.0938797   5.6584108  13.9605474  65.8185101   6.2429953
  13.1621730  65.4843712   5.0012487  10.0192690  40.2827787  38.6062145
  10.8046830  40.7567310  38.3328485  10.2841365  39.3629694  38.6111450
   4.1020840  58.3006477  46.9843674   4.2871252  57.6364660  47.6483345
   3.1499302  58.2838726  46.8876505  16.7153585  33.5881948   2.2476654
  16.2986875  32.8455758   1.8104783  15.9916246  34.1768885   2.4618632
  44.3345528  83.9724827  91.7588760  43.7363636  83.5370374  91.1515968
  45.1919167  83.5947514  91.5627177 107.0345443   9.3278277   2.3987611
 107.8426331   9.7873896   2.6268569 106.6119092   9.1546053   3.2399538
   4.3743265  66.1197042   2.3175807   4.2801869  65.4706907   1.6203329
   4.4267914  66.9581747   1.8588397 108.4518849  55.3437328   2.5607020
 108.7159270  56.2607098   2.6360041 108.0317455  55.1459599   3.3977205
  26.5659285  32.7322769  19.5232046  25.6860900  33.1091642  19.5146561
  26.7243671  32.5146890  20.4417801   3.9719877  47.9901600  34.4058156
   4.9135220  47.8653431  34.2867970   3.6865747  47.2141314  34.8880529
  20.1477385  57.6683903  55.0835037  19.3488300  57.3316097  55.4891586
  20.3935695  56.9980574  54.4459677   0.9684207  26.9975996   6.1539966
   0.4628233  26.7232180   6.9190580   0.3513233  26.9369960   5.4247850
 100.0205820  47.0248938  30.8375549 100.3486651  46.1360025  30.7016683
  99.7900968  47.0557928  31.7660761  97.6931166 106.6597052  26.2167382
  98.3627927 105.9950488  26.0555053  96.9664764 106.4111032  25.6454039
   4.0603742  38.6925435  29.3019342   3.9358571  39.6364665  29.4006014
   3.3318019  38.4114099  28.7484193   1.1786505   8.8307476   2.9347718
   0.8433373   8.2924896   2.2177812   1.0395264   9.7317731   2.6431739
  49.3659764  94.7289134  84.1175671  48.8053655  93.9724875  83.9450355
  48.9975744  95.4281855  83.5776301  30.9474325  57.2988224  11.0442901
  31.4335322  57.5600147  11.8264151  31.1898804  56.3831854  10.9062576
  97.0406842  92.3436474  21.3240504  96.6850554  91.8328439  22.0512652
  97.4070644  91.6897868  20.7286835  84.4607859  40.8304977  32.7694654
  83.8554817  40.2979422  32.2535038  85.1665979  40.2289915  33.0066323
 113.2612964  32.3572755  19.4919515 112.5507998  32.0187163  18.9471531
 112.8572192  33.0572772  20.0047398  53.8237619  39.5364070   9.3824476
  53.9288187  39.2156363  10.2781606  53.5792923  40.4562092   9.4845659
  11.4223909  51.9585228  11.1658978  10.5617023  51.7036486  10.8335030
  11.5939784  51.3458920  11.8810713 114.6181453  32.0787311  34.3751359
 114.4617876  32.0643520  35.3193688 115.5651357  32.1897960  34.2908406
  26.2765193  29.6729159  37.9193425  26.5962696  29.0790200  38.5985184
  25.6779027  29.1391492  37.3968649  90.6474834  29.6615076  53.7778664
  90.3294092  30.2309966  53.0773354  89.9406772  29.0303087  53.9129353
  17.5743091  31.3920712  43.8829136  17.3086882  32.2592616  43.5768795
  18.4364438  31.5302062  44.2751837 116.7667803  38.0304623  46.1926222
 117.3161261  37.6854825  46.8964958 116.0696267  38.5061860  46.6441679
   8.4480226  55.0791836  39.5105648   9.0320754  54.4844103  39.9810481
   8.1003338  55.6591368  40.1880598  19.4873559  39.1182232  37.5651526
  19.1930532  38.7586021  36.7283177  20.1175308  39.7976899  37.3254967
  16.7573850 100.1830912  83.5160192  15.8417528 100.2214385  83.2396527
  16.7165964 100.0905276  84.4678600  49.4095903  83.6542726  73.6464425
  48.4858286  83.4034825  73.6471959  49.7680669  83.2503868  74.4367595
  49.1748088  97.1928359  75.3426548  49.0982943  96.2636710  75.5595108
  48.2734173  97.4795724  75.1959987  71.5323346  70.7960678  88.9944776
  70.7062238  71.2526191  89.1536434  71.9511264  70.7520211  89.8540725
  38.9275908  31.9025588  18.5633171  38.1943655  32.1900272  19.1073513
  38.7969279  32.3519707  17.7283382  18.4077632  33.0246973  23.5209346
  18.6550176  32.9482412  22.5993872  18.3669412  33.9676166  23.6805320
 115.6955988  36.4565468  20.6458855 115.3075599  37.2275615  20.2321267
 115.9479618  35.8934999  19.9140906  87.5854664 104.4029241  20.8122420
  87.7219110 105.2864387  20.4701662  88.1166469 103.8424151  20.2466369
  16.1019063  57.4099541   8.9697951  16.4491618  57.2948122   9.8543221
  16.5549910  58.1831074   8.6333716   9.2053002  23.1966472   8.7123632
   8.2683265  23.1614709   8.5198146   9.3446183  22.4988222   9.3525690
  13.8972294  16.1723971  54.5333242  14.6521163  16.7491460  54.6505404
  13.1659734  16.6532147  54.9210215  33.3702612  69.6788073  30.7980061
  33.6786509  69.2081499  30.0236583  33.9876151  69.4354582  31.4878511
  62.8144550  27.9979467  30.0902081  63.1389189  28.0292463  29.1902232
  63.5583258  27.6803398  30.6020832   6.3059878  49.7656345  31.3661742
   6.3545197  49.0198374  31.9642210   5.4867679  49.6364737  30.8882332
 115.9320061  44.0006304  35.7747531 116.3331788  44.8617506  35.6574535
 115.7757292  43.6859131  34.8843813  33.8776231  37.0165443  20.7316566
  33.8544273  37.3347402  19.8291910  34.8008132  36.8221784  20.8934355
  33.1561040  95.3663970  89.4028767  34.0023192  95.1050831  89.0397431
  32.5640099  95.3714801  88.6507930  82.1599501 109.8471122  34.4308710
  82.6578765 109.9806763  33.6243582  82.8210896 109.8456019  35.1230597
 103.4985095  18.5746324  45.3015327 103.0463951  19.4139624  45.3872585
 103.7754517  18.3596933  46.1922312  60.8322065  66.7643071  81.6879578
  60.9969251  65.8507729  81.4543910  61.3825052  67.2678614  81.0880943
   2.6228550  26.4058590  31.3698816   2.2536317  25.5864263  31.0405850
   3.5210270  26.1827230  31.6142797  27.2252393  47.6385260  38.8837218
  27.1985960  48.4817600  39.3359089  26.5475988  47.1155167  39.3120909
  30.7401776  48.1231308  28.1436467  30.3884363  47.7388287  28.9466548
  30.2092290  47.7431154  27.4437070 113.9149486  26.6387200  29.1672778
 113.4488648  27.0895171  29.8713946 114.8306110  26.8909669  29.2862964
   6.2735397  39.8008561   4.2036778   6.5492940  39.3837905   3.3874372
   6.2938499  39.0963674   4.8513773  27.7609968  52.0413160   7.3354274
  28.1539893  51.4130449   7.9412824  27.5852728  51.5328455   6.5437156
   2.3679978  86.0989475   2.0768206   2.6606235  85.6453037   1.2863728
   1.8653788  85.4416466   2.5580227  93.3926993  30.4634523  43.0853081
  93.4680062  31.4107370  43.2002544  93.7599903  30.0947523  43.8886690
  16.5668535  61.5512609  46.0947418  16.7874110  61.5208244  45.1637983
  16.5258777  60.6328440  46.3613224   0.6049971  30.7502818  36.4692473
  -0.1276825  30.4964018  37.0304561   1.3777894  30.6529760  37.0256233
   7.6504719  55.3004646  24.6726823   8.3009791  55.8817530  24.2787552
   7.5176704  54.6126318  24.0203953   8.5459322  55.2127409  33.2613397
   8.7557828  55.1396751  32.3302889   8.0084044  54.4427490  33.4468460
   4.2396450  15.2373636  32.8765893   3.4351462  14.8275268  33.1944704
   4.4667077  15.8755815  33.5528684  75.4894226 100.5075360  74.7626014
  75.7232993  99.5818949  74.6939011  74.5470994 100.5294944  74.5959373
  68.2621806  97.8979445  75.0299831  69.1131084  97.5900651  74.7179456
  68.0145972  97.2702313  75.7088883   4.1523531   8.2427734  56.8804741
   3.8052115   7.3731077  56.6819668   3.4345049   8.8405740  56.6717672
  94.5988565  57.1841955  28.3676457  93.8217550  57.0243216  27.8321218
  94.2985969  57.7807236  29.0533757 113.1552278  45.8452082  60.6495953
 113.3658182  46.6642570  61.0979748 112.7973866  45.2817297  61.3356495
  88.3094614 104.2639685  93.2682651  89.1732996 104.4448901  93.6387846
  87.7021664 104.7448445  93.8305675 110.6694859  44.9767303   8.4384394
 110.2390068  44.1219378   8.4226984 110.0446540  45.5514622   8.8805920
  49.5879316  61.3355827  29.8500562  49.8817110  62.2374964  29.9784422
  48.7023640  61.4201403  29.4967222  65.1690549   8.9137019  37.5833154
  65.0289434   7.9751719  37.7088785  65.9536594   9.1093672  38.0955029
  25.8885098  67.0027018  27.6992989  26.3033557  67.0465326  26.8377829
  25.9269953  66.0762310  27.9368043 114.5218227  56.8661213  36.0267138
 114.1798403  56.6375065  35.1624131 114.5318110  56.0382032  36.5070081
 115.2008637  72.3481226  16.9106150 115.8859622  72.8127813  16.4300287
 114.9416834  71.6342592  16.3279831  19.9386168  79.2189693  35.0252151
  20.5794621  79.7654295  35.4801083  19.3817174  78.8722610  35.7222748
  23.0649090  88.5784531  11.3307285  22.1453881  88.7175846  11.5573466
  23.0839658  88.6142826  10.3743899  10.2943206 100.7057190  50.8582163
  11.0695899 100.3463364  51.2895298   9.6606922  99.9883270  50.8678436
  63.2672994 105.0160742  91.5506442  63.4954207 104.1844702  91.9661273
  62.8417485 104.7653771  90.7307129 115.8416577  48.2078314  22.2001266
 115.6952618  48.8843727  22.8612542 114.9760457  47.8274536  22.0509267
  90.1167362  97.4496842  59.0774937  90.1674526  98.3041192  59.5059772
  90.9556072  97.0328379  59.2743774  24.5324636  59.6706820   4.3875325
  24.8889446  58.9103651   4.8469537  25.3030062  60.1427364   4.0718442
  34.6482205  51.9506645  27.6116681  34.5005345  51.9916201  28.5565186
  34.2317820  51.1329460  27.3393750 100.4713046  13.0891647  86.7463388
 100.5355679  13.8265886  87.3532231  99.6140301  12.7038421  86.9275518
  94.7867679  17.0484056  93.6818826  95.1849233  17.2739782  92.8411560
  94.2050587  16.3149108  93.4822874 107.5154715   7.4315023  46.5886545
 107.5286078   8.3885509  46.5778112 107.1153366   7.2069621  47.4287176
  64.1853278  97.0399619  94.8076267  64.6436804  97.1954013  93.9818034
  63.5029929  96.4058877  94.5871811  48.2778931  73.2780457  20.3254580
  48.3359385  74.0719509  19.7938800  49.0669107  72.7833796  20.1041245
  30.5590940  39.4757175  30.0385737  30.1478744  39.9616671  30.7534051
  31.4731932  39.7594500  30.0508237   3.5806817  73.8202429  30.2842140
   3.7073231  74.1155863  31.1858606   4.1700611  73.0716276  30.1923800
  37.3887777  46.0054398   3.3924052  37.4184537  45.5361843   4.2261612
  36.7097569  45.5564165   2.8888792  18.4273195  23.8332558  55.3988934
  18.0846632  23.1741333  54.7952557  19.1256535  23.3829093  55.8740234
   6.5506816  51.9611931  35.1265001   6.6854256  52.6465607  35.7809782
   6.3870674  51.1694670  35.6389809  85.4398006  11.9245757  91.4142756
  85.0438934  11.0665216  91.2618663  86.1519884  11.9763841  90.7768305
  18.0356693  55.1361752  41.2615871  17.1251929  54.8436689  41.3028955
  18.2837319  55.0183296  40.3446341  75.1601379  74.8771144  85.6222947
  75.8013361  75.4899765  85.9821506  75.4799979  74.0140665  85.8851035
  48.7252903  38.4618497  24.5444942  48.3379555  38.5488033  23.6734939
  49.6643209  38.5807920  24.4019938  36.4811301  46.3871241  10.6824279
  36.2966013  46.8423748   9.8608887  36.2968063  45.4671240  10.4930782
  28.7068701  71.4640045   9.5167589  28.9418459  70.5940580   9.8395771
  28.9218521  71.4396048   8.5843325  12.5276399  63.8061476  47.3911619
  13.1260920  63.3186436  46.8250990  11.9531989  64.2745399  46.7854691
  24.6371055  34.0372968  35.3411961  25.5103469  33.9927363  35.7306767
  24.7921252  34.3064380  34.4357896  93.3587580  33.9494348  19.8529434
  93.3937603  33.6376667  18.9486170  94.1627651  34.4571733  19.9625337
 105.0316721  61.3536501  23.2164764 104.3439227  60.6899595  23.2689166
 104.5690518  62.1606302  22.9906511  34.3458962  56.9186115  46.2466097
  33.8946271  57.4834394  45.6192732  34.3679333  56.0603142  45.8234358
  25.7597804  71.0192156  58.3194208  24.9322152  71.4604998  58.5108232
  25.7297158  70.2171087  58.8409090  15.2518535  68.2813406  25.1862550
  15.9056604  67.6533175  24.8790884  14.9728882  68.7427902  24.3953824
  27.0824051  75.5371618   6.2874627  27.5086117  75.3121185   7.1144658
  26.8947959  76.4728689   6.3615537   2.5013134  57.4082375   4.4289610
   3.2701722  57.9588556   4.5769715   2.7966180  56.7480803   3.8018900
  38.0356598  44.1055632  24.4000173  37.7942777  44.4932508  25.2412462
  37.5970721  44.6534824  23.7491274   1.9184571  20.0884666  90.8535601
   1.1145288  20.2723874  91.3394655   1.6167480  19.7884216  89.9961348
   0.0540924  73.7304688  15.2978027   1.0053940  73.6490726  15.2297449
  -0.1716065  74.4258595  14.6799660  29.3542027  79.7992611  37.6639080
  29.1755199  79.0550280  38.2387257  28.5302567  79.9464273  37.1994853
  97.3097157   3.7931623  86.8199493  97.2471082   3.8826884  85.8690037
  98.2119715   3.5138358  86.9753368  35.5522418  65.8865452  16.0208750
  36.0567594  66.4606094  16.5971947  36.2103629  65.4587555  15.4730582
  15.1607394  56.4049673  25.9400082  14.6038091  55.6524849  25.7404327
  14.5718777  57.0355082  26.3546062  19.7336352  26.7279100  50.7230139
  19.6369433  26.0281229  51.3689041  20.5895233  27.1122742  50.9126234
 110.3271138  77.5148487  15.3704178 109.8898225  77.4369812  16.2183237
 109.6121489  77.5703430  14.7364008  91.7069482   5.7925119  81.7915543
  92.4839675   5.8395518  82.3485644  91.3010299   4.9554433  82.0169063
 103.6893361  33.6175251  34.8679209 103.2140034  34.4252443  34.6732926
 103.0142229  32.9390454  34.8789358  29.8701382  64.2008781  24.9523544
  30.3871727  64.8046303  24.4190669  30.4135132  64.0365744  25.7230568
  15.0740707  21.4082336  50.1402807  14.8607290  21.5025568  51.0686207
  14.2282844  21.4533782  49.6943665  92.6921397  54.9044228  70.2437735
  92.0761209  54.2735291  69.8713160  92.1934658  55.7192469  70.3038740
  97.8650879   2.3541249  74.4905253  98.4936368   3.0596675  74.3376537
  97.0177209   2.7336539  74.2578049  24.7771597  73.9823198   1.6295366
  25.0763631  73.1718540   1.2174049  25.2177358  73.9957809   2.4792081
  19.0288329  35.5305409  34.0476155  19.9582362  35.6679296  33.8644052
  19.0156353  34.8542452  34.7248745  92.5013184  20.1922216  66.9236155
  92.0013487  19.5673742  66.3984223  92.5880300  20.9621610  66.3615580
  18.2998407  36.2660933  14.9260795  18.7014294  36.8837905  14.3150091
  18.8687289  35.4968190  14.8975074   7.2951174  77.1889353  58.6896181
   7.8687274  76.8515491  58.0015945   7.6270795  76.7913294  59.4945669
 114.0693172  28.1746340  50.4455519 114.1289153  28.8700151  51.1006308
 114.1772690  27.3652172  50.9449768  96.7633992  28.2925439   0.3606965
  96.0184675  28.0832672   0.9241804  96.6160279  27.7772307  -0.4323776
  32.7731729  71.5187263  13.9808941  32.4482036  71.1880875  13.1434548
  33.7154174  71.3522196  13.9547586  18.0019891  60.0835609   8.5613936
  18.4662950  60.4066467   9.3335760  17.1280956  60.4682302   8.6290085
  15.4235435  54.0017796  29.1350794  15.1189363  54.8391390  29.4847584
  14.6243703  53.5514498  28.8616562  71.7428391  92.6750231  77.4107619
  71.7028516  93.5647441  77.0600040  72.6756590  92.5162006  77.5551684
   9.5744085  72.9137230   5.4684991   9.5659536  73.8660812   5.3727090
  10.4582369  72.6546192   5.2078348  44.9077034  45.7322264  22.0234966
  44.9582386  46.5446806  21.5199161  44.1195774  45.2973175  21.6980028
  15.7985926  24.0402436  24.4010186  15.5109823  23.1272840  24.4053674
  15.5503881  24.3736601  25.2632618  81.7137139   6.0266008  86.1368193
  82.1786498   5.8310355  86.9503428  81.3736510   5.1804437  85.8459474
  27.7120757  42.7785969   5.6757933  27.8172255  42.0605898   5.0515801
  27.3698974  42.3607397   6.4660740  35.5919649 105.8426333  90.4393621
  35.1539155 105.6267405  89.6161159  35.6808644 106.7955113  90.4206522
  13.5967386  41.8732405  53.9637899  12.9658580  41.5827036  53.3051491
  13.5610783  41.1998081  54.6430874  33.3783078  62.3153782  25.9345579
  33.3983040  63.0868721  25.3683138  33.3519244  61.5744925  25.3290677
  65.4843610 104.1950465  83.3809395  66.1274212 103.8850833  82.7432676
  66.0044377 104.4375373  84.1470666  50.0493813  30.1385379  19.8337793
  49.4720602  30.2127957  20.5936623  49.5145273  29.7062778  19.1679609
  91.4338499  65.7512808  19.6965551  91.5339428  65.3269768  20.5487156
  91.8934708  66.5857983  19.7890532  31.0352755  25.2812648  41.7036533
  30.8394837  24.3626237  41.5192652  31.9472146  25.2780914  41.9944906
   6.4294034  66.4330769  37.1436954   5.6941271  65.8990288  36.8430376
   7.1869504  65.8506012  37.0882249 116.3652409  34.6117163  18.4548259
 117.1350832  35.0532603  18.0961978 116.7215811  33.9713359  19.0705907
  96.8202048  33.9898562  35.4740214  97.5889426  34.4524574  35.8076000
  96.2381488  34.6841836  35.1652241  18.6018848  87.2393703  14.8868585
  18.6664522  87.7385139  14.0726542  17.8947771  87.6639366  15.3726327
  38.8549471  57.6416302  21.2447286  38.9638090  56.9469070  20.5953145
  38.4076023  58.3434820  20.7719493  37.0275760  71.3544321   1.5620510
  37.2178626  71.5551424   2.4784237  37.7167797  70.7429075   1.3026915
  20.4394722  42.1472692  26.1522937  21.3392496  42.2722101  25.8505988
  19.9008286  42.3357916  25.3838181  21.8657017  43.4126663  10.9836257
  21.6398787  44.0541792  11.6571987  22.3965120  43.9020395  10.3551447
 113.2207468  44.0139484  41.2022543 112.8568148  44.7777605  40.7546186
 113.9825797  44.3524504  41.6726351  87.9069661  26.6619958  95.4202808
  88.1919157  26.2613572  94.5989859  88.6738538  26.6102304  95.9907511
 117.0517596  18.3677232  28.8736558 117.1098363  19.1987538  29.3450856
 116.4549621  17.8352427  29.3995166  16.5981662  84.7722054   7.5532913
  16.9592226  85.1598644   6.7560536  15.6499970  84.8004818   7.4251986
  17.8397393  79.6780682  54.7523546  18.2742703  78.9203262  55.1438189
  18.0499589  79.6196890  53.8203526   3.6929831  30.5942893  25.1089644
   2.9505575  30.9970045  25.5593610   4.4577155  31.0664272  25.4383636
  77.4063332   7.3226823  93.7582719  78.0649724   8.0032624  93.8969754
  76.6207498   7.8003539  93.4919630  77.7483273  31.0292459  47.9992104
  76.8217182  31.2539005  47.9146194  78.1945658  31.8736029  48.0637217
  28.0975890  40.9257078  10.0948608  27.7880549  40.1310349  10.5295062
  28.4702277  41.4548111  10.8001423  31.6899419  58.0186033  20.4708934
  31.0916495  58.2328653  19.7550941  31.3279319  58.4750509  21.2303925
  15.3992295  36.0118413  14.1968942  15.0780237  35.3611851  14.8211575
  16.3287330  36.1054325  14.4054532  19.1776919  22.0375991  46.3189507
  18.5519528  22.7414703  46.1479235  19.9801779  22.3184443  45.8792067
  44.9147385  99.3747330  84.6856995  45.8086895  99.7089196  84.7592087
  44.5219736  99.5513154  85.5405601  37.2555494  35.6691980   5.6007934
  38.1822634  35.9020853   5.5442733  36.8022442  36.3776898   5.1438653
  25.7935643  45.0182295  74.8421669  26.7153502  45.0754070  75.0937128
  25.3523779  44.6845293  75.6233358  21.3694072  34.0582132  25.6796575
  22.0221400  34.1545653  26.3731194  21.0034418  33.1841493  25.8149719
  31.4095736  31.4395213  25.1026845  30.9487391  31.4625812  25.9413314
  31.1691880  30.5955267  24.7204280  49.9257135  28.5952663  40.2357626
  49.6056318  27.6944304  40.1880503  49.2207098  29.1203260  39.8569274
  28.2793403  33.8882279  24.1477704  28.3929563  33.2933831  24.8890424
  27.5259781  33.5376406  23.6726236 112.9118782  81.5829277  29.6509242
 113.8178727  81.8339729  29.8308754 112.3899236  82.3097610  29.9908018
  30.3691411  48.8625383   4.0638730  30.3302741  48.7602186   3.1129518
  31.2943935  48.7460661   4.2796811 113.9028099  57.1095943  25.5631113
 114.2490282  56.8923426  26.4286542 113.3598953  57.8841591  25.7098174
 111.4877372   9.0436178  26.3358378 110.7476866   8.8051212  26.8941188
 112.2590738   8.8857442  26.8802166  30.2077889  49.7424841   7.0223039
  30.7570267  50.4800463   6.7566538  29.6410441  49.5819378   6.2678134
 116.9403183  45.2119923  27.2377825 117.1812835  44.9030018  28.1111050
 116.2086267  45.8103561  27.3888612  23.7207627  38.7621999  14.0524375
  24.0273046  39.5879626  13.6777675  24.4972944  38.3831143  14.4641745
  54.6320438  63.1151533  25.7467413  54.0259361  63.2578754  25.0197649
  55.2549982  62.4681807  25.4156995  31.5389442  34.2138124  33.5740614
  30.9636307  34.9487853  33.7863374  31.0992265  33.7665200  32.8510070
  36.9519043  21.4834905  31.0439682  36.7755365  20.6219077  30.6660771
  36.1971688  21.6573811  31.6064358  10.7068872  63.8643551  10.7113671
   9.9765307  63.8992500  11.3290989  10.6161261  63.0142164  10.2809477
   5.0538856  63.6106873   1.3392779   5.6730193  62.9345894   1.0639570
   4.5931172  63.2245159   2.0841241 105.9850031  42.7907038  25.4880929
 105.7632094  41.9282722  25.1370192 105.4849964  43.4042549  24.9497795
  13.5305846  61.4119148  18.9658034  12.7797163  61.8920088  18.6166072
  14.1226792  61.3176918  18.2196283   6.4393890  23.2835102   7.6101553
   6.7957479  24.0365219   7.1387607   5.5947387  23.5870337   7.9428273
  51.9646788  73.4750605  25.0063658  51.5045643  74.2773771  24.7597647
  52.8608227  73.7587833  25.1871014  92.0775001 107.0847798  77.8747304
  92.5836914 106.5256692  78.4641393  91.4377230 107.5142480  78.4426005
  62.7585411  22.4201226  37.4784660  62.4616337  21.8358040  36.7808628
  62.7322865  21.8815851  38.2693648  27.5657868  54.0603065  48.9301729
  27.1909928  53.5965538  48.1813765  27.1297097  54.9123955  48.9268923
  32.4726367  50.1432514  14.5882320  32.5528049  50.0740910  15.5395579
  31.5792394  50.4557037  14.4452429   9.9245334  65.1701641  22.0855999
   9.9043190  64.3797112  21.5461493  10.6143284  65.7079411  21.6967416
 111.5670019   3.9034694  42.2896194 110.8838993   3.5741270  42.8736877
 112.1224465   4.4438922  42.8514528  96.5188604  82.7843857  21.5273070
  96.3447576  83.7146950  21.6703248  97.4299341  82.7533340  21.2353897
  24.5043421  31.2939191  66.0218048  25.0666904  30.6137109  65.6512451
  24.7482538  32.0899320  65.5494642   0.1259199   9.4676149   5.5125141
   0.8302066   9.3510568   4.8748413  -0.6702236   9.5180464   4.9835110
  27.3007846  59.0706158  21.9954777  28.1617498  59.2987967  21.6449022
  26.6810346  59.5120955  21.4147544   9.7145569  59.5386791   2.1848489
  10.5113673  59.5717716   2.7142176   9.4165838  60.4473734   2.1434681
 114.4964660  52.2296381  45.3541470 113.6709824  52.5970984  45.6700277
 114.2367878  51.4680529  44.8357010  43.8252544  69.9497843  38.8644886
  43.0467606  70.1077318  39.3985581  44.5134401  70.4644012  39.2861557
  38.9891219  61.1832809  15.4996502  38.4737182  61.8884420  15.8912361
  38.7323904  60.4001570  15.9865141  12.5566649  23.6924958  43.4747505
  13.2373869  23.0912709  43.1724596  12.9015899  24.0538096  44.2912769
 106.0781115  83.9813328  15.1247466 105.8021861  83.1521797  14.7340989
 105.3493601  84.2330933  15.6919956  55.2016651  22.3868550  90.8054505
  55.6794082  23.0739536  91.2700917  54.2872798  22.5200547  91.0552336
  69.1726595  32.3926306  26.3706326  69.8540693  31.7206335  26.3889766
  68.5042244  32.0399618  25.7832241  32.3262382  73.6032629  52.6465511
  32.6482987  74.3296385  52.1127987  32.1443939  73.9957237  53.5004473
   2.5002193  59.7880554   9.1387427   3.2770845  59.2479658   8.9937705
   1.8034217  59.3386412   8.6604822  24.7231054  54.9404621  10.6763196
  25.3215170  54.2864847  10.3151488  24.2386794  55.2666092   9.9179041
  78.8950556 105.4623748  80.1467116  79.6195858 104.8635483  80.3275247
  78.7931531 105.9658147  80.9544201  64.0714710 103.5539103  86.2629725
  64.8097794 103.6402322  86.8660303  64.3595617 102.9027034  85.6233163
  35.0199931 102.5144244  93.1412406  35.9533619 102.7263499  93.1293048
  34.8171701 102.3780299  94.0667084  56.7712975  58.7808847  21.3857698
  56.0588074  58.2285833  21.0639715  56.9479752  58.4540749  22.2679329
   3.2925037  56.7662859  36.4585710   2.7245569  56.1252451  36.0310960
   4.0016520  56.2448454  36.8346572   6.0986161  67.9219246  20.4183817
   5.2966511  68.1343794  20.8958197   6.5297109  68.7663221  20.2865624
   4.4160652  65.0087929  36.1128354   3.8367572  65.2385569  35.3863072
   3.8268620  64.8701286  36.8543482  19.3108189  50.7377815   0.5212086
  19.4061887  51.6874170   0.5942083  18.5959530  50.5221176   1.1201142
  23.5598636  46.7285204  30.0862598  23.2786608  46.8904591  30.9867764
  23.1451535  47.4248362  29.5769548  11.8693900  70.1078367  29.3953919
  12.1437287  69.3537092  28.8736057  11.3085079  69.7365904  30.0764322
  50.2026081  59.1886377  25.5958414  49.3243217  59.3470287  25.9418964
  50.7907248  59.4809771  26.2921810  97.1715587   3.0313221  48.5063744
  98.1081145   2.9618359  48.6914873  97.1131080   3.6839598  47.8086042
  11.4540225  27.1676721  72.3230882  10.7310515  27.0347871  71.7099925
  11.4796620  28.1144513  72.4615856   1.0817790  29.6116352  13.3036399
   1.5647905  29.7787023  12.4943078   0.1804226  29.4623351  13.0181611
  85.1950973  18.7825288  87.4964614  85.5105137  19.2025842  86.6962744
  85.9887808  18.5963859  87.9981072  82.2472494 104.0463114  79.0657289
  82.4657743 104.9133969  79.4072576  81.5868824 104.2132331  78.3932038
  87.5830513  40.5950642  15.7376277  87.3973971  41.4118862  16.2008369
  88.0482774  40.0569296  16.3781011  75.1336535  15.3737296  71.2243648
  74.6623581  14.6454515  71.6289969  75.4584947  15.8886804  71.9629689
  29.1718817  37.8966832  28.3873534  29.0598297  38.1657743  27.4756145
  29.4707203  38.6878872  28.8355970  26.7685556  46.3569355  31.8500185
  26.2642074  47.1095991  31.5412188  27.0649958  46.6096973  32.7243567
  15.5169725  59.1541815  46.9321442  15.7908237  58.3483410  47.3701620
  15.2729440  58.8759232  46.0493898  27.7514815  37.7058339  36.5534902
  27.1436572  37.3299098  37.1902490  27.2665024  37.7020216  35.7282543
  13.0179429  78.9218473  22.9844880  12.9058707  79.4680071  22.2064257
  13.9662826  78.8376093  23.0834174   4.0769053  45.2388859  16.9125271
   4.7862637  45.7896042  16.5812385   4.0640363  44.4846821  16.3232517
  13.2713068  43.7784719  27.8641963  14.0500331  43.7859821  28.4207582
  13.5966456  44.0088463  26.9939590 114.8221170  13.8533344  64.3393727
 114.3044817  13.6525144  63.5596581 115.7163703  13.9551152  64.0135141
   4.0071416  46.8580246  72.8679895   4.7664288  46.3807058  72.5335073
   3.7518385  46.3795185  73.6567116  54.2332607  90.3846098  81.5777691
  55.1204496  90.7155419  81.4377304  53.8973837  90.9020067  82.3096974
  48.2461405  65.0475121  28.4175658  48.2263327  65.9481621  28.0940366
  49.0917921  64.9702406  28.8593078  35.2912140  41.6175079  17.4993980
  35.5072284  42.5011921  17.2016191  36.0555601  41.3417006  18.0052984
  42.2948456  23.4565902   7.7879006  41.6071558  23.6374617   8.4286797
  42.9544497  24.1316414   7.9474634  40.5860090  37.7822804   7.1736956
  40.1225138  38.4044695   7.7343047  40.7799053  38.2761145   6.3769740
 116.9727377  49.3860960  34.5665836 116.3207711  50.0629663  34.3848825
 117.4772993  49.7311258  35.3032017  32.9424429  38.2590604  12.8251553
  33.7239122  38.7705040  12.6154852  32.3334503  38.4487271  12.1114445
  14.9710858  79.1213608  18.1688666  14.1065204  78.9571953  18.5454392
  14.9993289  80.0691605  18.0380905  19.3044960  58.7940598  18.3160138
  18.7014413  59.3324757  18.8285208  18.7549150  58.1010532  17.9500461
  19.9555314  50.1163006   7.4880046  19.3437862  49.9419212   6.7727494
  20.2470756  49.2494583   7.7705169  24.8345065  87.3129177   7.6041085
  24.0301180  87.6629925   7.9870510  24.5622683  86.5016460   7.1752161
  49.0605307  75.9357500  18.9649415  49.1682005  76.3013983  19.8429728
  49.9513388  75.7340050  18.6786115  13.4962380  38.7843513  48.0866909
  14.2145610  39.2368412  47.6445436  12.9714274  39.4864869  48.4711504
  20.4808593  51.3900805  52.3694801  20.4433298  51.4636898  51.4158535
  19.6776772  50.9260273  52.6056767   6.5661794  32.0938039  12.7049029
   7.0644009  32.2704053  11.9068933   7.0227134  32.5871348  13.3863950
   6.9695044  57.8142023  39.3437457   7.7812743  58.3044910  39.4736671
   6.5646553  58.2200384  38.5771775  45.7087135  42.5943327  22.9269266
  46.0626078  42.9619694  22.1170926  46.4801741  42.4029541  23.4602690
   0.4086941  66.1165476  16.3147068   0.6274687  66.6840172  17.0538616
   1.0154452  65.3800964  16.3903487  18.5491776  78.9768076  13.5641992
  18.0030048  79.7559595  13.4600186  17.9280770  78.2714415  13.7456346
  27.6352644  81.5808201  30.7938600  28.1025338  80.8096600  31.1151123
  27.8497815  82.2700024  31.4225507  55.4310322  30.1310110  33.3987021
  54.9933577  30.2910399  32.5626040  56.2396097  30.6406999  33.3471894
  18.9755988  81.9427109   1.9417995  18.7587273  82.7083206   1.4097735
  19.7399426  81.5602779   1.5108095  55.8797646  26.0075998  36.0290313
  55.7306290  26.9301939  36.2359405  56.7179203  25.8017540  36.4429808
  18.4524870  81.6119480  32.6744103  18.1678677  81.4865112  31.7691517
  17.6444817  81.7841244  33.1578517  15.6297803  46.7797852   3.7025270
  16.1411357  47.3525143   3.1309277  14.8836541  47.3151493   3.9725500
  18.2574534  81.8251228  26.4293671  18.3355021  82.6119232  26.9688916
  17.6316297  81.2737656  26.8990254 101.4007526  88.1363678  33.0774713
 101.9242471  88.0474949  32.2810483 100.4982238  88.0055046  32.7866983
  18.0972886  74.7424650  16.3959789  18.0299175  75.6930971  16.3065898
  18.3971655  74.4418859  15.5381000   7.7117467  53.3835459   9.8379958
   7.5220424  53.0359316  10.7094359   8.0507863  52.6334381   9.3495047
  78.2811642  57.6111841  17.6048613  77.5607681  58.2234621  17.7544594
  78.4381485  57.6519442  16.6615021  49.8079055  90.8666468  74.5595284
  49.0002125  90.8254362  74.0475078  49.5852559  90.4500128  75.3920408
 115.4639156  74.2481041  30.5558681 115.2388115  75.1626825  30.3852534
 116.3330280  74.1393232  30.1698089  21.4093333   5.0724210  94.3280082
  21.7602855   4.2833556  93.9151599  22.0424443   5.7572593  94.1126011
  62.4363201  78.3057762  94.9158760  63.2744067  77.9493547  94.6212460
  61.8064945  77.6039887  94.7514111  41.1013699  18.3709764  15.3757691
  41.1601400  17.7928841  16.1364186  40.4257631  19.0072620  15.6101453
  29.9541140  71.4997387  19.8723519  30.5107927  70.7736444  20.1536584
  29.3238926  71.6082430  20.5845881 109.4200450  90.6448269  27.6159263
 109.4850760  91.5633774  27.8772092 108.5113352  90.4071331  27.8002667
  58.9351225  68.0109072  13.3640730  59.2945576  67.6437187  14.1716659
  59.5391083  68.7163305  13.1321108 106.7267691  24.2755737  71.6657038
 106.5656387  23.4079351  71.2949272 106.3205873  24.8805036  71.0449715
 108.7498557  27.2500982  91.6742878 108.6407291  27.8716935  90.9546040
 108.0967080  26.5710534  91.5053912  10.6683427  14.5221795  90.6123598
  11.0917646  15.0375022  91.2989383   9.8425370  14.2358722  91.0026194
  80.7575422  78.3810806  22.3103452  80.4642134  77.7855539  22.9999399
  80.6197935  79.2555380  22.6744652  25.1164174 100.3607750  49.6099901
  24.6082973 101.0268688  50.0729847  25.3708839 100.7815361  48.7887478
   0.6800800   5.6722774  89.7423001   1.3901597   6.0389032  90.2691801
   0.0983697   6.4138307  89.5751389  49.6676111  17.5365293   5.1536971
  50.2565956  17.5964689   5.9058535  48.8807631  18.0078483   5.4274809
  55.6399345  87.3135281  13.7964714  54.7182322  87.5652313  13.7386298
  55.6549883  86.6059017  14.4408870  38.5324216  54.2158175  17.9108465
  39.0996456  53.9640331  17.1820855  37.6633954  53.9057064  17.6561809
  29.0699220  39.7899055   6.1365402  29.9588871  39.7582197   6.4900500
  28.5746408  39.1756773   6.6784358   1.0556266  63.6879730  31.4842534
   0.2998246  63.3480358  31.0052538   0.6803498  64.2859316  32.1306610
 114.3737387 103.4027481  35.1142740 114.3548843 102.4602127  34.9483824
 113.9188232 103.5080147  35.9498572  19.3242133  51.2529182  14.0053928
  20.0902152  51.0674143  14.5485878  18.5949588  51.2898064  14.6243107
  80.9273263  20.3744115  90.0144549  81.0292538  20.5612935  90.9476848
  80.6758785  21.2133731  89.6282520  32.1433282  72.1113682  31.2906957
  32.7085948  71.4555311  30.8825493  32.6886487  72.5082588  31.9699097
  23.1794047  48.9206696  28.5893345  23.6430144  49.2970753  29.3374085
  23.8671827  48.7351179  27.9499865  21.6425729  32.8113699  56.0510159
  21.0904646  32.4770641  55.3441572  22.4382448  32.2812939  56.0045719
  65.7326013   2.2415389  86.9386573  65.8926469   2.6902761  87.7688702
  64.8186952   1.9615926  86.9900061   7.7288812  87.2627258  38.9205527
   7.7021039  87.5411701  38.0051374   7.8982550  86.3215160  38.8797498
  35.8099556  66.9566917  11.4522266  35.4866910  67.8576517  11.4510465
  36.7242384  67.0306301  11.7258167  43.5715008  54.0509939  18.6846769
  44.4618702  54.4008160  18.6514139  43.3474159  54.0544558  19.6152699
  88.7233257  16.4695825  92.9326393  88.9491629  17.3992290  92.9641219
  88.0304157  16.3691940  93.5853480  70.1881075  78.4802628  28.9966702
  71.0718012  78.6358070  29.3300200  69.8228455  77.8197956  29.5853972
   7.9947925  73.6044550   7.7336913   7.3311043  73.0137968   8.0898833
   8.4560305  73.0797386   7.0793498  47.7813578  59.4405651  36.5771317
  48.4440279  58.8281822  36.2576199  48.2302904  59.9479151  37.2533584
  31.7472553  75.1618671   9.6824372  31.1802483  74.7598648   9.0243155
  31.6048908  76.1027241   9.5787394  56.5022707  48.4997940  32.6420045
  56.1617041  47.6648092  32.3210001  57.3697662  48.2880116  32.9867244
  28.2691842  24.0903272  88.4848149  28.3447295  23.3850183  87.8421123
  29.0374070  24.6396674  88.3289738  99.0790528  83.2104874  20.5340981
  99.5933562  83.8010406  21.0845256  99.6811526  82.9462814  19.8384655
  29.9588799  71.2229156  41.7348337  30.8875132  71.4534044  41.7075157
  29.9036431  70.3943777  41.2586975  19.2353201  99.5030022  18.8631129
  18.5748482  99.1840172  19.4781351  18.8282979  99.4048595  18.0023384
   5.5540925   2.4134626  94.6237941   6.4676362   2.2805585  94.8767988
   5.3144580   1.6105022  94.1611222  11.0459399  76.1509752   5.7545453
  11.7949522  75.8385849   5.2469778  10.2972555  76.0426950   5.1680487
  23.7881970 103.2166195  22.8121185  23.3528852 103.6325455  22.0679832
  23.5607076 103.7674427  23.5611653   9.6659559  71.1991882  21.4975166
  10.3395939  70.6669235  21.9207597   9.7321349  72.0532703  21.9245958
  69.4171381  56.6584158  22.5102544  69.4852161  57.2024822  23.2948494
  70.3131390  56.6042328  22.1778774  59.7137737  68.8127708  41.1370420
  59.4204092  68.6668825  42.0364237  59.3854189  69.6844006  40.9164143
  12.0958149  51.1126852  36.6934466  12.9021931  51.6279840  36.6720915
  11.4662766  51.6322136  36.1934400  21.5766549  69.8721027  43.4066200
  22.0664096  70.6944132  43.3932877  22.2229433  69.2124701  43.6584663
  47.8565216  15.3512216  28.3549428  47.8530836  15.7659090  29.2176461
  47.0182419  14.8916578  28.3067608  56.9963360  42.4112177  26.8503594
  57.5893450  41.6827774  27.0345974  57.1440125  42.6124477  25.9262753
 115.8188541  64.4567013  76.4190149 115.9109779  64.3024874  77.3592043
 116.4555482  63.8664436  76.0159636  30.0901389  72.3598814  59.7626781
  30.7441926  72.7550364  59.1862202  29.8135400  71.5670919  59.3031025
  19.1284156  76.7362213   3.8520360  19.2717779  76.2268925   4.6496990
  19.9781525  76.7354059   3.4113801   2.8599063  83.3046913  22.1277046
   2.7793816  83.9243889  22.8527713   2.0275205  82.8320980  22.1229815
 113.9767086  33.6997499  77.7555104 114.7455799  33.1998719  78.0297227
 113.6640035  33.2475652  76.9719406  37.1378636  68.0194187  24.5456696
  37.6375794  68.8218069  24.6962905  37.0160365  67.6457310  25.4184532
   2.7221099  44.5463228  32.7154446   2.9851633  45.1477575  32.0187998
   3.1697398  43.7266016  32.5058770  11.2515736  62.6952314  50.6174374
  10.7907915  63.5340977  50.6025982  11.4727175  62.5272036  49.7014189
 107.3243939  64.7547817  13.0547905 106.7133003  64.0221405  12.9771030
 106.9456535  65.4417706  12.5063074  73.4288263  88.4427166  15.7288229
  74.2801523  88.3848476  15.2950895  73.0318260  89.2373276  15.3721499
  63.3468390  70.7887268  49.1692305  62.7573156  71.3411808  48.6559248
  62.7861452  70.3983164  49.8396301  40.7962179  60.0839901  28.1103420
  41.1421633  60.9372663  27.8486800  40.6376028  59.6264219  27.2846842
  33.3282304  55.0691843  24.4122386  33.4624147  55.3657198  23.5120773
  32.5051093  55.4784632  24.6790576 111.3669013  91.1929893  66.5086412
 111.9266301  90.5550766  66.9513607 111.9025772  91.5211964  65.7864428
  28.0324054  74.5078659  70.9989166  27.3990774  74.8570585  70.3718662
  27.5138187  74.3120766  71.7792797  33.7452507  78.1638575   7.9830390
  33.8749623  77.2433186   7.7549779  34.5498157  78.5969400   7.6978201
  33.7633348  75.3425503  39.3237662  33.4087157  74.9450493  38.5284877
  34.1020918  76.1906624  39.0370822  54.9226284  75.3703642  17.2993851
  55.6905460  75.7709217  17.7069259  54.3076563  76.0946941  17.1836889
  22.4462175  48.9555311  57.3333406  21.6720676  49.4528246  57.5972033
  22.3220921  48.0921364  57.7275133 111.2783014  78.8023949  38.5392404
 110.6642335  78.7703562  39.2728090 110.7335144  78.6632299  37.7645969
  36.7424059  20.9449673  15.2441740  36.2765455  21.5231562  14.6401000
  36.0535431  20.5577612  15.7843328  47.1526480  77.1198797   9.2492115
  46.6809511  76.3149691   9.0350807  47.4455738  77.4581528   8.4030449
  57.2404242  68.7964249  33.1478286  56.6792488  68.2654715  33.7129855
  56.7713165  68.8369560  32.3144460  43.7610197  16.9965482   5.3212160
  44.2771435  17.5025940   5.9487206  43.7716389  17.5234854   4.5221815
  49.6774149  52.6537991  44.4744444  48.8995647  52.3828459  43.9868307
  49.6372938  53.6101532  44.4772005  68.7747257  99.9812842  94.8899824
  68.2125156 100.0074435  94.1157295  68.3689921 100.5958605  95.5014667
  36.4859939  74.2365503  16.8554842  37.3454142  74.6485519  16.7666984
  35.8736920  74.8807335  16.5000391   6.5957218  39.2987680  31.9585204
   6.7846990  39.9472094  31.2802553   6.8233204  39.7367358  32.7786517
  57.3894167  69.3846130  28.2016325  57.6602125  68.8171434  27.4799109
  56.4616442  69.5539999  28.0379987  17.8194630  53.3669519   8.1488711
  18.2421911  53.9249563   8.8016808  18.3256984  53.5084534   7.3489124
   8.0240279  13.0905284  86.6868730   7.1212798  12.9149474  86.4214452
   7.9441815  13.7089957  87.4130662  63.3981562  63.2743740  18.2216203
  63.4490204  62.4083710  17.8170478  62.4889374  63.5451984  18.0942798
  69.9898720  33.7742853  33.2132912  69.2068100  33.4490490  32.7691388
  70.5025578  34.1908264  32.5205588  30.1779199  70.3356981   4.5613176
  30.6607485  69.7382736   5.1324487  30.3932381  71.2082911   4.8906386
   3.2603407  67.9672098  18.0269015   3.2113564  68.6111498  17.3203802
   3.4748700  68.4814501  18.8052118  63.8873339  72.8196430  30.8048010
  63.1409121  72.2400856  30.6524849  63.6054373  73.6681223  30.4629731
  41.2635899  78.9409590  22.7182674  42.0322847  78.4055996  22.9150605
  40.5507851  78.3096743  22.6202083 113.2983183  78.7184286  25.1807880
 112.9131251  79.2355013  25.8882427 112.6322007  78.0632067  24.9729347
  10.6382096  88.6239910  43.7437582   9.8602682  89.0953827  43.4457064
  11.1734867  89.2919254  44.1722155  50.6763554  91.1104202   9.7425842
  50.5565786  91.7985535   9.0880924  50.3982210  91.5118408  10.5658293
  18.1506503  49.5476818  38.6212897  19.0595102  49.6610785  38.8994026
  18.0870688  48.6231327  38.3816981 114.5670683  26.8668962  12.3459399
 113.7848687  27.0142603  11.8142641 114.2445307  26.4174318  13.1270826
  13.3923751   6.3186731  89.6657147  12.8824502   7.0866384  89.9234678
  13.9950210   6.6446389  88.9972903   7.3554981  54.5240402  13.4064114
   7.1279579  53.6718416  13.0346382   8.2879907  54.6269655  13.2164240
  56.8759823 101.3159847  17.2295868  57.6957989 101.7329407  17.4946964
  56.2402248 102.0311642  17.2059786   6.3333285  78.2822561  15.4652703
   5.5352235  78.2093048  14.9418783   7.0223922  77.9305744  14.9015820
  42.9326439  66.3792992  32.6239443  43.4635687  66.9252872  33.2038093
  43.3551693  66.4569759  31.7685676  34.0518117  57.8547335  18.8625991
  33.3245635  58.1010485  19.4341493  33.9818025  58.4496546  18.1160092
  31.4975357  63.9276361  26.9986129  31.8733788  64.3780947  27.7549577
  32.1288896  63.2384062  26.7922521   3.5456639   9.9350347  89.9709894
   3.4317666  10.5084504  89.2130621   3.0335218  10.3505077  90.6647636
  15.1662838  54.0131378  21.3838267  14.9210536  53.2781506  20.8217859
  14.7059262  54.7645140  21.0100150  71.8259001  82.1508789  29.2085314
  72.2580051  82.9803181  29.0046978  71.3783836  81.9083881  28.3978772
  35.7830739  52.9328251  68.5747433  35.4498267  52.3562002  67.8872252
  36.2593985  53.6166239  68.1038237  46.1228895  58.3236217  34.8447347
  46.6842365  58.8314867  35.4305649  46.3651085  57.4126291  35.0110483
  33.6096954  68.2093334   1.3794331  34.1831470  67.9690647   2.1072088
  32.7266526  68.0241156   1.6990620  36.3378978  52.4020195  17.8419292
  36.9414067  51.8580723  18.3480227  36.2510824  51.9475460  17.0039868
  21.7343049 108.2748414  95.5315725  21.9835370 109.0742875  95.0678845
  22.3214500 107.6034690  95.1840798  32.8227806 104.1010761   2.0436338
  32.0629215 103.9888000   2.6148084  33.0337906 103.2151890   1.7488253
  10.8764887  91.7436218  24.9110913  10.9968615  92.0413494  25.8128142
  11.6058338  91.1429596  24.7578049 103.8108772  76.5247345  15.3385556
 104.2444664  77.1753263  14.7863173 104.1852408  75.6882572  15.0621796
  36.1052871 101.5129185  10.0194371  36.0920024 102.4272633   9.7365522
  35.7270288 101.0294533   9.2849874  50.5385351  83.7470818  15.2842081
  50.9130764  84.3546772  15.9219921  50.1596642  84.3110561  14.6099520
  55.9794426  28.7250686  35.9088230  55.6581497  29.1254282  35.1009154
  55.8562565  29.4001675  36.5761304  35.9886026  83.9032555  30.0559449
  36.6281629  83.1993866  29.9474573  35.2800131  83.5069656  30.5629873
  35.4538321  86.2167072  28.7468719  35.4183745  85.5526829  28.0583620
  35.5996466  85.7196140  29.5517683  47.6122952  79.3689728  29.6782017
  47.6772451  79.4292974  28.7251139  48.4039640  78.9006329  29.9430561
  68.2028198  56.8736172  18.5448408  67.8442001  57.6942492  18.8827527
  68.2679081  57.0117903  17.5999045  49.0882206  96.9602108  40.0146961
  49.1165066  97.6648235  40.6619644  49.5960236  97.2938728  39.2750812
   8.0580366  88.9782524  54.8574257   8.1302190  89.1982269  53.9286470
   8.9299232  88.6647606  55.0977802 111.9933560  71.4822292  48.2892656
 112.1932876  72.2546864  48.8180065 111.7611199  70.8082771  48.9280844
 115.0647866  14.3307676  84.0635069 114.2139732  14.3337144  83.6249419
 115.3962623  15.2214374  83.9491828  13.1138021   2.0360889  95.0508786
  12.4890071   2.5485124  95.5639902  13.5506278   1.4774932  95.6938286
  32.4425292  64.5850563  21.2968516  32.8049231  65.4707909  21.3161850
  32.5672126  64.2949295  20.3932405  35.8750844  71.8845558  31.7556119
  35.1067901  72.1653175  32.2527337  35.5912995  71.0891008  31.3051057
  21.9299793 102.3196983  25.9345627  21.0858512 101.9192219  25.7264781
  21.7044473 103.1576443  26.3385439  28.7973332  86.7899704  24.1476440
  27.9622149  86.4575481  24.4767451  28.9986634  86.2309170  23.3972096
  56.1335707  71.6625118  49.3088055  55.6872034  72.3162508  49.8469639
  56.7738295  71.2638187  49.8981619  14.3255949  83.2990932   3.8746974
  14.6184087  82.3878670   3.8624513  14.5904386  83.6472416   3.0232942
  66.4843458   0.1959551  62.3801661  66.8045539   0.4517783  61.5151501
  66.6963762   0.9400309  62.9437494  27.0747876  79.4528151  23.5776234
  26.2614560  79.4723845  24.0819478  27.7645326  79.3863535  24.2379761
  59.4016504  67.0554018  19.5255125  59.1481590  67.9698515  19.6510172
  60.2890110  67.0995617  19.1693187  33.9272833  55.6756783  15.7571566
  34.1957045  56.0038137  16.6153586  33.4417653  54.8732901  15.9486675
  30.4205370  72.0795107  26.1150455  29.7211909  71.7218113  25.5680537
  30.1061797  71.9638538  27.0117235  45.0935793  59.2815733  21.2999439
  44.3530798  58.8091373  20.9195566  45.6268120  58.6007166  21.7102242
  16.2631321  52.7225304  48.5615444  15.8589995  53.3238363  47.9359722
  15.7192612  52.7920055  49.3461561  46.0057926  54.2813873   6.8167818
  45.5083227  55.0725794   6.6099846  45.5298328  53.5772610   6.3764358
 105.0545084  60.2536668  83.8886304 104.5405685  59.5541467  84.2920859
 104.8007166  61.0433759  84.3663092  42.0263757  82.2948814  90.1544823
  42.4933656  81.5426708  90.5182521  41.1030164  82.0458246  90.1946034
   3.9852524  63.4338570  58.0665827   4.5570740  62.7168083  58.3406210
   4.3258333  64.2010260  58.5266781  54.7766447  63.6383438  38.1304026
  54.3850327  64.2819405  38.7208748  55.6577969  63.9723873  37.9624343
   7.9234040  90.2336597  17.2116446   7.9937518  89.6718693  16.4398432
   7.5180542  89.6772671  17.8767383  25.0125747 107.6621915  75.0899454
  25.0958889 107.9496813  75.9991415  24.5583802 106.8214274  75.1452609
  55.3195286  79.4913483   2.6820108  55.4876614  80.2165699   2.0803332
  56.1490583  79.0153408   2.7211031  47.9000521  39.4215512  33.3584929
  48.8012791  39.6161914  33.6156559  47.3646593  39.9863338  33.9158130
 103.7685650  43.4852600  41.2846708 103.4058696  44.1044664  41.9181252
 104.2220920  42.8336334  41.8193960  62.1952724  64.3914747  36.4275980
  62.2878599  64.1275167  35.5121827  61.8343067  65.2770376  36.3861823
  14.4811881  79.8043871   6.7813700  14.4624543  79.5077658   5.8714807
  14.4712913  80.7596970   6.7221147  22.8106332  69.9854469  21.8536973
  22.2459936  69.8274803  22.6103091  22.8713846  70.9389162  21.7950916
   8.2230437  48.1716967  72.1176529   8.6924613  47.9532146  71.3125801
   8.1898332  47.3492670  72.6062536  66.5833235  51.9482183  25.1092100
  67.4503708  51.8090057  24.7283125  66.1455774  51.1012316  25.0242186
  13.2987928  55.2433300  39.7081971  13.2119036  55.5697823  38.8125896
  13.3073068  54.2906094  39.6160841  75.4058456  59.3415308  27.2211504
  74.5226288  59.4884109  27.5596666  75.4555130  59.8875904  26.4365602
  54.0913153  78.1265354  19.6279335  53.7162876  78.8995695  20.0498414
  54.7710133  78.4746790  19.0508366  52.8737068  68.1008768  17.9638124
  53.7726974  67.7722788  17.9723299  52.9466295  68.9890051  17.6143181
  47.9031897  90.2217579  33.5938358  47.1916199  90.2998066  32.9583764
  47.6258993  89.5164108  34.1784883   8.3581042  66.1651802  30.2993965
   8.7496519  65.8501291  29.4847393   7.4814367  66.4552307  30.0472927
  27.8643942  97.8101349   2.3701587  28.5961080  98.4055519   2.5323364
  28.0473971  97.4348068   1.5088406  12.2565365  92.8819942  22.5815773
  13.0051327  92.3058796  22.7362537  11.6407704  92.6679993  23.2824850
  56.1352301  31.6316032  20.2127385  56.3080931  31.1690044  21.0327077
  55.2238941  31.4228463  20.0074935  53.2331419  66.4907217  23.7224412
  52.5884390  66.6559029  23.0344677  53.1639671  65.5517626  23.8950610
 112.5103676  26.9968309  93.9353068 112.4638521  27.6606359  94.6233685
 113.4074771  26.6662587  93.9816722  23.9131737  45.1580906   4.3443671
  24.4479084  44.4972754   4.7843826  23.0199385  44.9769926   4.6368849
  17.9828751  51.1156464   9.7979814  17.5310588  50.4993868   9.2215103
  18.1424582  51.8837261   9.2495114  31.8859267  89.6093178  42.1138906
  32.4965405  89.1054249  42.6519156  32.2534823  89.5670891  41.2310839
  14.9247599  65.5667686   9.4455940  14.2670071  64.9688911   9.0904373
  15.4917848  65.0096560   9.9788308  10.2565277  25.1413703  42.9945993
  10.2301276  25.3981757  43.9163256  11.0774851  24.6575451  42.9041815
   1.1987620  12.1554555  71.5244050   1.6443902  12.7684106  70.9396525
   0.3546101  11.9933643  71.1032506   4.8340159   4.6094360  85.9555336
   5.3803092   3.8260354  86.0193773   5.2092486   5.2157821  86.5941091
   4.0031609  92.7859688  28.5070014   4.6665671  93.4490395  28.6979532
   3.4505260  93.1864071  27.8358316  47.9396152  63.3777189  32.4503803
  47.3045492  64.0261173  32.1462321  47.4089766  62.6204634  32.6977897
  84.6302705  14.5546378  92.7066021  83.8016396  14.4159497  93.1652607
  84.9024998  13.6785020  92.4336444  22.7733731  74.7491837  75.3268719
  22.8803086  74.9238014  74.3918276  22.1097708  74.0605545  75.3675652
  13.1161582  66.3290071  26.5138197  13.5473359  67.0996094  26.1443758
  13.7566209  65.6248188  26.4130282  11.3231993  79.1988468   7.2752649
  12.2203875  79.5305252   7.3109478  11.3570678  78.4844732   6.6390622
  38.1444025  52.9975843  37.9393792  38.6118007  52.4269152  38.5493827
  37.6494122  52.3975897  37.3815084  73.3404779  61.2023878  12.3155749
  73.1932211  61.6717434  13.1367052  72.4617243  61.0270119  11.9790292
  48.4554148  81.2132645  26.4914417  48.9255333  80.3810978  26.5436101
  48.4165335  81.4081001  25.5550885  36.7859817  67.3888588  58.4510565
  36.3624144  68.2250500  58.6449814  36.7116404  67.2973251  57.5011444
   2.5546914  25.6223859  83.9635737   2.4025327  26.5667619  83.9284487
   3.5056192  25.5352964  84.0297504  32.0812225  74.0466213  27.7740240
  31.4637780  73.4937239  28.2528710  32.0521903  73.7160969  26.8761706
  66.6987848  58.4767866  29.8246408  67.4988699  58.0259705  30.0945592
  66.1348295  57.7815580  29.4857526 107.1238291  24.3999948  92.7816968
 107.0687305  24.9316205  93.5757780 106.3688194  23.8138522  92.8330146
  39.2134547  56.9278717  33.3506131  39.4844079  56.2272549  33.9438701
  39.1401315  57.7008057  33.9104652 101.0510313  21.9555129  90.2672489
 101.9314825  22.2909536  90.4361214 100.4777180  22.5109042  90.7955291
  52.4044275  41.3897371  20.2107906  51.9668531  41.5197945  21.0521269
  51.7896509  41.7375422  19.5647907  22.3467523   2.8601636  84.7563620
  22.8383189   2.5964202  83.9785226  22.0654803   3.7558498  84.5696481
  12.6535285  86.6977215  69.7789478  12.0716155  86.0912132  69.3209648
  12.1330667  87.0191383  70.5151844  57.2023964  40.1724386  15.7085586
  57.0911932  40.1602030  14.7579193  58.1347084  40.3460932  15.8384311
  29.0931249  71.0519743   0.6729589  29.1649818  71.1983871  -0.2702440
  29.7376275  71.6461802   1.0573649  37.4602771  57.9386425  27.7186537
  37.6381183  57.0042849  27.6110363  37.7182531  58.3292770  26.8837380
  37.7828789  45.0142765  39.3710613  37.0929575  44.3872738  39.5881152
  38.4449744  44.8865700  40.0504351  41.7534386 104.3039180  92.0019926
  40.9766402 104.8572827  91.9207393  42.0155804 104.3921567  92.9183589
  50.6197977  64.0208912  10.2680993  49.9025488  63.3917618  10.1907110
  50.2372265  64.7640848  10.7345009  32.7256322  67.9727602  48.9111805
  32.3340440  67.1727562  49.2617369  33.6172175  67.7185774  48.6730671
   9.4727170  76.8355989  22.9581833   9.1225916  76.0111713  22.6206040
   9.1914648  77.4934912  22.3223329  34.6556616  76.2006378  44.8564672
  34.3084621  75.6376934  45.5484104  33.9541888  76.2415934  44.2064762
  55.4734998  93.8050628  92.6965161  54.6547227  94.2014361  92.3986472
  55.8524995  94.4545913  93.2887186  29.4743681  62.3247766  22.6044655
  30.2378011  62.6349115  23.0915189  28.8375473  62.0920515  23.2801366
  50.1497650  42.5130129  11.2553513  50.4261112  41.6203785  11.0478354
  49.2411089  42.5577354  10.9577334  24.6197104  63.6747980  31.2102294
  23.8652921  63.6049938  30.6252408  25.0657558  64.4745302  30.9314728
   9.5755446  56.8194580  14.7337198   9.9140471  57.5641441  15.2307951
   9.6727753  57.0789623  13.8175130  47.9106831 107.0699883  59.5538350
  48.1696480 107.5509310  60.3398796  47.0791983 106.6578103  59.7882982
  30.6011653  33.3482361  11.9326246  29.8862576  33.8264418  11.5125561
  30.7961202  33.8535500  12.7218521   1.1555018  20.2622557  25.1163888
   1.2715214  19.5070994  25.6930232   1.6579551  20.9618616  25.5339098
  18.7916553  37.6373267  10.6520641  19.7143745  37.5603175  10.8947361
  18.3551693  37.9184818  11.4562190  58.6377907  77.8203583  41.5482759
  58.0849457  78.0035067  40.7886362  58.2695627  78.3596992  42.2481012
  15.8278501  72.7744627  37.1674919  16.4382005  72.5963593  36.4519620
  16.3064492  73.3651209  37.7491260  37.3857975  95.1128101  45.9595776
  37.3499060  95.8880806  45.3993082  38.2985759  94.8278999  45.9160614
 100.7439935  16.4469995  95.2762379  99.9696147  16.9661130  95.4932402
 101.3826644  17.0883168  94.9647140  44.3865299  46.5926743  30.1247144
  45.0572062  46.0996914  30.5973601  44.6510077  46.5371513  29.2064548
   6.2406284  54.7641420  47.3218584   5.4377836  54.5255423  46.8584538
   6.1142254  54.4274664  48.2089329  12.9771197  24.6959972  17.6846159
  12.7222741  25.5415106  18.0539274  13.2685292  24.1833448  18.4386063
  22.0524913  21.8921889  89.1549249  22.7973157  22.4852552  89.0562411
  21.9447499  21.4969815  88.2898028   4.4731644  93.0814266  23.9829063
   3.9386481  92.8052521  23.2384253   4.9602321  92.2961140  24.2324734
  20.1961637  46.4912128  28.8568234  19.5453322  45.7912254  28.9084864
  21.0329652  46.0343885  28.7713480  85.2677267  98.5582019  77.8252490
  85.2948015  98.7295104  76.8838914  84.6599167  97.8245593  77.9178043
  26.1832500  67.5666904  22.3198557  26.5272045  66.6887522  22.4846196
  26.6872787  67.8847218  21.5708280  46.6556025 109.8090458  78.0692291
  47.0686769 109.0084743  78.3927727  46.4276123 109.6107197  77.1609783
  25.6984973  84.0964794  49.4545221  26.5158057  84.5863819  49.5452642
  25.6341386  83.5863209  50.2618790  29.9617243  94.0281487  18.9364135
  30.0130630  94.8067379  19.4908416  30.3594661  94.2971134  18.1083512
  48.4429216  38.2650995   7.7483171  49.2678356  38.7355733   7.8683108
  48.6257219  37.3781848   8.0584776   9.0994769   9.2912044  87.9561468
   8.5806733   9.6306981  88.6854024   9.5899945  10.0490655  87.6379164
  73.4137249  70.3909779  21.1055374  74.1718006  70.0395250  20.6386018
  73.6467409  70.3164339  22.0309448  32.4194932  41.8714285  11.8111074
  32.8575015  41.2275696  11.2544847  31.5951586  42.0559072  11.3609195
  95.1122200   9.4156207  82.6093002  94.6358167  10.2392091  82.7140518
  96.0012209   9.6140804  82.9034467  27.0101523  47.6900434   7.2601241
  27.8110218  47.1822643   7.1297365  27.1606851  48.5028744   6.7775559
  40.3985548  46.9195557  17.7701795  40.7436895  47.2570276  16.9436038
  41.1668921  46.5819693  18.2305312 111.5661561   0.4701175  81.2619718
 111.4652168   0.4734077  80.3101142 111.1324107  -0.3344928  81.5460403
  38.5080552  79.9865437  46.6504908  37.6551604  79.5658779  46.7593145
  38.6652422  79.9686289  45.7064581  40.8462954  44.0117693  30.2547097
  40.5764580  44.3090773  29.3857861  41.7338085  43.6762953  30.1281619
  47.6714754  82.6421070  30.4994678  47.5968313  82.8660870  29.5718408
  47.0867014  81.8928146  30.6127501  27.1221232 102.6124477  23.8363767
  27.0615697 102.7880859  24.7753763  28.0458450 102.7494812  23.6261582
  15.5599427  38.3305717  27.8538179  15.3927672  37.9876256  28.7316966
  15.1045489  37.7246666  27.2692442  64.3483400  61.3531160   6.7320627
  64.6021223  62.1508789   6.2679452  64.3798161  61.5943193   7.6578397
  35.6571698  52.5288153  24.4210434  35.0249839  53.2111263  24.1951609
  35.1584315  51.7134714  24.3689656  55.3974485  57.6334143  51.7272377
  54.9657011  56.9403934  51.2276888  55.4926825  57.2702169  52.6077223
  48.6791039  59.9919415  61.5744495  49.0409422  60.0972176  60.6945467
  49.4088268  60.1956606  62.1594572  15.0501394  52.3638964  19.2527270
  15.5042398  53.0081558  18.7096274  15.7058835  51.6869926  19.4201636
   5.8476859  17.6890411  93.3637305   5.4392844  16.8492164  93.5738178
   5.4465180  17.9497136  92.5346668  48.8860416  61.4272738  11.6404140
  48.3814287  60.8797789  12.2419524  49.0768003  60.8542633  10.8977830
 109.5193469  26.4302434  85.4783972 109.4316232  25.4842653  85.3614898
 110.3350341  26.6524305  85.0294896  32.9540944  94.7568989  26.4493537
  32.2235584  95.1281452  25.9546566  32.5428939  94.1489124  27.0637584
  22.7571893  49.4753790  12.4526012  22.3573589  50.2701473  12.0994604
  23.1775260  49.0630531  11.6979241  38.9163041  61.5325880  41.5625191
  38.6575246  61.3484478  40.6595469  39.2945886  62.4112225  41.5288305
  26.5614557  70.6850147  17.0461500  26.8773103  69.9838018  17.6160371
  26.5691376  71.4656115  17.6000798  24.5741343  84.2311192  35.7000327
  24.9782538  85.0702763  35.4792762  25.1628637  83.5758686  35.3254986
 111.1286341  16.3661040  79.6317239 110.9960973  15.8681525  78.8250597
 110.3391063  16.9007434  79.7156246  61.6943264 106.1197472  43.3237505
  61.4821053 105.1899815  43.4058237  62.0920038 106.1990166  42.4566841
  35.7419062  88.3009148  10.7025754  36.3841128  87.6760292  10.3659463
  34.8943019  87.9231071  10.4679275  53.3380890  83.0169678  15.9886384
  54.2794561  83.1900501  15.9987581  52.9798985  83.6014748  16.6566873
   8.2825148  74.9208403  34.4297528   8.2241106  74.1589642  33.8532448
   9.2213529  75.0431871  34.5706296  15.7393003  46.7983341  20.2612972
  16.4277971  46.9109011  20.9166837  15.5232394  47.6890993  19.9854684
  52.5648832  47.6063824  18.2752216  52.2986078  46.7322731  17.9901624
  51.7556906  48.0148649  18.5827672  26.8663073  74.3880081  30.8742356
  26.8139100  73.4749413  30.5917573  26.1241031  74.4977951  31.4686394
  69.1850424  73.4628391   2.4943914  68.4022188  73.0354548   2.8418988
  68.9269400  74.3771791   2.3777643   3.8205749  90.8698273  44.0055895
   4.2122626  90.0276279  43.7742424   3.3169696  90.6897545  44.7994375
  50.8369017  89.9035645  37.1148872  50.1012278  89.2992973  37.2142839
  51.0640430  90.1537418  38.0104566  43.4376049  80.1090336   3.3706528
  44.1984415  79.6987534   2.9595307  42.7418613  79.4563484   3.2920861
  29.8673058  82.6795578  40.2883720  29.6414089  82.3229980  41.1474800
  30.4804444  82.0440769  39.9189830  74.9214810   0.8891333  46.6923571
  75.1233453   0.6029166  45.8015394  74.4961566   1.7392863  46.5801859
  42.4987364  64.4161797  41.2224817  42.6166105  65.3476334  41.0361385
  43.3610392  64.0301561  41.0687017  17.4583560  39.7275628  88.2059880
  18.3128053  40.0868501  87.9670938  17.1546489  39.2848195  87.4135418
  38.6393571  72.1230459  13.2667208  38.7543678  72.9197073  12.7487135
  37.7578545  72.1999025  13.6317933  53.1506109  66.6930389   9.7518259
  53.5000515  66.5828037  10.6361175  53.9112854  66.5928602   9.1794884
  68.5801888  93.5531712  37.4190760  69.0145302  93.2630920  36.6169333
  69.2957211  93.8232899  37.9946470  39.8118711  88.9896297   9.4899136
  40.7041121  88.9105511   9.1524541  39.8843002  88.7564278  10.4154396
  61.4187002  80.1212502  29.6536207  62.0510292  80.4628181  30.2858520
  61.5221405  79.1708326  29.7010183  59.4424486 101.6672421  18.4828568
  59.3880463 101.6328049  19.4378877  60.0582027 102.3778152  18.3035028
  23.1393552 104.6084213   3.4053013  23.3912826 104.6596146   4.3273333
  22.6244974 103.8039684   3.3419982  28.6736679  52.0942640  39.8107600
  28.3023190  52.9764938  39.8083472  28.7827182  51.8828344  40.7379293
   7.3483551  80.9296513  45.1006317   6.9378811  81.6384506  44.6052980
   6.6299456  80.5363941  45.5960751  43.4305143  88.9874077  37.5340652
  42.9469299  88.5801792  38.2527733  43.5815763  88.2748985  36.9129920
  43.2503939  74.1892385  58.2669115  42.6009274  73.5397863  57.9973841
  44.0601444  73.6894512  58.3705759  62.5749588 102.0795631   9.6370894
  62.1638441 101.2551594   9.8970413  62.1276331 102.3254013   8.8273382
  49.3009281  84.7584820  38.4954286  49.0808821  84.1017723  37.8347135
  50.1007986  84.4280815  38.9044237  88.0298394   2.4683512  19.6707523
  87.9902858   2.7979792  18.7729669  88.7515706   1.8396414  19.6634877
  15.9568620  73.0169868  27.8305912  16.5998530  73.2460260  27.1595216
  16.2902355  73.4236193  28.6304331  12.8341895  50.7522001  78.7129839
  12.9944354  51.6874017  78.8392468  11.8865567  50.6565656  78.8082583
 102.1072184   8.7773217  71.7720290 102.6932942   8.2132186  72.2765465
 102.6819789   9.2267122  71.1524053  57.4937820  98.2850266  34.4776726
  56.7491817  97.9579735  34.9824810  57.7634001  99.0805721  34.9366331
 109.5033169  79.1073084  36.2004399 109.4551754  79.7642469  35.5059266
 108.6318588  79.1130590  36.5963817  56.0866165  73.3930683  43.1767416
  55.1486826  73.2556868  43.0439425  56.2113857  74.3334723  43.0490398
   4.4403055  86.6931343  29.5387745   3.8790905  86.1706924  30.1117682
   4.2191526  87.6003456  29.7492290  98.9533061  17.3652018  21.7225337
  99.4924420  17.0216311  21.0101295  98.4630364  18.0853690  21.3260055
  41.3347292  63.4991598  43.7622833  41.7289209  62.6934147  44.0963745
  42.0244837  63.9026594  43.2353497  36.2650061  58.8485384  53.1423235
  36.8774366  59.3570042  52.6107025  35.7418823  58.3618116  52.5054026
  68.2099199  61.8169689  50.3306198  68.5671759  62.5106955  49.7762346
  68.6207724  61.0156202  50.0061655 116.8643629  21.5694274  87.7975603
 116.2115680  21.7376079  88.4771224 116.5297424  22.0260991  87.0257349
  34.5422673  49.4455290   9.5199496  33.6042023  49.4641066   9.7094721
  34.9208522  50.0868893  10.1212549  45.7685471  85.8848667  25.1914215
  46.5912676  86.1299419  25.6148624  45.1418257  85.8099461  25.9110332
  85.2821188  21.7519941  76.9980903  85.1291185  20.9364738  77.4753244
  86.2200164  21.9153585  77.0975490  52.4923277  71.2481451  16.6595423
  53.0493021  71.7521858  17.2527993  51.7020416  71.0675192  17.1685159
  92.6992512  68.6051750  15.5201173  93.2020378  68.5996628  16.3346148
  91.9485092  68.0386972  15.6982386  93.7210369  72.1751976  31.4757133
  93.6551571  72.5479221  30.5965257  93.2187748  72.7742481  32.0280766
  66.3171244  84.1114902  25.6317353  67.1152687  83.8234138  25.1887751
  66.0915136  83.3863258  26.2143803  11.1118758  16.0916174  36.5202451
  11.7818893  16.5265215  35.9928226  10.4888976  15.7477797  35.8800054
  18.6936665  62.0828533  25.7269359  18.2259762  62.9128599  25.6342816
  19.2646801  62.2129107  26.4840746  21.2514716  37.4827851  89.4861593
  21.2770921  37.9934205  90.2953698  21.9836694  37.8175439  88.9684184
  34.7315121  45.1677227  33.4326911  34.6347380  45.5090380  34.3217182
  35.6488156  44.8998785  33.3774948  26.3885766  56.1959066  90.8410599
  25.7653028  55.5636300  91.1988177  25.8911019  57.0109166  90.7739543
 102.4738807  16.0590590  22.5102425 102.0161504  16.4614142  23.2483673
 103.3593482  15.8983458  22.8363466  60.9167194  86.6900635   5.3620839
  61.6632080  86.4385414   4.8182777  60.6952333  85.8952236   5.8472717
  38.9873338 104.2399979  25.9567428  39.7411036 104.1219139  25.3787112
  38.2985950 103.7030220  25.5649209  37.2645879  63.7002611  10.0655901
  37.4025226  64.5240641   9.5980930  36.5275359  63.8771057  10.6501520
  32.8983498  85.2882481   5.9092093  32.1582484  85.3869343   6.5081602
  33.4434032  84.6119308   6.3113791  98.7149334  62.1175241  -0.1025658
  99.4660473  61.6812563   0.2995801  98.8777351  63.0506134   0.0355172
   6.1079669  66.3800430  13.3051586   7.0335817  66.5527725  13.4773064
   5.6541145  67.1551752  13.6359417  26.0675550  49.6463537   0.5885532
  25.2807856  50.1147461   0.3095688  25.7559490  49.0260124   1.2475745
  22.5219232  56.5008058  84.3098934  22.2600585  56.8944635  85.1421733
  23.1880647  55.8563127  84.5488639  63.8319206  81.0181999  24.8860002
  63.7761164  81.8101120  25.4207850  63.4212685  80.3386974  25.4206657
 115.8345711  42.0956220  87.0743545 115.4113924  42.3356523  87.8986962
 116.5758740  41.5494241  87.3358293  57.0842791  85.1906967  23.1890631
  57.5063372  85.0603008  24.0382385  57.3978281  84.4633675  22.6515579
  29.3440080  63.9256620  33.5765958  29.4903588  64.2687273  32.6950550
  28.8948584  63.0918884  33.4376216  42.8638840  82.5832653   0.8654778
  42.5124550  82.4023533   1.7372593  43.1564045  81.7306328   0.5434825
  45.6498766  65.2665138  22.0898533  46.2607670  65.1083088  22.8095865
  46.0951281  65.9060335  21.5339732  80.8131695  61.3197327  14.5441759
  80.8024883  61.0680389  15.4676306  81.4655209  60.7432127  14.1463208
  41.9241095  55.9739971  62.5893021  42.8004265  56.3548660  62.5324106
  41.6149759  56.2138081  63.4628916  51.7530727 100.4422379  43.3514309
  52.1861410  99.6203709  43.5821104  51.9701862 101.0370731  44.0692520
  51.3128662  94.2321968  16.5676403  51.8515968  93.7082577  17.1605027
  51.6613293  94.0423965  15.6965590  32.1930671  80.0847816  35.9946680
  31.3131976  80.0932598  36.3714814  32.2888803  79.2050600  35.6297755
  14.6477270  86.5858269  29.0968943  14.5039654  86.0574150  29.8819757
  13.8147652  87.0355892  28.9550638  20.6801963  72.9219961   1.2725884
  20.0169992  72.3733854   0.8537498  20.3445697  73.0707216   2.1565948
  31.8039155 101.1944485  48.7916422  31.9903636 100.8865833  49.6785975
  30.9932017 100.7474422  48.5484219  20.1404172  49.1275586  92.6254450
  20.2560359  49.8085298  93.2881171  20.9086400  49.2102803  92.0604424
  22.5144029  94.0281868  23.3587527  22.0516849  94.6998787  22.8578043
  23.0342913  93.5585785  22.7065158  38.6091542  61.8915367  62.1629333
  38.5291553  61.3317394  61.3906240  39.5034122  62.2303915  62.1215439
  17.9308206  45.1406373  92.4672608  18.2196694  44.3235673  92.8736930
  17.7294475  45.7168187  93.2046203  39.3319321  68.4283304  58.0451822
  38.5919213  67.8280735  58.1363583  39.5474863  68.4029198  57.1129131
  64.1022873  84.2745018  27.9853940  63.5481739  84.0233326  27.2464085
  64.7911930  83.6102200  28.0048466  81.2753963  94.9688721  12.9254186
  80.4490852  95.3750420  13.1870818  81.1262894  94.0298462  13.0360138
  12.7264815  25.4354467  93.2665096  12.4862462  25.3892507  94.1919206
  11.8898803  25.4317369  92.8014063  94.2939823  90.4826999  79.9647851
  93.6421793  90.7490063  80.6132169  94.0751427  89.5725108  79.7650500
  56.5229750  79.0646601  10.2584577  55.7794189  78.6242723  10.6700552
  57.2618580  78.8794518  10.8380961  50.1124191  64.2899418  47.3337650
  51.0410166  64.4498920  47.5021505  49.7598314  65.1488113  47.1008301
  53.0283451  58.3784962  32.1844006  53.4640789  58.8833189  31.4977264
  53.3368206  58.7697935  33.0016875  54.5135886  18.2695521  35.3444839
  54.8510713  17.6238669  35.9653091  55.2920145  18.6010874  34.8968601
  45.5698490  76.6010761  54.0335798  44.7948790  76.5914965  54.5953274
  46.1776638  77.1949863  54.4741058  42.6874352  90.4580212   5.8523297
  43.1731558  91.0891342   5.3212923  43.3259487  90.1406860   6.4909494
  15.6048894  78.9480782  35.3762674  15.8897603  79.5572996  36.0573912
  16.2564850  79.0436888  34.6816373  17.5328577  58.2973576  21.0174513
  17.0531571  57.4925756  20.8213830  17.1156800  58.9638758  20.4716086
  61.0298538  65.9499693  42.3158312  61.3267994  66.8569279  42.3898745
  61.7062187  65.5183601  41.7938375  26.6411996  82.8326130  34.5838475
  26.6537809  83.2379913  33.7168145  27.2502756  83.3579826  35.1027369
  15.3465581  97.6437283  13.2480419  15.3101826  98.5413456  12.9176056
  14.4332325  97.4146175  13.4200120 111.1942738  13.1117762  31.0626268
 111.0617370  14.0131892  31.3560867 110.3122300  12.7429141  31.0160565
  39.5948362  86.4621353  16.6195393  39.6151233  87.4085236  16.7615569
  39.6733379  86.0866070  17.4964929  24.9117613  62.3576546  26.3937187
  24.6410704  61.7083120  25.7446361  25.4198551  61.8591738  27.0337129
  88.8592028  28.6833657  71.6266294  88.3246660  29.1893949  72.2385474
  89.0488385  27.8684320  72.0915385  74.1161060  80.2426147   5.7537806
  73.9697218  80.0913715   4.8200083  74.3505192  79.3823195   6.1018920
  45.7273865 108.0716038  15.0353444  46.2000227 108.6306095  14.4186139
  45.9222269 108.4450436  15.8948863  47.3560238  63.7670898   9.4205767
  47.7207613  64.5616913   9.0309596  46.6787243  64.0827751  10.0187767
  78.5994291  38.3503294  18.5600734  78.4742308  37.8321600  17.7650523
  79.3949986  38.8559008  18.3936453  56.2234116  80.9840584  12.6304543
  56.2729120  81.9127464  12.8570116  57.1138144  80.6579018  12.7609694
  38.8711476  40.6816769  26.6054296  38.1686044  40.2365923  27.0793152
  38.4423184  41.0525036  25.8341813  48.9734888  76.6645575   4.3657640
  49.2678452  76.6080284   3.4567052  48.0770397  76.3294172   4.3485266
   3.6437294  70.3251457  28.7846422   3.8646004  70.0036287  27.9105282
   2.6949275  70.4495144  28.7614322  23.0086684 102.3850632  46.1973810
  22.9376936 103.2147503  45.7253456  22.3553801 101.8189716  45.7862949
  58.3671713  82.2668362  45.6831551  59.1564369  82.1263218  45.1601315
  58.5960436  82.9841709  46.2741566  92.1003866  39.0263070  94.0788062
  92.2870719  39.1833772  95.0043922  92.7988290  38.4389867  93.7899089
  43.1877947  92.1299076  29.4975448  43.7333870  92.8984356  29.6646643
  42.6316881  92.3863602  28.7618756  34.8809195  96.8428612  55.6162357
  35.6128359  97.3439598  55.2564812  34.4219708  96.5039158  54.8476553
  37.9298329  90.9962368  68.8618660  38.2594061  91.3929176  68.0554819
  38.0042243  90.0536346  68.7128878  47.8069401  60.7603455  22.6989055
  47.7473402  60.9593058  23.6333013  47.4186516  59.8895454  22.6142025
  71.2788725  57.9076195   5.0056106  71.9176531  57.3273134   5.4196590
  71.7432928  58.7377691   4.8988917  50.0049067  79.2008686  18.8171566
  49.6817446  78.3064508  18.7084401  50.2865696  79.4619942  17.9403973
  38.6525106  94.1214943  17.1431947  37.8500056  94.6220589  17.2903311
  38.4468055  93.2412052  17.4578619  51.5599203  98.2513714   5.6277770
  51.7999268  98.7809753   6.3881385  50.6935024  98.5715675   5.3767222
  30.2894479   5.3876819  80.5876728  29.4464665   5.3960742  80.1342996
  30.7041436   4.5718469  80.3071769  54.1386414  59.1144037  15.6466925
  54.8164225  59.7833824  15.5502176  54.5039415  58.3399105  15.2189660
  70.2378225  90.2484131  11.4462113  70.4855013  91.1676121  11.3463986
  70.0917578  90.1404095  12.3860145  18.2533908  67.8634691  21.4782572
  18.6616850  67.0004702  21.5472794  17.3185396  67.6964283  21.5981817
  52.1780920  53.0405188  23.2008982  52.4571323  53.7789440  23.7422848
  52.2222805  52.2843170  23.7860751  13.2321072  67.2950935  22.7097750
  13.1101573  66.3924170  23.0039382  12.3876476  67.7158165  22.8713679
  82.5531452 101.3499833  92.3107891  82.3242538 101.2443877  93.2342017
  82.4358242 100.4780341  91.9337245  14.7739065 100.4968548  19.5289743
  15.4523778 100.5252075  20.2035880  14.0128827 100.9097290  19.9371576
  26.3992500  94.6787643   2.1963064  25.8609462  94.5307159   2.9738283
  27.0514441  95.3214264   2.4753548   4.8337203  89.1203499  31.1833334
   5.6144309  88.9910889  30.6448007   4.5431730  90.0082111  30.9747386
  98.9720696   8.4606684  15.4868603  99.5616645   8.1744421  16.1844873
  99.3829554   9.2503394  15.1349616  47.4268323   9.6362627  16.7654657
  47.7958542   8.9261092  17.2905827  47.9048240   9.5950068  15.9371829
  58.8701296 105.1817131  28.6702609  58.6056137 106.0664177  28.4181499
  59.3733549 105.3024960  29.4754958  35.5198479  84.2846966  14.5526111
  34.9397421  84.6783161  13.9008629  35.5275083  83.3526707  14.3346691
  18.5516625  44.6648206  80.7539959  18.0043202  45.0048722  80.0461765
  17.9902583  44.6991624  81.5285154   8.8022119  16.1572303  93.2271825
   9.5028239  16.5032186  93.7800521   8.0646926  16.0333623  93.8246367
  82.8830910  73.1911898  30.5449915  83.2116222  73.5385847  29.7157645
  82.0046616  73.5620737  30.6288242  46.3064384  94.1073036  31.0386467
  45.3832769  94.0832520  31.2904930  46.7747784  93.8029671  31.8159962
  34.5549417  73.9053440  36.1373186  33.7608862  74.1813850  36.5950441
  34.8653674  74.6968842  35.6976223  81.4767456  80.0232983   2.2766061
  80.5835915  79.9753475   1.9356963  81.4774323  80.7983685   2.8382891
  22.0728302  64.2273664  48.1280565  21.6222000  64.6562481  47.4005795
  22.5605726  64.9310970  48.5559559   4.3379718  13.9751710  49.9971576
   4.8634749  14.5905723  50.5083938   4.9754792  13.5037364  49.4609066
  45.7185221  97.4456406   3.7144464  45.8938980  96.5413475   3.4542027
  45.7300043  97.4260044   4.6713763  87.3621750  72.3224545  38.3884645
  88.2433128  71.9502592  38.3523178  87.2232533  72.6941442  37.5173855
  44.3105221  80.2042103  53.0261564  43.5718107  79.7907829  52.5793743
  44.9684620  80.3233433  52.3412085  49.3352938  81.5787315  15.2701354
  49.8066473  82.4098873  15.3269982  49.0069103  81.5506077  14.3714666
  65.4881382 100.9099388  28.8476181  65.8649826 100.6038666  28.0226707
  66.2197876 100.8967113  29.4646645  48.5112190  83.2311153  49.5018768
  48.0466604  82.4293613  49.2618799  47.8784275  83.9314175  49.3425322
  66.5318364  13.9243735  23.9137697  65.7637614  14.2042864  24.4117045
  66.4211434  12.9788245  23.8141418  58.3035135  65.5214214  31.8196273
  59.0765238  65.3188276  32.3465419  58.6343765  65.5853367  30.9237051
  40.2738714  58.1775522  38.9280105  40.1309443  57.9429245  38.0110836
  40.5561686  59.0917540  38.9001083  60.0965452  61.6218710  40.0038815
  60.2653551  62.4427176  39.5413399  59.6740341  61.8893766  40.8200645
  22.6167708  27.0574178  85.0885566  22.3295718  26.9323529  85.9930487
  23.5507709  26.8484201  85.1027616  33.8716030  70.3200626  36.4488029
  33.7852144  70.2788448  37.4012041  34.8161745  70.3219461  36.2938452
   7.4871802  78.0869532  24.9256849   7.1331108  77.6136398  25.6785703
   8.0112016  77.4362564  24.4585395  41.8562698  92.9283428   6.8822813
  41.8057537  92.2361088   6.2231165  41.3359594  92.5994778   7.6153266
  90.3751469  32.1527052  38.0525827  91.1965275  32.6221681  38.1981039
  90.6318283  31.2321734  37.9980636  21.6826945   3.8856878  80.7711001
  22.5993711   3.8295354  81.0408838  21.2138921   4.1377439  81.5666647
  73.0912066  70.8326149  39.6847630  72.8529072  71.1818218  40.5435419
  72.3959541  71.1365843  39.1012764  51.4884567  47.8599453  24.6483970
  50.9357929  48.5786581  24.9553871  52.2355890  48.2922029  24.2346573
  46.0924149  41.1144876  34.7690248  45.7486391  41.3288689  35.6362581
  46.0608721  41.9413090  34.2877722 112.6089775  58.9420499  80.3965159
 111.7406952  59.0480508  80.7852049 112.4370205  58.7536992  79.4739171
  45.9113789  92.8640747   9.6110904  45.5016232  92.9249668  10.4740071
  46.4410496  92.0678806   9.6531039  56.3426113  61.0955477  23.7585235
  55.7061386  61.0853004  23.0436563  57.1902275  61.1867952  23.3232617
  42.0831779   2.5845755  16.0869777  42.2057027   3.5319270  16.1482048
  42.1285248   2.2781695  16.9926775  35.4505706  74.8060322   9.6223128
  35.8689642  75.3667402  10.2756023  34.8607445  75.3911448   9.1469377
  28.6631751  87.1388149  33.5730505  28.1512308  87.9242897  33.7658620
  28.9341331  87.2473145  32.6614380  30.8123523  32.1686448  93.2512601
  30.0400096  32.7149476  93.3971244  31.2253505  32.1029748  94.1122779
  53.4183455 100.4380989  41.2062407  52.7168798 100.5659008  41.8448734
  54.0876293 101.0756874  41.4547968  65.5701876  74.1562605  38.9872837
  66.3006639  73.5710526  38.7868571  65.9378242  75.0359631  38.9024520
  35.7690668  86.2091160  36.6599226  36.0299873  85.3254890  36.4003897
  35.2670789  86.5392113  35.9147525  31.3996410  72.6808357  39.0028167
  31.9549012  72.1746111  39.5958185  30.5542994  72.2323418  39.0248847
  47.4718475  98.6616707  63.2835197  46.7813730  98.0030346  63.2081699
  47.6269913  98.9500141  62.3840618  24.9522668   7.9691447  86.1818673
  25.5562526   8.6552276  86.4659913  24.2227965   8.0214204  86.7994221
  42.9664278  58.1182098  12.3807907  42.9509783  58.8542175  12.9925776
  42.3643446  58.3747053  11.6822660  38.4894967  66.9729710  47.3887205
  39.3599749  66.5858650  47.2957468  38.0814052  66.8535137  46.5311527
  72.5229090  92.0443845  71.5173121  72.7432196  92.9648281  71.3742133
  72.0347398  91.7903901  70.7341071  58.0539650   1.6947020   3.3689281
  57.9990393   1.3479269   4.2594117  58.5409850   1.0295619   2.8824875
  30.7107329  81.4156532  13.5431170  30.5513144  80.8903980  12.7589428
  29.9402237  81.9790459  13.6147475  74.4773214  71.1787403  87.8039010
  74.6847241  70.9667743  88.7140031  74.0300768  72.0237327  87.8507187
  16.3922501  68.9143467  27.6018977  17.1854329  69.3477774  27.2868943
  15.9802020  68.5651302  26.8116474  66.6199636  97.3461437  41.3784361
  66.7560053  97.7995300  42.2103977  65.6818581  97.1568584  41.3594198
   5.4856247  99.7481728  43.6296177   6.0298598  99.8905849  44.4040585
   5.2282399  98.8278103  43.6837101  49.7261667  94.8060703  24.1982317
  50.0248623  95.1384258  23.3517361  49.3477154  93.9496708  23.9992833
  62.7642327  20.4973783  94.2730940  62.6418859  20.7039727  95.1996914
  63.6151105  20.0605573  94.2354091  95.8468628  34.8432970  14.6170914
  96.7579365  34.9525380  14.8895597  95.4403305  34.3529606  15.3316092
  53.1785488  82.2036552   3.9402723  53.6606216  81.9184208   4.7164696
  53.6797667  82.9479790   3.6071333  41.4894533 109.3377399  53.1154871
  41.4121914 108.3837223  53.1262398  40.8125210 109.6397018  53.7211418
  55.4129934  93.3573818   2.9455259  55.7336426  93.1007767   3.8101488
  56.1558819  93.2082653   2.3606162  64.5624542  87.4499226   6.9933057
  64.0634966  86.8515873   7.5494164  65.1077461  87.9459095   7.6039499
  58.2367897  57.7976847   4.0770355  57.5551796  57.4579859   4.6568978
  58.0794287  57.3601437   3.2403612  16.7351562  20.7993926  91.7791476
  17.2623187  20.4436292  91.0637693  17.3696786  21.2258281  92.3551361
 104.1856164   4.4766272  32.4271894 104.0579242   5.4239119  32.4781179
 104.1918582   4.2858828  31.4892101  55.1206017  96.7068958   8.1697464
  54.1933632  96.4699745   8.1878644  55.2225828  97.2138214   7.3642278
  43.2353830  91.8143082  37.3254442  43.0234909  91.7778778  36.3927031
  43.3173990  90.8975983  37.5884128 107.6589047  65.6964864  85.6821884
 107.1773421  65.1288499  86.2839516 108.2412683  66.2047948  86.2467279
  23.1197810  97.3174858  32.5317049  23.8485432  97.4866772  31.9346189
  22.4657297  96.8738461  31.9916701  75.7361328  17.1098317  95.0640731
  75.1771834  16.3641252  95.2825337  75.3639668  17.8407754  95.5574748
  59.4852304  52.8120613  32.2124553  58.8608503  52.4512053  31.5830398
  58.9750099  53.4416580  32.7218771  53.2533169  73.0451298  44.2424917
  52.5243092  73.6477137  44.0952826  53.6556816  73.3501101  45.0557089
  99.1601467  56.1055756  60.4394388 100.0239277  56.4842272  60.2759171
  98.7567043  56.6954422  61.0762501  69.4805241  71.0309696  22.6446414
  70.2597809  70.9742594  23.1976128  69.8213577  71.0353374  21.7501879
  59.0937138  77.7674913   8.7312984  58.3393717  77.2722244   9.0505320
  59.0087271  78.6264896   9.1449767  29.3231463  72.6274157  44.8583984
  28.4765553  72.3584175  44.5018101  29.7173810  73.1573486  44.1655922
  73.4015751  83.8607788   3.4250221  74.3138123  83.5813046   3.3478653
  72.8935146  83.0623150   3.2816243  89.3734741  89.2212963  33.9129853
  88.5490513  89.3622017  33.4474611  89.4877815  90.0107956  34.4419956
  78.1025362  67.7109432  23.2804036  78.5340691  66.9189358  23.6009288
  78.8194227  68.3215809  23.1088352 113.5633010  34.0050543  14.8971200
 113.5684794  34.1150416  15.8479655 113.0449075  33.2138766  14.7503483
  12.2698670  54.5615854  85.2974315  11.7274123  53.8434209  84.9715360
  12.2559005  55.2105893  84.5939835  80.5617255  10.4343070  57.6785564
  80.1480502   9.6351946  57.3521900  80.7959145  10.2302016  58.5839462
   4.9799329  67.3514260  81.0739477   4.0564090  67.1014489  81.1030932
   5.2731925  67.2911252  81.9831200  32.2332078  51.9948949  90.6670876
  32.7336722  52.1264161  91.4723648  31.5482503  52.6627721  90.6989937
  94.8037815  88.1886768  25.9124923  94.2393684  88.1798744  25.1394486
  94.2619896  88.5756207  26.6002202  80.1228237  92.4431705  12.3985338
  80.5339909  91.5791798  12.4248660  80.1698112  92.7028370  11.4784276
  52.0058012  94.7669029  32.7896667  51.0991144  94.9611187  32.5520992
  52.3345661  94.2348862  32.0650268   4.8243105 104.2579174  36.0269594
   4.8391989 103.4127235  35.5778885   5.3008258 104.1041183  36.8427467
  35.9267688 104.1864872   9.1898841  35.6102777 104.8155212   8.5415190
  35.4523849 104.4089985   9.9909323  43.1491184 101.3749695  38.6990929
  43.8383579 100.7926750  38.3795476  42.3661041 100.8252430  38.7293983
  21.9470466  14.6656073  10.2345240  22.6250137  15.2521552  10.5700278
  21.1823905  14.8457755  10.7814014  71.2236547  80.7483387   5.3622884
  71.1008787  80.8237934   6.3085777  72.1724367  80.7826805   5.2403754
  73.0250502  84.6588612  28.3183956  72.1973944  85.1385403  28.3517504
  73.1367254  84.4378948  27.3937678  85.7027912 102.9027939  31.0865879
  84.8092175 103.2391357  31.1546469  86.2141228 103.6449051  30.7640314
  15.4631501   1.0418262  89.9994429  15.3121215   1.3122358  89.0937384
  15.7643491   1.8366422  90.4396500  39.0804291  66.6627884  29.4662666
  39.7377133  67.1066093  30.0022054  39.1422129  65.7431030  29.7243261
  24.2118865  30.5207433  80.0605364  23.7567979  29.6828164  80.1442440
  23.6753493  31.1357202  80.5607052  73.9204502  45.8552217  17.0885193
  74.7973776  45.5726528  17.3480999  74.0558434  46.7088461  16.6771495
  60.2391195  93.6849308  22.4591255  61.1756134  93.5257530  22.3413444
  60.0301266  94.3674850  21.8214250  50.7504702 101.8288422  19.1181743
  50.7646084 102.7622890  18.9067280  49.8363876 101.5703964  19.0003610
  69.2773199  52.3300934  12.7534807  69.4754887  51.6187716  13.3625650
  70.0815535  52.4425411  12.2467351  60.4317141  76.6690445  17.9538906
  60.8993196  77.4351740  18.2864904  60.3821754  76.8104649  17.0084906
  50.2864361 102.2398949  57.5607824  49.9392843 103.0790710  57.8632545
  51.2030888 102.4208450  57.3528576  15.7846767  41.2807168  73.8095613
  16.5029651  40.6518449  73.7402006  15.3354484  41.2251939  72.9661508
  96.3986844   6.7268599  55.9457684  96.3612193   6.2939204  56.7986393
  95.6819457   7.3609389  55.9673452  59.2693996  63.2251215   9.3783927
  59.9468422  62.8494215   8.8161170  59.7130442  63.3901739  10.2103603
  96.8363780   0.1466597  28.7711382  97.6165360   0.6975020  28.8355899
  96.1214656   0.7078398  29.0714812  69.2644072  58.0865002  24.9338675
  70.1960850  58.1548977  25.1424956  68.8489103  58.7629366  25.4686832
   9.4264775  44.7074594  90.6458722   8.8563138  45.1057996  89.9882443
  10.0059348  45.4174794  90.9221710  55.6686735  89.9209881  23.0802798
  55.4185200  90.8113766  22.8335762  56.0492754  90.0124645  23.9537859
  70.3883076  87.3031902   8.4274250  70.8727169  86.4816189   8.5086524
  70.8635807  87.9177570   8.9865816  44.5263338  45.2892923  41.7961788
  44.0769482  44.5159388  42.1370697  45.2070189  44.9373579  41.2225580
  34.5274854  94.1794682  41.1361265  34.8578525  93.4010029  41.5845537
  34.8076177  94.0694427  40.2274752  46.5192604  77.4337769  22.9600310
  47.1929884  78.1045914  22.8490067  46.9960546  76.6051769  22.9118824
  49.7497654  90.1353931  29.4682407  49.8410273  90.4455948  28.5673094
  49.4843245  90.9107590  29.9627924  52.2492456  84.9219513  17.5362051
  52.6567364  84.7532463  18.3857465  51.9733953  85.8374786  17.5804603
  63.8592196  90.0834942  27.9927707  63.2309961  90.4487896  28.6157680
  64.6897507  90.5038738  28.2157874  22.4581969  28.5825861  31.0122442
  22.2729076  28.0387057  30.2466798  22.8991664  29.3542231  30.6567836
  44.5939159  74.1984653  19.0872729  43.9343309  74.2456388  18.3952093
  45.0287628  75.0508261  19.0622032  65.2762461  56.4836264  28.9718628
  64.3896866  56.1784363  29.1644764  65.3275108  56.4826727  28.0160356
 114.2234170  66.2463750  95.5976315 114.9950730  65.7112397  95.7831301
 114.4407832  66.7073716  94.7874073  86.1814976  90.9312248  34.4318771
  85.4024315  91.3584995  34.7878575  86.8985748  91.5311813  34.6370578
  50.3705406  86.8570042  50.7668781  49.8997498  86.3034821  51.3899374
  51.0307741  86.2790680  50.3843689  40.5480528  90.5191422  66.0104704
  40.9304571  89.7649574  65.5619240  40.9731150  90.5286026  66.8680668
  39.9076128  71.0075808  49.8368120  40.3949308  70.1899433  49.7357225
  39.4023108  70.8874035  50.6408358 108.9926070   9.7908915  12.2679389
 108.3710832   9.5344676  11.5866268 109.1203994  10.7300700  12.1343791
  39.9974513  93.4561348   9.5954376  39.4910836  94.1081238   9.1109419
  39.6025896  92.6183128   9.3538505  36.4881992  73.8841391  46.0274220
  37.0869780  73.3729935  46.5718699  35.6259251  73.7362480  46.4158106
  72.1758127 106.3364315  22.3763108  72.0700407 105.9383392  23.2403493
  71.2828302 106.4288139  22.0442224  34.4292235  57.6984882  56.7146158
  35.3588772  57.5236940  56.8609858  33.9907813  56.8837929  56.9601154
  68.8405704 100.5834961  33.0604076  69.2986822 101.3786411  32.7881956
  69.5381546  99.9474239  33.2185984  49.9257755  80.2697563   6.5139961
  49.4103384  81.0684586   6.4015514  50.5517197  80.4840565   7.2057348
  75.4970312  63.1280375  22.8930187  75.8435678  63.6985636  22.2069860
  75.7723808  63.5423088  23.7108159  36.3252163  83.5179424  46.1411190
  35.6882620  84.0497208  45.6639004  36.5208077  82.7907848  45.5501747
  53.3085203  86.4707184  19.8657238  52.5470924  86.2881088  20.4162788
  54.0421200  86.0679054  20.3302789  45.1642799  56.1433697  12.8491402
  44.5915318  56.5623665  12.2067750  45.6382704  56.8684483  13.2563615
  21.0522914  92.3371124  38.7670493  20.5755687  93.1508350  38.9308214
  21.0725760  91.8962955  39.6164656  65.3095102  90.3217793  13.7806177
  65.4504251  91.2571049  13.6338353  64.3961573  90.1756191  13.5343349
  40.8430672  68.7340593  30.2432609  40.8892918  69.3398333  30.9829426
  41.6200542  68.1828022  30.3362226  64.5990419  66.7055321  17.6445270
  65.1585388  67.3141670  17.1620834  64.9758577  65.8433104  17.4689770
  19.5024776  80.1172829   7.9790443  18.9516246  80.8654881   7.7488422
  20.3473806  80.3074932   7.5713742  58.9390898  76.3223267  46.9991732
  58.2130814  75.8205509  47.3697996  59.4639158  76.5797329  47.7571487
  50.2135181  81.9032383  31.4856005  50.6443548  81.7645168  30.6421733
  49.3925810  82.3435974  31.2656450   9.7517282  37.0565309  91.8576779
  10.0208741  37.9389848  91.6025819   9.8360997  37.0466127  92.8111006
  56.1410904  79.0174532  29.7486997  56.9714832  78.5699749  29.9113035
  55.5661011  78.7188053  30.4532790 104.2781657   7.9041995  22.1878505
 103.6580581   7.9063166  21.4586782 104.2321509   7.0148600  22.5388145
  62.6672316 105.2768898  27.6264238  63.3209419 104.7266293  28.0578160
  63.0183268 105.4218197  26.7478108 115.6474847  10.3100623  30.1885414
 114.9381608  10.7345046  30.6711864 116.1082953   9.7907389  30.8474684
  84.8442364  94.9634838  24.4116664  85.0522995  94.0365601  24.2944026
  84.8801994  95.0991058  25.3585267  45.6038237  82.5047398  48.1989765
  45.5474377  83.3661842  48.6124468  46.3404846  82.5780487  47.5921917
  53.5357571  92.9947948  12.7812839  54.0425110  93.7845325  12.9703450
  53.2376766  92.6905441  13.6384988   3.6561996  16.6296949  86.9409783
   4.0857965  17.4183358  86.6097309   4.3702823  16.0067357  87.0760329
  10.6034881  66.0539712  52.5231214  10.3283197  65.1402082  52.5976034
   9.9748546  66.4447011  51.9161745  66.4831018  78.0096531  14.6953940
  66.5989637  78.6301613  13.9758265  66.0190535  78.5074234  15.3685308
  67.4264193  95.7127190  20.1348424  67.2171497  95.3669548  21.0025311
  68.0859041  95.1108265  19.7898281  71.4840841  92.9833794  12.1238863
  71.5142012  92.9302120  13.0791342  71.1106443  93.8461018  11.9436729
  47.2429067  53.0254258  81.0318645  46.3220388  52.8926171  81.2568064
  47.6818925  53.1362333  81.8752177  40.8892250  67.0588446  40.0378895
  40.4097939  67.4561453  39.3108869  40.3312969  66.3365698  40.3264523
  46.5939713  76.0961390  18.1684875  46.4075565  77.0105267  18.3815217
  47.5409222  76.0124159  18.2802975  22.3560929  97.0368671   4.4752657
  22.7209163  96.8214512   5.3335953  22.6479697  96.3252449   3.9055035
  88.0594921  57.3404646  40.1265144  88.8600540  57.5649691  40.6007719
  87.9394531  56.4047670  40.2886677 105.5126797  53.4206285  89.8378761
 105.7221805  54.3082799  90.1284106 105.6556474  53.4383287  88.8915791
  40.6449509  85.6595325  32.8946066  41.5456343  85.5924797  32.5775790
  40.2078104  86.2234688  32.2565508  44.3587208  79.1506100  27.4092555
  43.8397837  79.7311068  27.9659986  44.9228287  79.7400522  26.9086790
  92.4429530   5.5300177  58.6204004  93.0824727   6.1866320  58.8962555
  91.9885415   5.9340228  57.8811312  52.9725504  87.8364372  32.7692652
  52.6078844  87.7743244  33.6520958  52.2321987  87.6531887  32.1908736
  56.0297346 108.4564209  54.2955112  55.2523994 108.3921623  54.8503494
  55.7482719 108.9857101  53.5492754  62.6469088 107.5243759  34.6844196
  63.5519695 107.8357124  34.6974492  62.7218056 106.5701199  34.6881294
  47.8858423  97.1160126  45.1982212  48.7917995  97.3469734  44.9929810
  47.3713303  97.8568649  44.8778296  43.4607840 106.0070801  54.7964811
  43.8926649 105.6744099  54.0096855  42.7240133 105.4119396  54.9350739
  49.2255259  76.5021801  10.8475721  48.4580421  76.8127966  10.3672373
  48.8662767  76.0971546  11.6369569  65.3184509  94.3743420  31.0434389
  64.8975039  93.9431190  30.2997494  65.2404308  95.3093147  30.8537364
  44.0196466 109.1621876  33.5327697  43.6239576 109.6565723  34.2505836
  43.9519215 109.7437477  32.7755165  46.0649776  95.6154728  18.2419670
  45.7376862  96.4758205  17.9794681  47.0106363  95.7353306  18.3291173
  48.4890842  55.9605265   5.1335245  47.7586937  55.9064102   5.7498312
  48.5605097  55.0784540   4.7687256  60.1925516  60.3057814  35.3588033
  60.3607368  60.4550600  36.2892127  59.4237328  59.7357893  35.3428197
  67.6907510  28.2830657   7.0618206  67.2819013  27.6763571   6.4445853
  68.1708902  27.7198351   7.6688379  23.5985947  87.0459461  31.2098432
  23.0043650  86.5264606  31.7513728  24.4406176  86.5959740  31.2787938
  28.0232793  55.6489171  95.1472918  28.9701730  55.7587995  95.0604223
  27.8540879  55.7600774  96.0828395  24.9587274  64.4929886  11.2764919
  24.8319650  64.3085670  10.3458190  25.7667828  65.0049067  11.3113260
  38.7364602 107.8746223  62.0333672  38.6215782 107.1630287  62.6631832
  37.8451705 108.1322861  61.7979050  37.1760178  85.9007263  20.4861474
  36.4891505  85.5384731  21.0458040  36.7161202  86.1856842  19.6965122
  30.2752429  57.0646943  86.2955429  30.5539399  57.4640073  85.4714628
  31.0659343  56.6494550  86.6399475  56.1389542  60.8727455  46.2094498
  56.2253046  61.7880392  45.9429693  55.3978109  60.5440521  45.7006311
   9.5268041  61.5788736  93.0862643   9.3082744  62.1368970  92.3398821
   9.1240769  62.0148076  93.8372635  82.7338982  91.7024231  28.2042909
  81.9699001  92.1875858  28.5159898  82.6382828  90.8315659  28.5899019
  71.1311007 101.2188911  15.4841781  70.2685976 101.5591431  15.2463865
  71.7429686 101.7179489  14.9430692  70.4525566  89.1580582  34.0751290
  70.9467745  89.4650364  33.3150339  71.1170006  88.8018417  34.6649170
  44.5363331 110.4211426   7.1545088  44.2221546 109.6871662   6.6264910
  44.7298717 110.0358582   8.0091047  86.5146828  84.6662045  33.8317513
  87.3215675  84.9112701  34.2846465  85.9172630  85.3960514  33.9949799
  49.2397499  97.6448345  23.3524776  48.6764145  97.5873756  24.1242170
  49.1399670  96.7970276  22.9194546   6.1350692  13.1686915  18.1804609
   5.9551967  12.7826346  19.0376878   6.3505805  12.4218405  17.6218891
  16.6749895  82.3086166  55.2275133  17.3866987  82.9232502  55.0488234
  17.0420396  81.4497280  55.0181913  63.1444407 104.7641945  33.8393807
  63.0022049 104.1804695  34.5845413  64.0961170 104.8461151  33.7775350
  37.1322823 108.7412643  41.1553001  36.4769936 109.3741131  41.4491224
  37.2771168 108.1765079  41.9144487  59.5734215  73.2448721  45.2975082
  59.9184465  73.8570261  45.9474754  59.6685886  72.3840046  45.7050514
  98.7727279   2.3256052  25.4777622  98.7792033   1.4154376  25.1814795
  97.8605527   2.4941290  25.7139182 101.5952128  26.4816130  47.5375032
 101.3452357  26.1908282  46.6604710 100.7681817  26.5371741  48.0162144
  32.5773191  93.5624886  42.9870367  33.0390644  93.9689732  42.2536945
  32.7725887  92.6290035  42.9051828   5.7822019  72.2650232  91.5902795
   5.4922277  72.9933538  92.1395274   6.0192185  72.6727571  90.7573264
  65.1937151  74.3175840   2.2612520  65.9570551  74.0914202   1.7298451
  65.2180338  75.2725935   2.3211657  56.0094213  74.6784019  40.4659605
  55.3239775  75.1186085  40.9685659  55.5406141  74.0364647  39.9327040
  95.7170266  20.9229983  11.0264909  95.4567689  20.3726138  10.2878630
  94.9831265  20.8655108  11.6383064  58.6641216  90.0772381   6.5959406
  58.1480265  89.9307537   5.8032107  59.2161942  90.8306217   6.3865072
   2.0335609  54.9659337  94.2839401   2.9023200  54.9669828  94.6857961
   1.4391547  54.7389306  94.9990516  58.7201643  84.5254230  47.0196152
  58.0961180  85.0751019  47.4935913  59.1753149  84.0348911  47.7040482
  57.6103735 103.7605286  11.6146719  58.3296347 103.7983894  12.2451198
  56.8529272 104.0947247  12.0951056  95.8382416  78.4340096  38.1174612
  95.6198502  77.5023937  38.1426287  95.4893684  78.7840271  38.9372206
  79.3462801  65.4976463  24.0616655  79.2145252  64.7838783  23.4376407
  80.2949905  65.6224823  24.0859652  43.0139446  76.9189787  25.9031725
  43.2826328  77.7330208  26.3290501  43.7833357  76.6443872  25.4043055
   7.9581386  18.1818713  91.3239660   7.0507604  18.2702007  91.6156779
   8.3670169  17.6180495  91.9805919 112.4524754   4.9632872  26.8801236
 112.7359981   5.8170451  27.2071481 111.7004985   4.7351397  27.4266696
  76.3328028  61.7136526  12.2146308  76.7933464  61.9819450  11.4195526
  75.4615927  61.4575386  11.9119155  55.7623672  85.8558941  16.8102169
  56.6665268  85.6380081  17.0366180  55.2679920  85.0599575  17.0059431
  59.3608141  84.4598103   6.9739068  58.8305902  85.2432823   6.8281156
  59.9952269  84.7207546   7.6414812  22.6152116  49.7782792  95.6347287
  21.7195684  49.9367513  95.3365037  23.1337863  50.4608144  95.2087529
  81.3460541  95.5028820   4.1317496  80.9170246  96.2435436   4.5602220
  82.0268250  95.9013557   3.5895348  62.8452682  81.1671162  31.7203474
  63.4099865  81.0811615  32.4884224  62.6266909  82.0984173  31.6867924
  98.9418983  81.8939686  41.5233898  98.0141163  81.7220783  41.6843367
  99.1241646  82.6985359  42.0088530  96.7919445  84.7599888   4.1923952
  96.9977379  85.0067616   3.2907367  96.5645218  85.5852890   4.6206272
  74.2907661  23.1085337  25.2827954  74.1889614  23.0175150  26.2302065
  74.0179938  22.2615088  24.9301267  11.2311584   6.9137229  73.3270712
  11.5473300   6.1397018  73.7930723  10.3928929   7.1172704  73.7419339
   2.7285919  57.9595041  16.9521105   3.3977687  58.6387634  17.0360279
   1.9578335  58.3279705  17.3838484  32.4758273  22.4023380  83.7192424
  31.5286809  22.5379743  83.7465759  32.5990563  21.5083255  84.0382929
  47.9847908  57.9550457  41.7455006  47.6313734  57.0891047  41.5418577
  47.6241302  58.5264397  41.0675144  60.4964399 102.3011112  15.2437925
  60.4161215 101.6814613  15.9689224  61.4174271 102.2520065  14.9876750
  40.4288006  87.5469685  11.7872226  41.2007046  87.9229164  12.2103786
  39.9865198  87.0614624  12.4835694  59.5711297  18.4197653  14.0092039
  58.7583929  18.7670172  14.3767786  59.4325012  17.4733485  13.9730525
  56.6230244  17.3139704   1.3825925  56.1118740  17.0876349   2.1595913
  57.2262329  16.5792788   1.2703377  20.6086982  16.9966353  29.7117090
  19.7242702  16.7059744  29.9342752  21.1380923  16.1998404  29.7447348
  22.4717879 106.6534901  13.7365329  22.6885724 105.7899380  13.3850944
  21.5837312 106.8238163  13.4225607  51.0068226  72.5593138  19.8860455
  50.6873989  71.7651415  19.4576907  51.7442846  72.8428364  19.3456769
  39.2474723  97.7363300  60.8195448  39.0989995  97.0155621  60.2074385
  38.5957503  97.6039886  61.5080070  16.8929273  37.9883756  75.7294329
  17.1411830  38.1497468  74.8191782  17.6918822  37.6586522  76.1407490
   5.1781398  11.7279996  80.7773455   5.8749991  11.1795224  80.4170795
   5.6307918  12.3397102  81.3579913  69.4202948 108.2914925  58.7935448
  69.1696405 108.7782192  59.5787191  69.2535257 107.3755836  59.0160942
  95.4660100   4.9104918  17.7670300  95.9320182   4.3474234  17.1489501
  96.1046571   5.0882853  18.4575045 111.2994212  13.6356104  41.7454481
 112.0215959  13.0455626  41.5297318 111.1918277  14.1780890  40.9641886
  69.4176006  93.5260391  16.8290460  68.8687563  92.8051186  17.1377301
  69.5315981  94.0860462  17.5969124  44.9924040  93.2914066  45.1865721
  45.8273363  93.0842304  44.7668171  44.9468088  94.2473793  45.1702070
  78.0799437  38.1535316  12.1282887  77.2532272  38.0562353  12.6008391
  77.8885555  38.7898731  11.4393246  80.9365749  74.4870615  20.6339741
  80.8943748  74.3931198  19.6823287  80.5385685  73.6847210  20.9717321
  30.2208543  83.1863213  11.3773930  29.4448042  83.7198448  11.2061346
  30.8869624  83.5354424  10.7852364  50.0555134  91.4714813  32.5835013
  50.1286221  92.2847271  33.0830097  49.2952728  91.0272980  32.9589629
  67.0831508  16.5333498   7.5393713  66.3446993  16.8585337   7.0244163
  67.1789187  15.6197394   7.2703201  69.0628481 103.9831257  58.4088326
  68.5293293 104.2561531  59.1551876  69.8998690 104.4295502  58.5366869
  68.6804056  87.7175426  26.9077969  68.2474422  88.5658741  26.8123555
  67.9647732  87.0981407  27.0507646  83.4017086  93.4463978  38.4738421
  82.8302383  93.5328484  37.7108359  83.3042049  94.2759705  38.9413309
  46.6769600 109.3422413  17.5716877  47.5728655 109.1367054  17.8387821
  46.1396933 109.0929317  18.3236313  64.3855333  87.2654438  21.3139772
  64.6635485  87.8868580  20.6410885  64.7420645  86.4251137  21.0259461
  49.2871952  81.0788155   9.8451370  48.4160900  80.8123970   9.5511609
  49.4763947  81.8726730   9.3449062  59.8260540  18.5933531   5.7072401
  58.9917344  18.1545962   5.8734870  59.7471637  19.4356097   6.1551291
  25.3998542 100.8202648  57.2567606  26.1874747 100.5798817  57.7447176
  24.6933985 100.3433037  57.6922607  71.3111210  97.1378899  25.7234979
  70.6428576  96.6652012  25.2272892  71.5765905  96.5264606  26.4104557
  80.4835606  82.7557564  20.3597784  79.8224354  82.7726078  19.6677780
  80.6786442  83.6777878  20.5271554  66.0600138  82.6086426  30.2057981
  66.0723400  82.2474766  31.0921621  66.9559145  82.9115868  30.0581241
  48.2806110  93.1845760  48.5829830  49.2124987  93.0856800  48.3879471
  47.8514147  92.5191879  48.0451345  85.7196999  93.6652184   8.0570501
  86.2745380  94.4438553   8.0112016  86.3336563  92.9314899   8.0265236
  47.7560806  82.6729584  17.2779143  48.3543158  82.1606541  16.7339492
  47.0254707  82.8843784  16.6967607  75.8190721   8.9731539  60.0255442
  76.3111657   8.9439047  59.2050457  76.2498254   8.3279932  60.5863047
 109.0321719  67.2322740  87.5347062 109.1957962  67.9985894  88.0844434
 109.8966228  66.9829644  87.2078963 112.8428143  28.7512434  42.6826859
 112.5307149  28.8887919  43.5770607 112.3060531  29.3371047  42.1489382
  84.0350312   3.8878096  27.7455497  84.3801612   4.0489329  26.8673944
  84.8106021   3.7183608  28.2803464  30.3591442 103.7968254   3.4787536
  29.7423744 104.4430161   3.8226402  29.9133205 102.9571629   3.5902894
  48.5644341  73.4087086  27.4669051  49.0798187  73.3778429  28.2729173
  48.4352875  74.3424988  27.3008060  61.5857077 108.3079243  49.3319559
  61.1669588 109.1164970  49.6270800  62.2882366 108.1573677  49.9644279
  41.3926983  99.5293045  24.9822640  40.7753420  99.5665932  25.7128191
  42.2495270  99.4310951  25.3975201   1.8751533 102.3270321  27.9413247
   1.6330892 103.2030106  28.2418346   1.0619906 101.9593525  27.5951934
  47.0085526  89.8327732  41.0806036  46.9168806  89.8042297  40.1282310
  46.2630463  90.3546238  41.3774490  77.6901502  24.3089808  28.8980055
  78.1257528  24.3597353  29.7488332  77.9079265  25.1358260  28.4677315
  81.1431694 100.1210308  16.7276895  81.8908215 100.5307293  17.1628892
  80.4825974 100.0365448  17.4152517  62.0498085  67.7197838  17.8356755
  62.4471760  68.5421085  17.5491309  62.7125359  67.0552111  17.6476038
  76.4527225  93.6209106   3.4013915  75.8559990  94.3138409   3.6842382
  77.2569799  94.0808392   3.1608394  73.1745958 109.9828243  12.7658796
  72.9292250 110.8431721  12.4255502  73.5652971 109.5317364  12.0174813
  36.1024690  92.3661423  30.2512813  35.6650710  91.6362953  30.6897187
  36.8666792  92.5503635  30.7974315  30.5343986 108.7271118  39.8322129
  31.0665774 109.0345383  40.5660391  29.6309543 108.8413429  40.1271248
  10.6864799  13.0871714  35.5612230  10.7974303  12.3312701  36.1378765
  11.5784324  13.3848990  35.3822994   5.7417613   9.9381437  73.0997677
   6.6521674  10.1323976  73.3225961   5.2600223  10.7257022  73.3525773
  63.9179230  97.5695229  31.8239880  63.8693953  98.3035564  31.2115526
  64.8520851  97.4736500  32.0094061  54.0607548  81.3637352  38.1718302
  53.4234953  81.9538975  37.7695298  54.7360516  81.9440174  38.5232377
  44.8692322  94.6660233  26.7686296  45.7295132  94.6214867  27.1859574
  45.0579071  94.6648884  25.8302093 105.4320394  59.3835820  93.1354267
 104.5504295  59.5020665  93.4889227 105.9351289  60.1132287  93.4970057
  48.4558630  80.5013084  43.0082512  48.5508919  79.9446154  42.2354078
  48.3528757  81.3851833  42.6555586  45.4715252 109.3328953  20.2881026
  44.7641230 109.5114708  20.9077144  46.0420370 108.7164116  20.7471180
  65.5981827  70.3521109  13.4533775  66.0824966  70.4069328  14.2771912
  65.5706215  69.4164038  13.2535565  52.0740366  92.4664783  22.6663423
  51.4994097  92.2900772  21.9214153  51.9068050  91.7458439  23.2737541
  43.0335617 108.4785175  39.8278880  42.2093105 108.3240223  39.3663955
  43.4819126 107.6330662  39.8069191 109.0529269  12.4143351  60.1133347
 109.4532603  12.9237689  60.8179235 108.2902450  12.0022715  60.5192280
 100.3808183  21.3835371  57.7104712 100.4972285  20.4422511  57.8395844
 101.0097903  21.6109599  57.0257044  84.7391701  80.9802151   9.3944216
  83.8554859  81.2150288   9.1112322  85.0029469  80.2786064   8.7991196
  49.1993618 109.5184898   6.2003064  48.9272547 110.4225731   6.0427618
  48.4450579 109.1122723   6.6272074  51.8093824   2.1117618  88.3664580
  51.7568254   1.1578014  88.4249146  52.2025061   2.3812893  89.1965433
  55.9342813 102.8341007  39.5599294  54.9846935 102.7142811  39.5726705
  56.0552359 103.7778378  39.4552684  43.6862326  29.6659506   7.3465222
  43.0619389  30.0898112   6.7575967  44.1509712  29.0391863   6.7920703
 105.0829953  11.9236411  26.9739318 105.3263682  12.5456370  26.2882733
 105.7735080  11.2611044  26.9523716  82.5411910  13.1919135   6.8533671
  81.6395110  12.9164828   7.0187169  82.9846782  13.0769766   7.6938081
  57.6387137  12.5744475  41.6520834  57.4335784  11.8594111  41.0496902
  57.1429068  12.3694743  42.4447966  60.8952045 109.0841770  54.5718670
  60.5498409 108.4976292  53.8988781  60.1196861 109.3980598  55.0369358
   4.5033818  49.9285211  84.3923433   5.3590327  49.5000829  84.3692656
   4.4967252  50.4920186  83.6186107  63.6638641  78.6987305   6.3379157
  64.5817471  78.7912846   6.5931737  63.2223606  79.4356060   6.7601871
  86.6099328  39.8210753  38.5481334  85.8783072  39.2642630  38.8144279
  87.2689122  39.6932925  39.2305183  93.5486888  68.6463536  69.1963001
  93.9968848  68.8028325  68.3651181  93.6447500  67.7059640  69.3468829
  17.4576884  79.6662511  89.5478340  16.9567329  78.9106073  89.8548807
  16.7943603  80.3218068  89.3322469  59.4444609 101.0777855  49.6864796
  59.9782372 101.5904999  49.0794945  58.5507059 101.3875294  49.5398712
   1.6754037  82.8568639  80.2272876   1.4847785  83.4814061  80.9271760
   0.8365422  82.7306260  79.7838874  61.7162085  71.4409494  30.3967881
  61.6657829  71.4506197  29.4409680  60.8104467  71.5525007  30.6855559
 107.5806159  26.9837702  39.9064970 106.6862697  27.0018614  40.2471685
 107.4985951  27.2864855  39.0021372  73.2740068  98.9066029  27.1150970
  73.1918573  97.9533958  27.1446061  73.0362654  99.1398335  26.2177038
  73.0765200 101.2301636  41.2482309  73.7573957 101.3178158  41.9152784
  72.7034044 100.3617477  41.3995075   4.1439611  63.0241670  92.9544889
   3.9364797  63.8341703  93.4204106   5.0681287  63.1120481  92.7212031
  40.9657556  54.0922536  86.9316943  41.3603955  54.9127473  87.2271379
  40.4763156  53.7749566  87.6906450  11.9544662  29.9387969  72.6118612
  12.0933402  30.5527819  71.8907738  12.7876914  29.9301566  73.0829096
  94.2622601  69.9470987  92.4034964  93.8321852  69.8576249  91.5530481
  93.5553133  69.8473252  93.0410738  20.6294883   1.5432681  23.6398673
  20.8756030   0.6885756  23.9936423  21.0169852   1.5608634  22.7647829
  69.4798899  77.8262758  12.0336723  69.0526915  77.2467947  12.6644921
  69.3445158  78.7057400  12.3864508  70.1954651  95.3428650  11.8980837
  70.0429249  95.5258656  10.9710062  70.5726004  96.1521721  12.2430801
  95.6996554   1.0925997  47.5464630  96.4317626   0.7607401  47.0267344
  96.0790080   1.7966879  48.0723667  47.7687025  90.3970242  25.8422542
  47.3723745  91.2680912  25.8223987  47.3257542  89.9487114  26.5627050
  31.9783240  43.4215345  88.0678888  32.3911363  44.1555013  87.6127912
  31.7851239  42.7888669  87.3760553 112.1436137   6.8202818  39.2779851
 112.8439921   6.1678923  39.2686653 111.4000482   6.3677538  39.6761799
  86.3308877   7.0458163  39.0001750  86.9984597   7.4209631  38.4258604
  85.7166165   6.6163386  38.4048104  72.5984478  88.8359737  19.3530047
  72.0559216  88.1610775  19.7609460  73.1683350  89.1436100  20.0578594
  93.9832801   9.7218646   3.5660365  94.7773713  10.2264822   3.3899099
  94.1286963   9.3409766   4.4320682  66.7947191  16.7883814  10.2267110
  66.9847602  16.7055930   9.2922264  66.2846416  17.5953139  10.2968264
  91.8777865   9.7404421  25.4182243  91.6563195  10.5717123  24.9984860
  92.3788804   9.2639388  24.7563505  83.2901382 101.1045456  18.2182503
  83.0116367 101.0770035  19.1336238  83.2597065 102.0327568  17.9864609
  68.0068398  95.9646988  35.2241349  68.4254026  96.7892551  35.4714084
  68.0926704  95.4104710  35.9998250  79.2773980   7.2427691  24.2319107
  79.9497336   7.9239024  24.2475271  79.7282046   6.4542712  24.5340443
  66.1477900 101.6962051  13.4692061  65.4832268 101.1269665  13.8572073
  65.6656742 102.4778461  13.1993198 110.4035443   4.2365397   6.9602448
 110.7465476   4.7081889   6.2012190 109.9469060   4.9048365   7.4712139
  91.4494705 107.6194096   6.8148488  92.0213890 108.3795452   6.9213814
  91.7839718 106.9782448   7.4419487  69.2662621 104.1697884  38.5567617
  68.6631536 103.5195827  38.1965852  69.3068933 104.8545170  37.8891325
  85.0427628  92.7790737  26.8175626  85.5380821  92.1800709  26.2589169
  84.2966747  92.2618675  27.1210217  73.4972042   4.8651446   6.1441922
  72.5968379   4.7419108   6.4448333  74.0369767   4.5872248   6.8842179
  95.0221443 101.4985180   5.2911943  95.3230762 100.7897186   4.7226223
  95.4798222 102.2749233   4.9687612  76.8812847 108.7310219  11.7749631
  75.9331799 108.5993767  11.7755628  77.2390223 107.8947544  11.4767683
  95.5347222  27.2826327  21.3331008  95.7208842  27.8913058  22.0480156
  94.9548644  26.6274107  21.7212582  58.6761522  92.7523041  29.0826607
  58.7475777  93.3211231  28.3161306  58.8395262  93.3316517  29.8269010
 103.3113784  18.5041464  16.9874585 103.3935613  18.7804163  17.9002309
 104.1329688  18.7776698  16.5795267  61.7554140  92.6527214  27.6832747
  61.0812140  92.9265213  28.3051467  61.4193583  91.8384457  27.3087811
 102.3325986   6.7688693   2.1576309 102.0462626   7.5006617   1.6110770
 103.2587689   6.6576518   1.9429761  30.6004506  68.1555070  92.0119406
  31.5284806  68.3675183  92.1121802  30.1437121  68.8467683  92.4913000
 104.0751285   9.1436804  16.2507641 104.0918321   8.7560118  15.3757405
 104.1198462  10.0871600  16.0956252 107.7926415   9.9584521  18.3489513
 108.6315507  10.3843821  18.5251725 107.3416776   9.9590910  19.1932642
  49.8306608 104.4086742  52.1018171  49.7427511 105.2354717  52.5760746
  50.4090977 104.6141720  51.3673687 113.8889229  35.8055295  66.6686841
 113.4732949  35.4178323  65.8985038 113.1617700  36.1602391  67.1802063
  20.2777338  98.2040882  27.8006148  20.3759599  97.2709656  27.6111937
  19.4504762  98.2657528  28.2781839  94.3891782  19.0318717  24.1966224
  94.7599524  19.9087084  24.2962289  95.1345271  18.4829081  23.9530683
  91.5074891  13.2731570   7.4291778  91.3685626  12.8973616   8.2984924
  92.3129338  12.8614272   7.1161824  85.8804625   2.7192248  29.2594051
  86.7357987   3.1250132  29.1181159  86.0044879   1.8045653  29.0059376
  71.8736267 104.8276329  30.5232215  72.2425508 105.3055000  31.2660289
  72.6100159 104.7131062  29.9225187  64.5201159  73.4685421  27.5705910
  64.1893864  73.9155483  28.3497167  65.4385185  73.2871485  27.7702594
  83.1264973 103.3252525  25.2782607  82.7025223 102.5600147  24.8898172
  83.7260818 103.6368084  24.6002722   3.4815866  65.7338418  93.9845456
   4.3301660  66.0889997  94.2491314   3.2118827  66.2818135  93.2475092
  72.2041893 101.2996864  31.1865568  72.3362446 100.4039478  31.4971113
  73.0872345 101.6633797  31.1218667  36.6534310  59.4536199  79.9353536
  36.1144000  59.4998826  79.1457124  36.4426881  58.6026849  80.3197034
  84.1968727 100.6649780  29.8070812  84.0834522 101.2133503  29.0307760
  84.4928265 101.2704182  30.4868484  40.1378202 102.5970936  35.9904957
  40.4859877 103.4199524  35.6471062  40.9137392 102.0885086  36.2261462
  10.6060392  34.7347058  75.9208937  11.0987884  35.5070295  75.6434877
  10.5737334  34.1788186  75.1423212  84.2324924 106.0813904  13.3695376
  83.3734989 106.3634491  13.6838603  84.4364929 105.3064442  13.8930607
  59.6980858 109.0858269  10.3945482  59.6721411 109.4499874   9.5097065
  58.7990713 108.8043213  10.5641472  90.9796047  61.7372704   3.1291917
  91.8813896  61.4207840   3.1825686  90.4584026  61.0452080   3.5361686
   1.2750798  63.3000840  80.8037360   1.3395101  62.5860013  80.1695688
   2.1370727  63.7158193  80.7847102  68.8984585 105.3494930   7.1646601
  69.4856024 105.4651451   7.9117358  68.1057167 105.8282471   7.4067008
  56.3631201 107.3795223  37.4072218  55.6538630 107.2886944  36.7708755
  56.3759422 108.3126831  37.6200104  34.8454076  20.2767410  95.5708082
  35.2996999  20.2019014  94.7316135  33.9804536  19.8998775  95.4093695
  78.6498684  24.8285902  44.6578455  78.6702293  25.3104437  43.8310194
  79.3834895  25.1834143  45.1599693   4.4034065   2.1775950  56.0423136
   5.0015414   2.8525580  56.3630867   3.7348235   2.6610507  55.5570173
  27.3737031  30.4867639  94.8191676  27.8763705  31.1599721  94.3605238
  27.3990136  29.7291364  94.2347108  54.1277981 107.2333813  14.4660378
  53.9086866 106.7920494  15.2866793  53.3007336 107.2700500  13.9855683
 106.6003770  -0.0863325  19.8717952 107.3865193   0.4594363  19.8904026
 106.2692660   0.0010146  18.9779449  87.0727539 105.1945496  30.3348327
  86.6194248 105.8037949  29.7521305  87.7718449 105.7158661  30.7294607
  44.1682148 107.6444054  50.1321220  44.8442602 107.5004482  50.7942963
  44.1566181 108.5929108  50.0039482  51.4757204  87.2600746  11.2010431
  50.7931471  87.0121002  11.8246078  51.9740629  87.9427147  11.6503537
  62.6154566  86.8555355  32.4406862  63.2100630  87.0354843  33.1688952
  62.1932077  87.6959801  32.2629476  75.6978083 106.1187172  13.2982886
  75.6937361 105.1795387  13.1134748  76.2139940 106.5003109  12.5882375
   9.5880473  -0.1008092  22.0699668   9.9897636   0.4724730  21.4171243
   9.6310294   0.3981246  22.8857160  23.5266238  45.9701719  87.1551468
  23.8582212  45.0726976  87.1837469  23.8325292  46.3646783  87.9718591
  51.3073987   6.3428153  27.9469633  50.7974130   6.7911089  27.2722936
  52.2192031   6.5138377  27.7111793  91.8783444   5.0187911  39.3223524
  91.8409318   4.4214285  40.0693464  90.9659785   5.1209773  39.0514660
   9.6426803  66.4393033  86.7519911  10.2318841  65.6849374  86.7553242
  10.1080686  67.1044625  86.2448384  33.2374078  54.4016160  93.3315662
  33.9339810  54.8366727  92.8398977  33.4634906  54.5502843  94.2497235
  75.1229000  77.0817614  31.6028905  74.5201778  76.4107656  31.9233918
  75.9867764  76.6729975  31.6563511  82.3024339   8.1522311   0.7063010
  82.0138902   8.6347903  -0.0683661  82.1251649   7.2351683   0.4970147
 102.9054851  30.3527773  13.2323694 101.9738454  30.5074061  13.3884752
 103.3448333  31.0909976  13.6545444  42.2562313 109.8163891   2.8679898
  42.5037718 109.4067287   3.6969298  42.2861528 110.7562351   3.0469444
  30.3757000  84.6857071  45.9846354  30.7032919  85.5729675  45.8373260
  29.4235611  84.7820854  46.0040140 116.0572976  51.3445509  26.0220075
 116.6618079  50.7303465  26.4386034 116.6231555  52.0144118  25.6381869
 114.6015281   1.7109908  34.3000317 115.1329011   2.0623339  35.0144744
 113.8138789   2.2548903  34.2974782  11.8728793  17.3721350  43.3693075
  12.2517265  17.9654635  44.0178967  11.8077338  16.5316714  43.8227367
  82.0243997   3.9879836  11.6679263  82.3653144   3.7966670  12.5416565
  82.1870345   4.9234713  11.5469170 106.7264766  12.1359194  61.5686607
 107.1318072  12.8413332  62.0729733 105.7934302  12.3495711  61.5651369
  79.7901297 104.4643116  36.3380909  79.4637537 103.5991478  36.0907054
  79.8929596 104.9281216  35.5071068  69.9559879  91.4316750  22.4189758
  70.1138020  91.8802071  21.5882277  70.8255959  91.3322163  22.8064418
  12.7830392  78.0992498  85.5305137  13.4735089  77.8478517  84.9170943
  11.9718724  77.8212156  85.1051505  84.8416346  28.8460577   6.7911929
  85.0945729  29.5285929   7.4128002  85.6523103  28.3674849   6.6179770
  34.9033284  96.1782169  69.3766499  34.8924446  96.3347530  70.3209019
  34.9650407  95.2267361  69.2922974 108.8245219  11.8995036  30.8635354
 107.9857224  12.3303832  30.6992412 108.5884351  11.0491980  31.2343168
  15.5765594  13.7381876  31.2755656  15.9040797  12.9807223  31.7605543
  16.2259067  14.4232882  31.4343739   8.9016498  19.4742526   4.5902073
   9.4803680  18.7467421   4.3620664   9.4859279  20.1409091   4.9513498
 115.7140646  31.1587644  19.1141665 116.1547481  31.3108420  19.9501705
 114.9758036  31.7680144  19.1182649  21.3834190  46.1948633  18.9115059
  21.9950438  46.6100693  18.3034348  20.5211926  46.3453197  18.5240018
  21.4285374  31.9013071  42.1191263  22.3137426  31.9089031  41.7550087
  21.0414076  31.0898352  41.7906809  22.4065232  45.5054903  39.3418837
  23.2342744  45.7050848  39.7791719  22.6208591  45.5117798  38.4090114
  48.7888336  34.8362422  32.5577664  48.7938929  34.2635846  33.3247519
  48.3576632  34.3203115  31.8764877   7.8285074  49.7166872  12.0357311
   8.0959475  49.3770981  11.1816895   7.4852484  48.9533567  12.5002015
   8.5644192  83.7494946  45.4253435   8.3180445  83.8297176  44.5038795
   9.3910730  84.2270565  45.4946947 103.8140117  33.1554212  90.0222679
 103.0566227  32.7013101  90.3915556 104.5467674  32.8901471  90.5780800
 111.0466259  78.4231163  90.8888109 111.7036836  77.9844881  91.4292865
 111.5360945  78.7476183  90.1329334  76.2077349  94.8338843  50.9163900
  76.2246364  93.9692498  51.3266941  75.5567329  94.7554017  50.2190586
  67.0675962 104.5389605  85.3811796  67.5854962 105.3402901  85.4578968
  66.8631499 104.2984820  86.2848397  38.5518789  29.2992783  18.3688223
  38.5308814  30.2481771  18.4928429  39.4068384  29.1282129  17.9738379
  29.0035796  63.2325125  28.2546043  29.7890782  63.5101557  27.7832890
  29.1162968  62.2894192  28.3733296  18.4508193  31.7560029   7.1487904
  17.9109919  32.2668242   7.7520150  18.2917976  30.8454585   7.3974895
 103.7679195  66.7896032   4.8801544 104.5779991  66.3963652   4.5555484
 103.2927895  67.0462275   4.0898213  21.3858366  29.7860384  16.5413976
  21.2664843  30.4891324  17.1798670  22.0841265  29.2444611  16.9092488
  36.9529200  71.2342691  21.4286399  36.7519498  72.0060730  20.8993387
  37.6845241  71.5073490  21.9821858  17.9170442  90.2582550  41.4163303
  16.9854093  90.2116489  41.2015820  17.9407465  90.2983379  42.3723936
  31.9768023  54.6348238  11.3747334  31.7186713  54.6431684  12.2964334
  31.7027855  53.7744617  11.0570467  56.9995499  18.6921775  15.0550699
  56.4363432  18.2457256  15.6872952  56.4966536  19.4614863  14.7876990
  78.9553111  58.3544532  94.0736973  78.5045927  58.0015189  94.8408492
  79.8595779  58.0551908  94.1684485  53.7070608   6.3956815  17.8512967
  53.1463861   6.1427951  18.5847294  54.3909597   6.9355136  18.2476509
  51.1653185  42.4261045   2.1259043  50.4026127  42.0638800   2.5767943
  51.9073772  41.9342184   2.4775171   3.2421857  13.4474744  82.8611322
   3.2559806  13.1550922  83.7724801   2.3233396  13.3794536  82.6016553
  45.2081633  80.3664875  14.3720853  45.7577372  80.1495457  13.6189973
  44.9809551  79.5190620  14.7548199  52.6208019  31.2028193  19.3769526
  51.7686653  31.0610628  19.7892535  52.7538967  32.1496749  19.4215226
  37.7449656  50.6027079  22.9841757  37.1301651  50.2324867  22.3507833
  37.1937370  51.0906172  23.5959959  38.2424521  13.2292879   9.5477015
  38.5772610  14.1010237   9.3374377  38.9407039  12.8217053  10.0600982
  63.5569572  38.6842752  20.0945663  63.0015230  37.9081178  20.0217080
  63.9689016  38.7656045  19.2343819  25.2187657  27.9964304  15.5558074
  25.2496529  27.0949626  15.2354455  24.2914772  28.1567430  15.7309282
  34.5539308  62.4497986  21.9244766  33.9842319  63.1626320  22.2135186
  34.6189547  62.5645685  20.9764099  24.2171121   4.3074059   7.0310396
  25.1516962   4.4320339   7.1961176  24.0417457   4.8243767   6.2447703
  50.2636915  77.8955484  74.8569890  50.0912063  77.6933289  75.7765491
  50.7465690  78.7217046  74.8799272  25.1277375  44.4634628  37.5092602
  25.7487655  43.8302946  37.1491838  25.3973413  44.5712852  38.4213567
  25.7193947  93.0703640  42.4162626  26.4055300  93.3190918  43.0356026
  25.8234835  92.1247387  42.3105383  18.9349735  22.4386644  20.2152014
  19.5001161  23.1814408  20.4276371  19.2785907  22.1056700  19.3861830
  76.4350551  81.6808916  82.6546152  75.5452888  81.4477778  82.9195781
  76.3505285  82.5555301  82.2750206   8.0211335  70.1428413  25.5703759
   7.3923934  69.5032167  25.9047389   7.9026055  70.1213837  24.6207857
  11.7792702  45.4290295   6.9445264  11.6972184  46.2534475   7.4239308
  12.7028167  45.1926947   7.0307916 101.5860998  10.9411086  94.8811862
 102.3675882  10.4159679  94.7087530 101.8452822  11.5309276  95.5891220
   8.8645226  94.7492790  12.0377219   8.8944548  95.5548763  11.5216231
   9.5606327  94.8543262  12.6862800  70.1277297 104.9138308  84.0335591
  70.6185716 104.4252301  83.3728190  69.3969100 104.3395377  84.2623051
  17.5955134   4.2860402  78.3889814  17.7892858   4.0645112  77.4781521
  17.4740773   5.2354945  78.3839293  36.7221260  33.0534410  16.3078201
  36.3547349  33.8636827  15.9546006  37.1431947  32.6342511  15.5573452
  79.3226528  63.2283020  39.5425749  80.0444984  63.3689499  40.1552582
  79.0158606  62.3418903  39.7333264  95.2604532  16.4981116  86.6854955
  95.8868157  17.0651378  86.2356217  94.8579489  15.9834232  85.9859820
 103.6713921  12.7960052  93.5160715 103.5492265  11.8953265  93.8162090
 103.0617296  12.8893079  92.7840619  90.1418846  79.1063739  91.1275585
  90.1999252  78.1588507  91.0048314  90.4646271  79.4746304  90.3050877
  48.4519434  35.2065539   7.6273531  48.2888460  34.7054648   8.4264410
  47.5815582  35.3637075   7.2613466  22.2346401  54.4500780  30.1280928
  22.9287314  54.9686813  30.5349326  21.7878962  55.0635481  29.5447397
 109.2864930   9.2621698  59.9829550 110.2185475   9.2813911  59.7658487
 108.9544069   8.4790935  59.5439358  44.6004772  14.3941736  10.3056467
  45.2581549  13.7905884   9.9601316  45.1074743  15.1299500  10.6488931
 106.2219488  14.5218791  91.6422437 106.9814216  14.1223563  91.2182023
 105.5265056  14.4695844  90.9866084 111.6135012   7.7900161  89.8413851
 112.2052657   7.8668012  90.5898185 111.7604243   8.5900535  89.3368210
   5.0509208  46.0443544   2.1727578   5.8718216  46.3313484   1.7727725
   5.0592500  46.4377928   3.0453223  47.3073053  74.4680309  13.7234783
  46.6819286  74.5901060  14.4377851  47.7770662  75.3004122  13.6715472
  58.9013665  90.8358575  77.6376136  59.5487039  91.4512039  77.9819055
  59.0367740  90.8509517  76.6901584  48.8161945  76.6984081  13.7209046
  49.7523546  76.5033340  13.6786699  48.7574387  77.4695492  14.2849278
  28.8215494  66.3448334  37.2839665  29.0706038  65.4339027  37.1277475
  28.6262083  66.6923428  36.4137292   6.8647683  29.2150450  12.0841694
   6.4125186  29.8381877  12.6528478   7.7863842  29.2902374  12.3315585
  49.2586756   9.0892613  61.8037701  50.0408316   8.6178100  62.0904732
  49.3053198   9.9298823  62.2591972  46.3721239  95.2750493  69.9603005
  47.0246278  95.4225589  70.6449266  45.5316900  95.3245211  70.4157730
  39.4846201  45.1440525  20.5417013  38.7579656  45.7591248  20.4422379
  39.5361853  44.6957254  19.6975589 107.5601017  24.8311080  89.6018620
 106.8584978  25.1062574  89.0117081 107.3055279  23.9523448  89.8832871
  44.2906189  58.2275200  26.9596553  43.8435888  58.6055517  27.7169442
  44.2133474  57.2815228  27.0835376   6.2934691  27.3449516  18.3624959
   6.0028023  27.9667068  19.0297008   7.1855295  27.1146297  18.6221373
  71.7128515  21.8226743   6.2935174  71.9273901  20.9069896   6.1154020
  70.7695770  21.8203974   6.4561987   7.0566875  29.0875329  74.9783369
   7.8433448  29.4614019  74.5813199   7.0413142  28.1809415  74.6716018
  43.8581944  73.6645794   3.2439029  43.5947180  72.7449751   3.2102054
  43.3998632  74.0721321   2.5090122  63.6901999  13.6470425  13.0079377
  63.1954908  14.3970156  13.3381379  64.1029882  13.9668465  12.2057140
  87.8679180  57.9731798  22.8782940  88.6833858  58.2509565  23.2955170
  88.1447506  57.3664331  22.1916699  10.7578593  15.6210460  81.3754185
  11.2173349  16.2221660  81.9617374  10.2310592  15.0740232  81.9580658
   8.9947695  35.4545116  15.1191759   8.7908322  34.5270920  15.2397323
   9.0976739  35.7946229  16.0079765 115.0093471  18.1312408  89.9410130
 114.6569359  17.5414981  89.2745032 115.7978689  17.6907052  90.2578606
   1.5428233  13.7194943  14.4291317   1.0788527  13.4355569  15.2167499
   2.2017777  13.0410683  14.2816544  12.8221905  30.5578041  31.4591360
  12.8135383  30.6606579  30.5075169  11.9037449  30.4256177  31.6941166
  64.7718304  91.5110040  91.4873283  63.9057105  91.7763639  91.7966022
  65.2929252  92.3133851  91.5169074  76.7538948  18.6127223  36.7183824
  76.9744409  17.6839866  36.7893739  77.3875177  18.9621391  36.0917564
  39.6103549  47.3582554  26.3155484  39.6219778  46.5211153  26.7795491
  39.9938345  47.9801846  26.9339180  31.3555288  45.7680941  26.4392948
  31.3087916  46.1829424  25.5779314  32.1056819  46.1833906  26.8647695
  41.7619085  31.9296288  16.3302052  42.3658133  32.5326777  16.7636430
  42.2736692  31.5506005  15.6155932  96.8993234  22.4554576  74.6326561
  96.7544686  22.9825629  73.8469000  97.7658951  22.7195014  74.9417992
  62.4018717  19.3088412   5.8213985  62.7324486  18.5048699   5.4206723
  61.4524984  19.1898465   5.8490723  40.3585339  56.6455746  52.2345924
  39.5174146  56.3630390  51.8755245  40.1334381  57.0848560  53.0547142
  37.9983773 106.2237406  64.0873642  37.0700063 106.4481021  64.1507788
  38.2007364 105.8030463  64.9230071  25.9936452  53.6593342   0.7724306
  25.1553774  53.3237600   1.0901229  26.5680599  52.8937864   0.7578037
  62.7068560  79.8425246  80.6206961  62.7418082  80.6979824  81.0487183
  62.1565621  79.9825669  79.8501130  29.9448466  68.4879255  19.8709691
  30.7730746  68.5360193  19.3935239  29.7287464  67.5555086  19.8823583
  31.8798685  36.2901163  22.6724195  31.5153646  35.4169536  22.5276566
  32.5092411  36.4079094  21.9609094  96.4704704  16.5497673  20.8400178
  97.3002529  16.5808082  21.3161778  96.5293121  15.7563984  20.3077269
  44.2863369  24.8362041  16.4072692  44.1617107  25.6385803  16.9141150
  44.3672943  24.1467500  17.0663059  33.4528303  38.4738064   4.2160702
  33.6289787  39.4145775   4.2283794  34.1566300  38.1053209   3.6821070
  94.2309605  26.4961232  79.7616382  93.9611160  25.6648816  79.3711837
  93.9917170  26.4158715  80.6849773  74.4799798 103.8575125  86.4541961
  74.3793505 104.5974923  85.8554168  73.5837906 103.5832024  86.6486927
   4.3842447  53.6796045  29.6833062   5.2327561  53.6210966  29.2441726
   4.5861593  54.0373755  30.5478644  12.0324433  12.4211049  51.9300795
  12.7478480  12.9665208  52.2571087  12.1726835  12.3841226  50.9839296
  46.5075731  58.3398390  13.9497089  46.5658092  59.2773056  13.7653375
  46.8508911  58.2487726  14.8385692  54.6915727  92.5038911  87.9883851
  53.9767294  92.0953942  87.5001623  55.4082136  91.8713451  87.9379274
  61.3471937  30.8235979   8.1537104  61.3978910  30.1409054   7.4846858
  60.4168940  31.0438919   8.2011008   6.5366995  86.2924815  75.7037707
   6.4360869  85.5055118  75.1682444   6.8202078  86.9673014  75.0869461
  51.8903857 109.5240355  57.2509475  51.2100499 108.8826180  57.0460959
  51.4118891 110.2811146  57.5887294 102.7027767  61.3814992  72.1248456
 102.5450962  61.7725170  72.9841919 102.6255005  62.1122105  71.5113945
  31.7843819   6.1071390   7.6504892  32.4217701   5.6049645   8.1582177
  32.1526623   6.1383885   6.7675257  95.0599026   1.7615833  84.7090884
  95.4044198   1.2642421  83.9673396  94.4205093   2.3587693  84.3207844
   5.4293567  19.1116418  68.6839624   5.9737521  18.8812579  67.9311080
   5.2593547  18.2771386  69.1209240  99.0812605  80.8083797  89.8637434
 100.0312822  80.7024980  89.9135752  98.7362736  80.1739073  90.4919623
  30.0933552  27.0489645  25.8752632  30.8247948  27.2246814  26.4671683
  30.1762509  26.1196542  25.6613827  60.0487804  44.2987299  34.5110011
  60.3662682  43.6232185  35.1102662  60.3582335  45.1208639  34.8912215
  53.0322409  59.6786690   1.1245330  53.1962729  60.5480814   0.7592253
  52.0781660  59.6057224   1.1501038 102.0284807  24.8507346  87.7529665
 101.9428765  25.5267419  87.0807208 101.4887344  25.1646985  88.4784551
  60.2955389  45.0774288  11.6509199  59.6300077  44.4412374  11.3890779
  59.8088837  45.8900213  11.7890882 113.1992137  27.2028436  86.7559691
 112.7375852  27.2591485  85.9193327 113.8234722  27.9281415  86.7343624
  64.3653631  61.5485716  48.8341141  63.7022066  61.2429667  48.2151937
  64.2198086  62.4927235  48.8942957  60.3744524  99.7708703  71.0545845
  60.9676044  99.9156762  71.7917653  60.4696696 100.5543996  70.5130644
  47.8459644  55.9111023  22.5079226  48.6422586  55.4606438  22.7894092
  47.2343206  55.2061081  22.2955418   7.9219484  60.0171661   8.4554368
   7.4149674  59.9469376   7.6465672   8.3070374  59.1487503   8.5729015
  41.0985374  55.8648586  21.8088031  41.4262009  56.3629436  21.0599542
  40.1598120  56.0510206  21.8280315 112.0245587  22.1686877  86.5338756
 112.8323590  22.5011195  86.1424931 111.9135010  22.6871528  87.3308005
  73.2662344  52.7812433  34.6304321  73.0414248  53.5836267  34.1594005
  72.4225044  52.4133253  34.8930979  45.2482319  59.2915773   8.5483170
  45.5613613  59.1898060   9.4471067  45.7586718  60.0216532   8.1980735
  75.1323049  99.6066952  77.4991532  75.4795544 100.1227236  76.7715796
  75.6329482  99.8992825  78.2607170  46.1777592  47.8598452  23.5820174
  46.8644333  48.4996986  23.3941340  46.5158081  47.0358086  23.2314157
  58.8745451  43.3747387   8.9561445  58.3427477  43.0867720   9.6980989
  59.4209385  42.6177120   8.7449592  51.0485411  47.9879665  31.0089636
  50.6716108  47.1595812  31.3054991  51.3693571  47.8027916  30.1263428
  52.2704649  41.7727089  30.4347157  53.1383801  41.7020845  30.0372601
  51.6660309  41.5215969  29.7362638  26.2733269  61.5433884  11.2035859
  25.7958698  62.3341465  11.4545250  27.1485543  61.6651583  11.5715289
  69.7960806  47.6507473  13.8050079  69.9466085  47.6555014  12.8597307
  68.8564444  47.8074026  13.8986981   2.2598582  26.9643487  72.8679891
   3.1817514  26.7664136  72.7031775   2.0329505  27.6171865  72.2057553
  87.4216836   7.2663440  81.0327847  88.0011462   7.5691785  81.7318888
  86.7058372   6.8245782  81.4895506  88.4025502  22.2594012  79.1893466
  88.0123531  23.1210603  79.0426369  89.3386900  22.3918094  79.0398689
   9.0273863  75.2316093  27.5072789   9.6396291  75.7713556  27.0072150
   8.7066370  75.8109999  28.1984067  41.1430579 107.9042102  68.5697885
  40.2358170 108.1635667  68.7306614  41.6553744 108.6871768  68.7716027
  51.0564756  35.7466435   8.1858140  50.7926035  35.1792955   8.9101911
  50.3890657  35.6041789   7.5146210 105.9105080 106.0320950  85.1919623
 105.0420349 105.6466819  85.0760122 105.9856193 106.1737824  86.1356338
  20.4967046  51.1226749  35.9039521  21.0080385  50.3152609  35.8505559
  21.1520648  51.8175125  35.9667110  38.7019444  42.7489519  36.2233400
  37.8306365  42.3637486  36.3164592  39.2125440  42.0792007  35.7684231
  29.7153091 105.8039570   7.3040694  30.3258467 106.1705780   6.6644865
  29.7856951 104.8565960   7.1866661  61.6589308   4.5348024  18.7740636
  62.0812321   5.1770014  18.2035613  61.0898352   4.0333530  18.1901896
  26.9332486  19.2088355  83.8717063  26.9748431  19.9648895  84.4572659
  27.7618009  18.7507571  84.0127869   8.7456876  13.7780084  82.8183992
   7.8892642  13.4121741  83.0396028   8.6472350  14.7197904  82.9583402
  36.7480850   4.9629435  22.9383945  37.2970986   4.6574479  23.6605358
  36.5506291   5.8738357  23.1563830  23.4975463  33.5688676  83.8876374
  23.9553195  32.7462758  84.0608902  23.8027459  34.1620053  84.5741327
  25.7123375  76.8942404  20.4404855  26.4589572  77.1957874  20.9580374
  25.4660368  77.6526356  19.9109542  41.6260767  97.7044964  12.7923334
  40.9581518  97.4291706  13.4202695  42.1641636  96.9244194  12.6575446
  40.5662775  21.3595986  23.5709310  39.6711135  21.1823153  23.2820058
  40.8971548  20.5095005  23.8609028  44.4505453  33.3527184  11.0483027
  44.8717976  33.5553432  11.8835986  44.5734215  34.1417217  10.5204713
  24.8386186  99.5386267  62.7482982  24.5934193 100.2757216  63.3075853
  25.1741164  99.9453784  61.9494076  37.0345855  73.8453722   6.3594770
  36.6896605  73.5865974   5.5049044  37.7819943  74.4076347   6.1558223
  56.4299696 106.5324498  90.9023093  55.7114988 105.9005690  90.9298937
  56.7941742 106.5197945  91.7874231  42.6926041  55.0394678   5.8065575
  42.9845095  54.6420145   6.6269553  43.3072090  54.7120857   5.1498163
  87.9660212  25.1966085  93.1615505  87.8343933  25.5330171  92.2751309
  87.2421055  24.5848693  93.2955243  53.4668970  81.0565853  11.2970674
  53.1013918  81.3501358  12.1316123  54.4062281  80.9753990  11.4623070
  60.0840282  35.8568692   2.9836363  60.2629852  35.0598097   2.4847360
  59.9781370  35.5558634   3.8860849  40.3562975 101.3873768  32.3164320
  40.8518267 101.1686897  33.1056452  41.0042238 101.3627148  31.6122890
  73.6856666  19.0384521  86.9188710  74.1204979  19.7354783  86.4276417
  74.3921923  18.4402265  87.1621390  39.0455985  35.6383204  15.6416607
  38.9582086  35.8910632  14.7225761  38.1449366  35.5773211  15.9599686
  11.8515325  67.8303671  20.0601292  11.9503188  68.2275724  20.9254050
  11.1862755  68.3643866  19.6259797  36.3395548  54.6317959  15.0468946
  35.4752445  54.9561977  15.2998006  36.3180113  54.6135902  14.0901101
  39.8237228  38.6986613  24.8851252  40.5779648  38.2298183  25.2422452
  39.4568491  39.1681004  25.6342983  63.0900002  60.8115673  51.6809034
  62.4662542  61.1360455  51.0313797  62.5646353  60.6723595  52.4688435
   8.4015507  75.2684689   4.7131440   8.0922723  75.2920723   3.8075936
   7.6208937  75.4467106   5.2375841  21.1618495  48.7659073  53.7330341
  21.8577194  49.1844177  54.2398310  20.3947401  49.3202353  53.8761950
  67.9849768  37.8952360  12.9981673  68.0103731  38.7704253  12.6113451
  67.8133011  37.3116255  12.2591424  35.7403803  73.4944153  40.4239607
  35.7700753  73.9660788  41.2563562  35.4183507  74.1395807  39.7944498
   7.5482207  15.3554191  88.3738162   7.8684980  15.0407495  89.2191787
   7.7728301  16.2858381  88.3638527  26.9013267 109.3460799  87.3969878
  27.4639337 109.6473218  86.6835745  26.9906252 110.0182534  88.0725946
  41.6135406  56.7748785   8.1918448  41.3372993  57.6491642   8.4666997
  40.8127689  56.2511683   8.2187712  80.7694817  44.5362806  21.3177061
  80.9345055  43.5947037  21.3669705  81.6332436  44.9237585  21.1762500
  63.2777977  71.7125082  36.8766999  62.8495264  71.0140800  36.3817096
  63.6464834  71.2720203  37.6423883  77.8465932  77.5931049  92.3378886
  77.5081508  76.9769669  91.6882260  77.3709410  78.4061027  92.1675278
  61.9068605  30.4876699  81.0183223  61.6462308  30.4494561  80.0980826
  61.2964326  31.1094655  81.4145215  52.7283096  90.9316254  33.9117718
  52.5397921  90.0073624  34.0743804  51.9819307  91.2416840  33.3989286
 110.7500922  70.1525164   4.0139014 110.9427648  70.5747366   4.8510641
 110.7065874  69.2189789   4.2208847  60.8235931  48.3398151  19.4305468
  60.1421404  48.9735603  19.2064452  60.9712410  47.8506136  18.6211574
  49.6185875  36.2272453  30.1469493  49.0511274  36.1982274  29.3766379
  49.2535734  35.5689526  30.7382584 107.3907399  70.8032322   1.5070425
 107.5993353  71.5656757   0.9672293 108.0103951  70.1314878   1.2224062
  13.9444238  13.3633842  92.5933467  13.1262427  13.8355579  92.7478315
  14.5326310  14.0194358  92.2193928  51.0043097  66.2370205  18.5874212
  50.9369135  65.6682539  17.8204799  51.7174053  66.8397713  18.3766842
  10.2652961   0.3657760  94.6724484   9.8223001   0.0779142  93.8742493
  11.1849576   0.4473294  94.4198546  27.8107095  45.2140522  11.5850270
  27.6226926  46.0484266  12.0147967  28.6653328  45.3436422  11.1738610
   0.6980115  16.8175687  63.4338136   0.4451090  15.9014453  63.5478135
   1.6374570  16.8312492  63.6168237  53.3338881  41.6413784  26.2241006
  53.7345028  41.5672207  25.3579354  53.4303856  40.7698727  26.6080308
   7.7891475  23.0997791  94.7348149   8.5137540  23.0119552  94.1155724
   7.0065909  23.1330766  94.1846083  93.0174958  34.9188508  74.5344086
  93.9395928  35.0767507  74.7369833  92.8359079  34.0543641  74.9030824
 102.4229973  59.2377714  94.1395551 102.9269998  59.1746277  94.9508676
 102.2459095  58.3291013  93.8962639   8.5792106  42.2282076  39.6959972
   7.7893960  41.6921663  39.7673202   9.2599785  41.6157532  39.4172716
  51.9617319  77.7352619   2.9778728  51.1961174  77.2572851   2.6591128
  51.6010618  78.5286617   3.3736831  46.0567713  64.3456602  25.5967712
  46.0424948  64.1598845  24.6578789  45.4734659  63.6902905  25.9794974
  26.8256259  72.8268290  63.7620878  27.2051430  72.8911161  64.6384811
  26.5788174  73.7249660  63.5414886  13.5183811  62.8442574   3.6155662
  13.4149218  62.4603558   4.4862816  14.4292557  63.1372976   3.5896984
  90.3252316  37.5833583  21.4517927  89.7243023  37.4155307  20.7258797
  90.8821392  36.8056130  21.4864087  81.8765736  45.9369040  28.2916451
  82.5963593  46.5566158  28.1728721  81.1167526  46.3762856  27.9097605
  61.8979263  68.0033970   1.4757851  62.1764612  67.2527838   0.9511612
  61.7377281  67.6405191   2.3469260  82.1683805 100.8260489  95.0800299
  81.8224256 101.2950087  95.8393898  82.9067390 100.3237820  95.4246850
  67.0097351  43.2228565  32.5406957  67.0884562  43.2863188  33.4925389
  66.4967442  43.9914465  32.2910166  63.7894535  55.0386858  24.6680903
  64.7189951  54.9872351  24.8906636  63.4172058  54.2233992  25.0042057
  45.3622532  35.7376122  15.9420025  45.9021282  36.1670780  16.6055739
  44.5778322  36.2828565  15.8818185  98.4187853  23.5620107  81.5397640
  97.6982974  23.9260997  81.0253997  98.4225404  22.6302327  81.3206680
  89.2138910   4.6654309  83.4161087  89.4805836   5.5846538  83.4281023
  88.4371316   4.6340980  83.9745839  71.3272429  78.5168028  32.0214009
  70.3947926  78.7306499  31.9891667  71.5773535  78.6725616  32.9321241
   6.1370402  12.7978267  89.2259224   6.5497285  13.5239400  89.6935566
   6.6500789  12.0294131  89.4760515  37.0462847  61.3496923  44.1923332
  36.9731379  62.2082520  44.6091747  37.8404999  61.4081717  43.6612606
  64.9001074  38.9509749  30.5593705  64.6121788  39.3826294  31.3637376
  65.6979513  39.4171977  30.3097463 105.3812968  16.4799775  74.5203157
 104.9058949  16.7705287  73.7419792 105.7410752  17.2838725  74.8952075
  98.1181162 100.7524348  92.5845511  98.4420126 100.8998872  93.4731344
  98.9083927 100.6262160  92.0594244  99.7432410   3.5490741  58.5337229
 100.0489413   4.2089881  57.9113932  99.2711150   2.9133023  57.9960247
  38.5253173  16.7184438  80.3676339  38.1157857  15.8533515  80.3562768
  39.3501168  16.5991773  79.8967715  22.5922227  11.4490545  14.7595835
  22.7737761  10.8970368  13.9989603  22.7561951  10.8810294  15.5123734
  83.9166737  33.6125898  23.9887333  82.9643726  33.7089729  23.9963889
  84.2003536  34.0983510  23.2142711  70.4298544  55.6056261  41.6536188
  70.0512218  55.3529215  40.8115911  69.8210573  56.2555647  42.0045853
   0.6764612  64.0311432  11.6053903   0.6043908  63.3721733  12.2958946
   1.4407650  64.5525551  11.8507469  93.1118082   4.3835153  93.1321280
  94.0158343   4.1631259  93.3566253  93.1677150   4.7572650  92.2526868
  56.8209457  65.7639313  43.5360193  57.1845388  65.3471375  42.7547932
  57.5323153  66.3113022  43.8685369  16.6741598  57.1013641  11.7480707
  16.5502751  57.9745150  12.1202195  16.2713599  56.5104675  12.3843277
 110.2846395  12.2141971  85.6369962 111.2100422  12.2539748  85.8784022
 110.1528084  11.3134851  85.3410776  21.5293002  93.1294250  60.3762484
  22.1681547  93.8314915  60.2529669  21.9102764  92.3767757  59.9239159
  36.9387245  32.8952909  20.6589556  37.1886754  32.1545434  21.2112689
  36.7117310  33.5895014  21.2776470  74.9089670  44.6601677   8.4013110
  74.2014408  44.7897291   7.7697641  74.4857740  44.2462492   9.1535163
  36.1515689  71.0864878  13.7354183  36.0686350  71.0787964  14.6889877
  36.2976694  70.1701832  13.5003114  13.4589660  77.3923445  36.2811017
  14.0988183  78.0708027  36.0654378  13.3641040  77.4461794  37.2320676
 116.3625320  71.1734581   2.5201899 115.8638380  71.8303871   3.0059701
 117.0457538  70.8928823   3.1290558 107.4152147   2.7789058  65.7336255
 107.1940934   2.8669538  64.8064871 107.5336468   3.6786260  66.0381027
  27.8226018  81.8036556  21.9924331  27.0710135  81.2905312  22.2891760
  28.3743095  81.8918133  22.7696586 107.1754324  20.5735101  80.9697576
 107.3384606  20.5166806  81.9112583 107.0482122  21.5077438  80.8046718
 112.1377050  33.4346856  83.6221333 112.1379124  32.6970853  83.0120714
 111.2828910  33.3908643  84.0506216  16.7103994  28.5816908  17.1875572
  15.8609784  28.2876968  17.5166225  17.3412502  27.9782748  17.5801754
  44.3618202  54.0473652   4.0669087  45.2040720  54.4372368   3.8327172
  44.0668631  53.6150885   3.2654288  31.8522692  20.4986000  21.3165879
  32.3791909  19.7017527  21.2564206  31.2964988  20.4776239  20.5375433
  30.4954100   2.9906765  23.0401373  30.5521154   3.1321198  23.9851284
  31.1332512   3.5997540  22.6680923  30.3830600  85.8854294  12.4574196
  29.5255470  85.5019855  12.6414669  30.2109265  86.8220997  12.3612022
  57.5230837  43.9051533   1.7860478  57.8404474  43.9379501   0.8835868
  57.9120159  43.1089115   2.1479276 100.1504289  10.0241651  75.9543713
  99.9163687  10.9419049  76.0929485  99.8691403   9.5816936  76.7551990
 108.8789284  16.0017766  73.1713768 108.1653988  15.6459512  72.6417561
 109.4888388  16.3724317  72.5335260  96.8732291  85.5066013  38.2719874
  97.3244780  85.9980869  37.5856614  97.5748223  85.0678062  38.7530851
  60.3325510  25.5892539   5.5442029  60.4613256  26.2971854   6.1754560
  60.9254026  25.8006191   4.8230374   6.6691881  97.7532196  21.7433071
   7.3511553  97.9734135  22.3778653   6.4158744  98.5940647  21.3624716
  78.5844326  69.2764664  28.7577748  77.8805494  69.2441797  29.4056511
  79.0848541  68.4743738  28.9076138 113.9768925  57.1088123  42.2849083
 113.9148753  56.3356256  42.8457737 113.2918232  57.6943159  42.6075459
  70.5404902  69.9191380  17.5257921  71.0623026  69.1256094  17.4063861
  70.8425856  70.5104494  16.8363523   2.9181462  16.2613095  83.2168086
   2.8749496  15.3263463  83.0162902   3.2515699  16.6631641  82.4145802
 109.8712694  35.6069745  73.5177989 108.9265858  35.7121362  73.4049101
 110.1373922  35.0402631  72.7937503  70.7118862 101.5739775  93.7411027
  71.2689751 100.8584977  93.4345512  70.0433057 101.1450148  94.2751663
  11.9243824  51.5892792  54.5432758  12.5758672  51.0128784  54.1438246
  11.9555819  51.3759804  55.4758883  79.4931456   8.2105865  78.0174275
  78.7233169   7.9623307  78.5292526  79.5425842   9.1624393  78.1055470
  81.3438416  47.7122498  24.1903353  81.8809032  48.4596872  24.4532537
  81.9461727  46.9684219  24.2025495 112.5996592  54.6560621   5.5518180
 112.0504751  55.4136658   5.3501487 112.1353217  54.2044497   6.2565649
  45.9699249  60.2639055   3.3534819  45.9501028  61.2119246   3.2227370
  45.0520420  59.9964333   3.3067212 109.9983423  96.3311148  89.0044470
 109.1708534  95.8928300  89.2029233 109.9660175  97.1437932  89.5091678
  25.8016467  43.4115982   1.3808085  25.4820013  42.7556562   0.7612952
  26.7436862  43.2508183   1.4350562  90.0472992  99.4493056  82.7530475
  90.2839058  99.1930772  81.8616469  90.3342312 100.3596688  82.8247221
  41.6013002  56.0291767  36.6600299  40.7792330  56.4446449  36.9204712
  41.8563986  56.4849472  35.8578873  57.5736761  40.2897024  23.2782102
  57.4623489  39.4272518  23.6782265  58.5189247  40.3762484  23.1547451
  81.3078945  95.2260209  90.1639153  80.4254740  95.4667044  90.4461177
  81.7553728  96.0626412  90.0372036  72.9533577  58.6948538  28.0078769
  73.0179787  58.8704348  28.9466143  73.3696890  57.8403854  27.8948140
  47.9569578  75.4581833  38.6918497  48.6060190  75.3899956  37.9916334
  48.0098248  74.6193886  39.1499543 100.9193408  14.8535623  73.6059995
 101.0486924  14.3887796  72.7792736 101.6225278  14.5354451  74.1721793
  46.7595053  33.4097195  20.8099985  47.0213795  33.0099607  19.9806333
  46.7436886  32.6823545  21.4320278 113.7377369   8.4143295  86.6497959
 113.1606256   9.0298976  87.1017344 114.1038763   8.9185847  85.9232284
  73.5014074 108.1575824  83.5195930  73.8392871 109.0516139  83.5723122
  72.9973810 108.1396056  82.7060409  57.6381445  59.2428637  38.4103942
  58.1316471  59.2931747  39.2290235  57.4758530  60.1556063  38.1720829
  39.5346498 100.7978821  29.0427685  38.7745452 100.2706909  29.2888045
  39.3214917 101.6809082  29.3445325  38.4703523  -0.1058827  61.2250038
  37.6748830  -0.5353127  60.9102889  38.1752568   0.7530297  61.5273662
   5.0842488  88.7261677   2.8034380   4.1301221  88.7446213   2.7290499
   5.3971171  88.9852333   1.9367038  15.5130797  31.4881791  89.5771720
  15.2244264  31.7242231  90.4587574  15.9088117  32.2886361  89.2323645
  47.9164362  50.9754419  16.4896524  47.1008635  51.4501381  16.6500676
  47.6467419  50.1899385  16.0137546  26.9949865  82.3536873  14.3625116
  27.3723865  82.2005844  15.2287459  26.4634490  81.5761089  14.1919982
  78.6751127  48.4444809  33.3527088  78.5218382  48.6657572  34.2712831
  78.5732651  49.2741203  32.8862810  39.7710299  52.2431517  10.7737243
  39.0958619  52.6649904  11.3051677  39.3549299  52.1058226   9.9227059
  84.0039890 100.0998116  89.0176369  84.8304241  99.8096562  89.4037028
  84.2627066 100.7207347  88.3366402  10.0707793  64.6379566   6.8224853
   9.9433166  64.8528528   5.8984703  10.9559834  64.2761612   6.8643475
  51.9981861  52.7385330  20.6192803  51.9347620  52.6706743  21.5719652
  52.1288490  53.6722279  20.4538369  19.3758345  90.2308559   8.9333862
  18.5298562  89.7864723   8.8779473  19.4304609  90.5295181   9.8411578
  93.6870830 103.5646105  89.8113127  93.3694761 104.1309500  89.1080232
  93.2582777 103.8980532  90.5994578  29.2059880  34.1577901  88.2584371
  29.7555333  33.5269345  87.7934124  29.5707065  34.1869153  89.1429486
  57.2472191  46.3592243  35.5948400  57.7918243  46.2287712  36.3711262
  57.8551435  46.6742849  34.9259639  79.3335121  83.7490226  65.6432863
  79.6294468  82.8787995  65.9104343  79.1338175  83.6585284  64.7115322
  63.9110327  13.8060975   3.6287925  63.5541296  13.0165720   4.0356088
  64.4536209  13.4810138   2.9103553 115.3203761  26.7886342  94.7549639
 115.6337725  26.5901841  95.6373662 115.9786832  26.4055719  94.1751968
  17.1984893   1.5491285  80.6179960  18.1320602   1.7175760  80.4903205
  16.9089109   1.1655702  79.7901924   2.2213203  28.3513917  83.6359222
   2.9900628  28.9009275  83.7885077   2.1441775  28.3067407  82.6828809
  38.2977462  36.4672256  19.3485057  37.8122854  35.6746054  19.1197813
  37.8613710  37.1648502  18.8595009 103.5730540  20.2347078  92.9373403
 103.7429106  19.4068946  92.4877806 103.8290583  20.0712289  93.8450669
  29.6925717  18.0336179  91.5433885  29.5395261  17.1497192  91.2094177
  28.8242608  18.3483447  91.7948161  35.0494176   1.0900583  82.0078297
  34.5491773   1.1612024  82.8208037  34.8295146   0.2232970  81.6663666
  74.9555445  72.7512932  34.6234441  74.5985746  72.2323942  35.3442430
  74.7016573  73.6513472  34.8275876 110.2139776  91.5119839  69.2697282
 110.6559770  91.3780690  68.4313174 110.7449453  92.1703220  69.7179432
  28.2303929  56.9800329   2.9076758  27.5070286  56.4041567   2.6600072
  28.9294410  56.3842154   3.1770489  18.2456904  26.4150800  91.2558516
  18.8079959  26.1238469  90.5380543  18.8301354  26.4666547  92.0121564
  66.9306421  29.5943952  43.7641573  66.4405155  28.9103127  43.3080482
  66.4915657  30.4084539  43.5176897  19.2972648  55.7080460  21.0701537
  19.2014575  55.5246258  20.1355886  18.7869895  56.5055037  21.2112689
  50.0678301  23.5926867  13.7243211  49.2944002  23.6988378  13.1704521
  49.9243450  24.1952419  14.4540942  54.6272612  24.4187737  27.2310877
  54.1633177  23.6286759  26.9540858  55.5539608  24.1915846  27.1546388
  44.7337055  62.0178270  26.7313910  44.2084789  61.5007067  26.1206841
  44.1688347  62.1323586  27.4956131  11.6682607   2.7554454  80.1246555
  10.9228164   2.8677692  80.7145079  12.2329122   2.1236505  80.5698915
  11.7732030  18.3556356  66.3626667  11.3452416  18.8586225  65.6697817
  11.0723096  18.1602182  66.9845911 102.6893442  85.5433059  76.3956948
 102.3008697  85.1747728  75.6022819 102.8592842  84.7845126  76.9538947
 113.2703459   0.3947105  68.1686349 114.2085516   0.2157582  68.1055494
 113.2191717   1.2841357  68.5186882  38.5118228   7.2682752  86.2594070
  38.9898330   6.9519128  85.4928215  39.1775685   7.6983346  86.7961224
   9.9198425  45.8437729  16.2166321   9.1390014  46.1019516  16.7063892
  10.6178260  46.3947153  16.5709138  43.7837219  59.0134859  50.0030994
  43.6340761  58.7419844  49.0974903  43.3552551  58.3384848  50.5294275
  22.5070977  80.2224827  22.2514200  22.3608112  81.1612701  22.3676276
  22.9262829  79.9428511  23.0652523  97.5418090   7.0583667  91.0360347
  96.8509542   7.1196641  91.6957273  98.2758247   6.6500987  91.4951311
 110.2643978  23.1832494  93.9543966 109.5081078  22.6314391  93.7549991
 110.9383928  22.8978719  93.3375335 104.5485317   8.2920207  89.3178763
 103.7133943   7.9267825  89.0256800 104.4575917   9.2353381  89.1832818
  28.2835579  51.3312912  42.3590565  28.0688930  51.4618826  43.2826900
  28.5965347  50.4279661  42.3112965  68.9356034 103.4273959  92.7657940
  68.3024614 103.1275464  93.4180649  69.7108071 102.8870154  92.9183729
  63.4995317  73.4365940  24.7350526  64.1448450  73.5013962  25.4390430
  63.3432674  72.4971199  24.6391153  25.5630589  71.6616106   1.0371394
  25.3925943  70.7490969   0.8037129  26.4691162  71.6646290   1.3458182
  15.7247376  42.1185160  41.2512493  16.3953996  41.4393616  41.3233185
  14.9501944  41.6571045  40.9296703  74.2355537  48.6111927  16.2677407
  74.1197062  49.1091156  15.4584897  74.3484259  49.2779875  16.9451487
  98.3648574  16.0836066  57.4470587  97.5496363  16.4933242  57.7365108
  98.7035667  15.6461515  58.2281728  79.9724516  17.0990409  56.9567342
  79.1254951  16.7185010  57.1892949  79.7708208  18.0033673  56.7163654
  66.2218523  48.4014559  16.5984821  66.4630890  48.2007313  15.6941879
  65.3720903  48.8365078  16.5287507   0.8124402  61.6597557   5.2157885
   0.2534321  61.0335541   5.6758040   1.6109076  61.6997671   5.7421732
  95.2730720 105.0423861  86.4354886  95.9817045 105.6090975  86.7402883
  95.7056492 104.2194558  86.2076821  58.4765816  65.6604433  35.5317235
  58.1615400  65.8285809  34.6436286  58.8879585  64.7976637  35.4805994
  26.9634509  89.5410347  46.6649866  27.5495696  90.2665043  46.8803644
  27.3276162  89.1693211  45.8615923  50.2461815  58.5836077  48.8137960
  50.4957581  58.0735731  49.5843840  50.7035971  59.4176817  48.9201927
  69.1985321  54.1052198  22.3100352  69.1494370  55.0597954  22.2589874
  68.2874298  53.8156414  22.2623944 110.9720980  17.1498861  71.8309112
 110.6620919  17.5370969  71.0122581 111.7291867  16.6230144  71.5750642
  40.2187282   0.7504787  93.6767155  41.1749631   0.7429923  93.6344755
  40.0153810   0.4341258  94.5569456  53.6651611  92.0689487   5.9591889
  54.2517281  92.3023701   6.6786927  54.1884375  91.4943790   5.4003626
   6.7388087  57.0512666  84.9024864   7.4283486  57.0735635  84.2389555
   6.4146024  56.1509027  84.8808320  70.1710463  43.6073351  19.9349105
  70.6711102  43.5793447  20.7506204  70.5944872  44.2925358  19.4177783
  69.2120695  84.1789436  15.2023566  69.2459917  84.7587967  15.9631801
  69.9435377  83.5746574  15.3289580  39.1978765  47.6514387  32.9976153
  39.5726180  47.3493624  33.8249898  39.8591518  47.4325275  32.3410869
  72.0441437  95.9364223   1.7052843  71.1334705  95.8869934   1.9959140
  72.0289707  96.5537262   0.9738939  38.4086734  43.2339467  89.2019542
  38.9485246  43.8889589  88.7595113  38.8652831  42.4061860  89.0518131
  18.4974319  10.5467071  94.2080949  17.6703054  10.8891477  93.8692267
  18.3013373   9.6410693  94.4480924  87.5633066  91.3875175  91.7821591
  87.3089331  92.2878910  91.5800347  86.9046705  91.0874344  92.4085637
 101.5879076  87.3638654  83.0763026 101.1752861  88.2081748  83.2582815
 101.5733736  86.9042803  83.9158268  10.4826289  21.5844764  93.2045841
  10.2606422  20.6723251  93.0176781  10.7833177  21.9344844  92.3659466
  32.1092653  92.9202938   3.8832092  32.5554633  92.0735645   3.8966227
  32.7643371  93.5309029   3.5451663  42.4700165  60.2895641  13.8781214
  41.7588949  60.9173059  13.7497675  43.1816912  60.8074665  14.2543244
  28.4285450  96.8977928  30.3077483  29.0844607  96.5205765  29.7214723
  28.8979697  97.0458984  31.1286855  55.6745338  25.3984737  40.0153112
  55.5720901  25.1714921  40.9395504  55.4513550  24.5950842  39.5452166
  52.5570869  85.3335667  26.8695736  53.3819389  85.0159550  26.5021825
  52.7405500  86.2380219  27.1236014  52.9186249  51.6567087  41.9572115
  52.1374702  51.1194420  42.0889997  52.6396084  52.3394442  41.3470840
  53.8150883  93.4279060  31.3866472  54.7635698  93.3019924  31.4142513
  53.4609747  92.5500488  31.2444758 105.5335045  79.0017080  20.7290268
 106.3217163  78.5112047  20.9621644 104.8474503  78.6302567  21.2836313
  21.6792440  91.4530754  12.7775240  21.6997600  90.6872177  13.3513451
  22.1708083  92.1223354  13.2536495  60.1290512  93.9325619  10.3993666
  59.2302656  93.6117458  10.4734564  60.0391483  94.8172474  10.0451267
  79.1237800  96.9605017  53.1048103  79.4318407  97.8543616  52.9553218
  78.2240050  97.0658160  53.4139200  69.3314743  43.7874603  13.5124242
  69.6646357  42.9593849  13.8581479  69.9755716  44.4391060  13.7894249
  77.6902294  67.7019405  26.1683440  78.2647753  67.2444677  26.7822242
  78.1923103  67.7413464  25.3543448  46.4596891  76.0634089  41.4127016
  46.4235592  76.2374830  40.4721594  45.6484842  75.5911589  41.6002131
  51.3641262 107.1691895  23.7922859  50.7506895 107.1086788  23.0599856
  51.9983053 106.4704037  23.6318517  50.5078363  74.2939901  22.2216296
  51.4638996  74.3000650  22.2678518  50.3086710  73.7620592  21.4511657
  57.8513813  54.3585014   7.9238802  58.4881020  54.3550158   8.6385888
  57.1027994  53.8709593   8.2676232  12.2049552  31.6948976  82.7389176
  12.7062684  31.0264291  83.2058902  12.1186286  31.3518037  81.8494995
  63.0825615  76.6974497  47.3932981  62.9033232  75.7640457  47.5067091
  64.0011072  76.7970753  47.6434565  38.0833936  79.7039080  37.7006292
  37.7155685  80.5254173  37.3749781  37.3481488  79.2653608  38.1287956
  88.4267712  85.7726479  35.0790524  88.9915466  86.2299538  34.4560432
  88.7923145  85.9886169  35.9369373  14.5876533  17.8210820  65.9306236
  15.0747138  17.3110856  66.5778513  13.7081843  17.8997125  66.3001962
  55.9716082  83.0414391   4.7166094  56.4833784  82.6337433   5.4152596
  56.4718580  82.8659534   3.9196223 111.1931407   9.1000117  84.4509526
 110.8575308   9.1148128  85.3472670 110.4703056   8.7497796  83.9303012
  19.5170367  67.7078295  25.2196407  20.0986075  67.0765686  24.7959471
  18.6732626  67.2588444  25.2714992  84.2689233  18.5270013  90.5006905
  84.5250159  19.4474735  90.4425748  83.8338225  18.3463754  89.6674474
  31.1034995  33.0274762  84.5996101  31.1021119  33.9401330  84.3110128
  30.1784259  32.7828588  84.6248885  85.3404045  76.8975115  22.8611684
  84.6712399  77.2444296  22.2711778  85.3282452  75.9527206  22.7079940
  46.1074638  53.5939837  21.9582486  45.2554178  53.9775038  21.7504978
  46.0517025  53.3763504  22.8887105  60.1783848  89.1687584  16.6191614
  59.6939325  89.9459076  16.3406467  59.5056343  88.5716915  16.9464934
  56.8026114  81.7522621   2.0386451  57.3198986  81.3475895   1.3423088
  57.1345520  81.3564587   2.8444916  51.1423159  28.1983066  32.5865054
  51.3520050  28.6303306  31.7584848  50.3527689  27.6908040  32.3986459
  75.1123428  92.4941444  -0.0411445  74.6410608  92.7986145   0.7343734
  74.5945835  91.7555046  -0.3614148  47.9138070   1.2165918  93.9279810
  48.5827619   1.3510789  93.2566826  48.3760625   1.3461007  94.7560950
  19.7842789  85.8155060   7.6370478  20.0647616  84.9741745   7.2768867
  19.8082471  86.4152050   6.8913782  88.1716156  91.9119644  28.1231022
  88.2824421  92.6589680  27.5349450  87.3887062  92.1220398  28.6321831
  38.7255573  80.1373386  23.7055111  38.1537056  79.8171329  24.4031429
  38.7730074  79.4119120  23.0828214   0.5178529  40.5757417  91.2313588
   0.2323752  40.1205720  92.0235439   1.2732059  41.0927858  91.5112417
  71.5726328  59.2499352  32.3758411  72.5183058  59.2987394  32.2359991
  71.4351702  59.6611261  33.2292199  18.4290439  39.0947427  93.3093444
  18.5011226  38.3234109  92.7471228  17.9901916  39.7480668  92.7645441
  24.7559381  79.5971537  24.9754190  23.9565086  79.1716051  25.2853465
  24.7050452  80.4865360  25.3256035   6.4933854  38.6125650  80.2427145
   6.1407071  38.9636029  79.4250234   6.3449031  39.3065252  80.8850570
  22.6660132  89.2873669   0.2488738  22.9006958  89.8052120  -0.5211855
  22.7655172  89.8924732   0.9838387  25.3917694  83.7564659  45.2092695
  24.7715616  84.1854286  44.6197224  24.9874759  83.8260555  46.0740995
  25.2774507  19.5222367  70.8762117  24.6254378  20.0199022  71.3696094
  25.5691606  20.1233138  70.1907607  97.1688366  69.6975851   5.7336962
  96.7094707  69.9885321   4.9459374  97.6703739  70.4628420   6.0148972
   1.4082461  37.6169194  86.2644763   1.4545184  38.2008065  87.0215537
   0.7280379  37.9980840  85.7092615  92.4068802  64.8327900  88.3050330
  93.2036178  64.7272266  87.7851285  91.8014925  65.2941228  87.7245940
  19.4174272  46.4259137  70.9585734  18.5013562  46.7018880  70.9882517
  19.9113685  47.2425832  70.8858128  16.9518643  26.5382947  72.7220340
  16.6318255  25.7293309  72.3228021  17.0828420  26.3150872  73.6435814
  90.2473425  26.2955655  88.8998802  90.8356249  26.4445485  89.6401246
  90.4433464  27.0077314  88.2910778 111.0195839  22.3189153  89.6815641
 110.2543461  22.0007028  89.2026217 111.0585129  23.2532491  89.4772716
  25.4316073  13.1614436  80.2239330  25.8802348  12.4079074  80.6075414
  26.0239583  13.4690799  79.5378490  46.2321091  89.4698811   2.7412575
  46.6666842  88.6658001   3.0255592  45.3655529  89.1843224   2.4518162
   7.2705775  32.6908578  72.3661585   7.6181584  33.3994188  71.8245335
   7.1329528  31.9674005  71.7546816  37.7444458  51.1022186   4.1947564
  37.2726440  51.8562174   4.5484763  37.1007156  50.3938198   4.1980356
  51.8378973  80.1701260  20.8471704  51.3683891  79.6240568  20.2166104
  51.7092705  79.7302008  21.6875005  44.8518372  54.4956827  41.4917135
  44.3353033  54.1830444  42.2344685  44.3036461  55.1661396  41.0840321
 114.5736658   2.7199353  44.4421144 115.3548896   3.1822576  44.1385026
 113.9825331   3.4141816  44.7333427 109.2876244  48.0997896  14.5761597
 108.7035751  47.4246979  14.2306530 109.4650650  47.8254175  15.4758620
  36.3540673  63.1137800  24.0734553  36.4636970  63.6219501  23.2697296
  35.4062223  63.0612326  24.1961908  23.9877158  19.9603547  48.1385656
  24.3198520  20.1994504  47.2732635  24.0763265  19.0079393  48.1743618
 114.2655956  11.4713706  88.6174353 114.5869457  11.9017162  89.4097538
 114.9669635  11.5930833  87.9775126  63.9179993  72.2931337  21.5708017
  64.4916058  72.6077414  20.8720660  64.3025398  71.4585543  21.8388176
  47.0791799  67.3141469  79.5311149  46.6162473  66.9316854  78.7856956
  46.6386777  68.1502237  79.6832736  39.8014045  52.3123789  27.8300095
  39.0822768  52.7350664  27.3605156  40.4761410  52.9883528  27.8934026
  22.1885514 104.0335274   0.4037820  22.0618892 103.1962872  -0.0425517
  22.8841877 104.4660950  -0.0913983  21.1355716  18.3976163  78.7680002
  21.8765384  18.9866580  78.9102443  20.8646279  18.5671128  77.8657301
  81.7430895 109.7765494  75.1246639  82.0881574 110.2429438  74.3633266
  81.7730873 108.8532973  74.8738070  55.9502125  70.0391054  18.3255911
  55.6579256  69.9350166  17.4200726  55.2177477  69.7187948  18.8520217
  28.5670835  25.3022374  67.3611446  28.4164601  25.4806794  68.2894226
  28.6372977  24.3490495  67.3087950  35.0299358  76.4152193  16.2170589
  34.7024703  77.0458078  15.5756879  35.5990219  76.9295454  16.7896318
 108.6644089  45.1695337  95.2495669 109.2446362  45.9295453  95.2936777
 109.1260802  44.5480909  94.6866226   4.6577769  23.6209764  62.4822112
   3.9686328  24.2207803  62.7677842   5.3622228  23.7453021  63.1182356
  43.6638784  97.5296021  32.8676867  44.4395924  98.0826187  32.9607797
  44.0080357  96.6772270  32.6007557  33.8703084  50.4070425  24.7684169
  33.2501149  50.3276253  25.4931831  34.4629884  49.6634007  24.8777723
  10.4630166   4.4263925  84.8864241  10.9933549   4.6936025  84.1357096
  10.3959161   3.4749593  84.8057528 115.3631341  42.1788110  77.9107078
 114.8195659  42.1283902  77.1244355 116.0731112  42.7752675  77.6732166
  53.6110449  91.4944935   1.7894191  54.1962671  92.2150898   1.5559791
  53.9348602  91.1877251   2.6363343 106.6078442   0.6729735   4.9121654
 106.7500800  -0.2658617   4.7913948 107.4306077   0.9943808   5.2809423
  46.8718958  97.4640274  14.9089968  47.0899963  96.7213631  14.3458652
  46.1252022  97.1615124  15.4258788 108.9820849   1.1688031  83.7984307
 108.6104500   0.4467525  83.2917150 108.2479989   1.5019597  84.3145330
  69.8954678  78.6153841   2.6947492  70.3242016  78.8013983   3.5301030
  69.0428209  79.0451145   2.7622226  93.3978271  71.5363216  22.5803280
  93.4262276  71.9527531  23.4417272  93.8982010  72.1235847  22.0137787
  39.0375882   8.1035222  93.4416846  38.6143046   7.2632875  93.6179583
  39.1321021   8.1289996  92.4895029  99.8604268   2.5801695  48.7549496
 100.1987380   2.1121443  49.5183229 100.3520841   3.4013117  48.7401676
  13.2309276  13.5839261  64.3643542  12.2923451  13.4034719  64.4165559
  13.4306174  13.5452022  63.4290166  40.6717396  67.4375248  13.8730752
  40.5206299  66.5714788  14.2517102  39.8628378  67.9191017  14.0462565
  10.7601005  32.0877923  77.9302927   9.8116952  32.0950784  78.0595668
  10.8888608  32.5041093  77.0780416  42.7777338  86.1594677  24.5189190
  42.8925610  86.7022228  25.2989578  42.6521683  86.7868328  23.8069654
  59.4874048  83.5971165   4.2678049  60.4059696  83.3294201   4.2393094
  59.2860937  83.6633968   5.2012455  38.7179643  12.6868238  80.3273864
  37.8780252  12.7801503  80.7768591  39.3431169  12.4928893  81.0258193
  65.3580761  88.0132389  11.6134238  65.2525902  88.8462448  12.0730007
  66.3008118  87.9392338  11.4650941  16.4690208  46.7723370  28.6922288
  15.6649661  47.0034647  29.1573215  16.2087357  46.7261648  27.7722549
  57.0388556  30.5312943  42.1471882  57.0606756  30.5117106  43.1039429
  56.3442516  29.9165678  41.9108248  52.3219633  70.7027102  32.5995350
  52.9143143  71.3402557  32.2009230  52.6808786  70.5568981  33.4748340
  58.5419703  61.6593361  22.2167802  59.0862894  61.0603046  22.7277637
  59.0166235  62.4903202  22.2366643  10.1746493  48.0515947  88.8027145
   9.4874555  47.3877706  88.7449773  10.7577544  47.7333821  89.4918938
  59.7889090  71.3012171   6.7835224  58.9562416  71.7715788   6.8243158
  60.4543161  71.9877672   6.8294477  59.9262190  50.2693605   9.6633458
  60.3105974  50.1323557  10.5292058  59.0029192  50.4522705   9.8373878
  86.5840435  68.0491829  15.7196867  87.0311546  68.0559683  16.5660167
  85.6674671  68.2258320  15.9316063  56.0468102  55.1252842  19.0355432
  55.6409693  55.9578562  19.2770982  55.3554153  54.6450949  18.5798895
  56.7616987  90.1394081  11.2440002  57.5280285  90.5162525  10.8116138
  56.8585968  90.3885651  12.1631086  29.0330195  87.5076199  20.1507783
  29.5110846  88.2478046  20.5246830  29.4698906  86.7348576  20.5088353
  30.5670672  17.2670831  94.5025646  30.7490808  17.4628915  93.5834555
  30.5395681  16.3111295  94.5428974  24.2634421  48.0543603  94.4537460
  23.6422378  48.6613836  94.8560625  25.0646287  48.5671796  94.3472251
  23.5887384  92.7923584  14.2583382  24.1947198  92.5749683  14.9666870
  24.1292715  93.2457066  13.6113930  49.1629487  39.5984067  95.5459743
  48.9350015  38.6687936  95.5359574  49.3609601  39.8063077  94.6328499
  46.4568472  82.4081326  36.9076300  46.1403608  81.8891239  36.1682391
  47.0979595  83.0061722  36.5234923  44.2301702  36.0444140  34.0322232
  44.5074272  36.0433197  33.1160593  44.3693733  36.9455266  34.3235135
  61.2618208  35.5129647  31.8045998  61.3596773  35.7339978  32.7307749
  60.7041740  36.2057734  31.4506459  39.8936653  67.1783352  26.5771794
  39.4447374  66.7961693  27.3312640  40.2196074  68.0206871  26.8940973
  51.5376806  69.5696831  21.2098956  52.2822332  70.0411606  20.8362913
  51.2804317  70.0918150  21.9697857   6.1541349  18.1083717  88.3375217
   5.8592206  18.6742295  87.6240345   7.1090585  18.1694831  88.3126028
  71.0577679  87.1538830  20.5201745  70.8747816  87.6560497  21.3142633
  71.8862867  86.7106342  20.7026863  78.8797617  79.0013170  26.2091637
  79.8181772  79.1215038  26.0636878  78.4988403  79.8629618  26.0397601
  66.0247707  33.8011980   3.2650366  66.4965487  32.9683876   3.2743776
  65.1464033  33.5823894   3.5762021  30.4005003 103.7708187  27.1809673
  29.9261355 104.0304661  26.3911605  29.8616219 104.0964508  27.9019427
  43.9447737  77.6191807  11.6565692  43.9329767  77.2098684  12.5217617
  44.5718384  78.3375549  11.7399907  19.8101312   5.7530631  88.9630254
  19.3968850   6.5738572  88.6951502  20.0079804   5.8763446  89.8914059
  77.0582581  50.0146294  22.3695016  77.4722052  49.1969395  22.0933318
  76.1191940  49.8344755  22.3255038  59.0222645 104.6579552  15.7125521
  59.5193338 103.8473129  15.6029701  59.0130758 105.0529861  14.8407149
  68.4617615  63.4560204   7.5874496  68.7511730  63.0595684   8.4092152
  68.5336447  62.7516270   6.9433236  95.8987713  46.6684341  47.3676586
  96.2336636  45.8621264  46.9753027  96.1375904  46.6020679  48.2922077
 107.1997278  99.5506764  63.3920641 106.7153328  98.9516021  63.9601346
 107.9119795  99.0196372  63.0357976  92.9471302 108.6179066  30.6676197
  92.2649765 107.9902935  30.4288745  93.3664989 108.2343769  31.4378572
  39.3181157  89.5825672  32.0100045  38.6977911  89.3795300  32.7101517
  39.4010973  88.7650871  31.5190148  50.4273224  70.2187443   7.2238582
  50.3357553  71.1678219   7.1396202  50.6525373  69.9206877   6.3425666
 113.5482251  23.8246860  84.9876149 114.1480290  24.4656886  84.6060629
 113.0798876  24.3097009  85.6670644  80.0425053  68.0265188  20.1375413
  80.3561783  67.1721554  20.4340315  80.7642746  68.3792496  19.6171045
  37.0357704  67.8070450   3.0639216  36.1328125  67.7629900   3.3784962
  37.5612140  67.9084158   3.8575616  45.6782532  80.9953880  25.9315491
  46.6132164  81.1305141  26.0858607  45.2599049  81.7741299  26.2986660
   8.9717322   5.9858407  86.7005237   9.1378194   5.4842033  87.4986513
   9.5056802   5.5563249  86.0322054  30.2402812  28.2897748  87.7514221
  30.2270871  28.9878549  88.4062000  30.3741437  28.7440957  86.9196148
 105.3226965 101.8555690  95.1326035 104.8201340 102.4074031  94.5333171
 106.2026708 102.2321416  95.1239622  93.3082867  90.2895260   9.0296757
  94.1276360  89.8738098   9.2981642  92.8118992  89.5891666   8.6062002
  40.0793457  58.9082289  18.2161701  40.2653694  58.0104017  18.4910059
  40.8033848  59.1349411  17.6325572  60.3253937  64.1096401  29.7009754
  60.6320763  64.6413040  28.9664602  60.7539082  64.4903374  30.4675770
  55.3890944  72.4086285   9.2846644  56.0412598  72.6361179   8.6219722
  55.6527996  72.9039145  10.0601542  70.5491161 109.1527367   6.4237094
  69.7139263 108.7239265   6.2371194  70.4760170 110.0112152   6.0066950
  22.6231289  83.3034801  17.4440432  23.1148314  84.1135406  17.3089087
  22.0190501  83.2634544  16.7026126 106.8375319   0.2354659  26.2028718
 106.3432568   0.3591479  25.3925443 107.6264495   0.7646502  26.0853434
  17.7565813  75.6547594   6.3794893  17.3261380  76.4492178   6.6953897
  18.6792338  75.7772207   6.6029787  52.3287296  88.9148998   6.0389996
  52.6276445  89.0276337   6.9413161  51.6210604  89.5517635   5.9397858
   5.7448321  42.7316560  70.3999086   5.4509383  42.3787393  69.5600839
   4.9365216  42.9151811  70.8786364  64.7085667  64.6089840  43.6972332
  65.1474810  64.0150070  44.3061495  65.2159452  64.5407534  42.8884411
 116.5905351  11.4543952  47.5069523 117.0854014  10.7889307  47.0289326
 115.7871455  11.5664996  46.9987917  93.6455840  13.0796851   5.2425075
  94.5095033  12.6912821   5.3804332  93.3250064  12.6713122   4.4383323
  75.0575280  26.8445672  88.7087144  74.3363749  27.3285569  89.1111054
  75.3639471  27.4141206  88.0030622  63.4183025  76.4277267  17.0667505
  64.0683746  76.2153625  17.7364790  62.8833723  77.1161270  17.4619532
  55.3478575  96.8721771  36.1221480  54.9110460  96.1856079  35.6181145
  54.6340370  97.4174023  36.4529276  62.2649765  78.3456898  18.8275862
  62.9300165  79.0077353  18.6387849  62.3905468  78.1372643  19.7533417
 108.1531543   5.8730734   4.9499002 108.2020110   5.0438918   4.4741899
 107.3893088   5.7781256   5.5188924   6.4914095  99.6696234  82.6214595
   6.3422835 100.5368090  82.2446640   6.5050566  99.0800143  81.8675311
  24.8348981  48.0202283  47.5774332  24.0555507  48.4076394  47.9758878
  24.6003371  47.9034604  46.6567941  42.8746271  50.5245352  27.8524160
  43.3902073  51.2624264  27.5269556  42.9971409  50.5468416  28.8014817
  62.9003954  81.4425087  21.9534230  62.1440506  81.2723255  21.3919854
  62.6755476  81.0329056  22.7888298  28.4242183  44.3533124  88.1057264
  28.4219104  44.1817178  87.1640350  29.2914468  44.7188462  88.2804503
   9.7320348   9.1086139  68.0291172   9.6330815   9.1796531  67.0796986
  10.4925328   8.5397948  68.1487699   1.2594968  39.7301759  83.6409111
   0.4449111  39.4997491  84.0876599   1.6682464  40.3826799  84.2095883
  30.9613019   6.6165532  93.6624736  31.6380149   6.3216724  94.2718448
  31.4250642   6.7500438  92.8358306  52.1001005  99.7561073  20.3029346
  51.4483404  99.0554047  20.3242564  51.6597462 100.4793072  19.8564899
 115.3909385  17.6644267  93.5685638 115.0623380  16.9633140  93.0058055
 114.7955620  17.6688756  94.3180563  90.6162262  90.5452538  49.2966986
  90.2664375  91.4358521  49.2698669  89.9408531  90.0360870  49.7448635
  56.7465878  61.0486889   0.8280463  56.9715786  61.6940308   1.4982305
  56.1266088  60.4610538   1.2599500  49.9854422  39.6272302  20.9437490
  50.2173948  40.1865578  21.6850877  49.1002655  39.3216419  21.1420178
 100.9120274 109.6365833  50.7096529 101.7402744 109.4088459  51.1319971
 100.8089066 110.5738449  50.8744383  18.7877607  80.8971024  23.1686640
  17.8628314  80.9789276  23.4011388  19.2543280  81.0208035  23.9952493
  47.5122595  84.1160488  19.5579743  46.6584206  83.7115383  19.7114801
  47.8302813  83.7062359  18.7535155   5.0782043   8.0131568  93.5389085
   5.5696851   8.4870424  94.2098116   4.3476754   7.6158799  94.0129627
  42.8902531  60.2454185   6.4554143  43.5425997  60.0909042   7.1386409
  42.6908255  59.3740129   6.1131984  62.9045343  64.3476200   9.9291837
  62.1272802  63.9411354  10.3124285  63.5188484  63.6234903   9.8088169
  18.5417539   4.7579612  81.2724240  18.1648618   4.1143026  80.6725200
  18.1538373   5.5910052  81.0044928  44.6813297  62.8036594   7.9304790
  45.4461956  63.2803011   8.2530123  44.7576094  62.8453064   6.9772327
  78.1119871  48.1982136   4.8260042  77.5695610  48.9650011   5.0104892
  78.5501862  48.4076548   4.0011722 114.2045008  46.2992372  75.6817921
 113.4472167  45.7743634  75.9411307 114.2407500  47.0035257  76.3290210
  56.6297770  62.9181290   2.8531790  57.4505043  62.7104712   3.2998446
  55.9803629  62.9647160   3.5548377  72.5557232  90.7615662  14.1540170
  72.2172451  91.5913963  13.8178039  71.8051863  90.3544426  14.5866561
  35.8072352 106.7836857  39.7536802  35.9831166 106.8304348  38.8139415
  36.2608433 107.5426769  40.1202917  13.0622178  50.1285543  71.7724557
  13.1553441  50.2071561  72.7218671  12.1199876  50.1958455  71.6178294
   1.6312820  29.1192903  93.6989744   1.8475705  28.2296361  93.9782126
   0.6796366  29.1731729  93.7867153  47.0444822  68.8624334   5.7350814
  47.8043461  69.4383383   5.6504363  46.8700981  68.8326931   6.6757929
  -0.0154627  95.5602074  68.5313459   0.5518973  96.2312794  68.9108153
  -0.2019728  94.9654723  69.2578025  75.0436258  94.5982361  19.4832087
  74.2185640  94.6623993  19.9642384  74.7887993  94.6532440  18.5621929
 106.5950203  70.0368404  14.9626422 107.0601177  69.3930721  15.4969442
 105.9740448  70.4450560  15.5659544  19.0391791 104.7447968  -0.0086246
  18.4364188 104.0128803  -0.1398345  18.5331845 105.3850555   0.4916476
  20.4917270  32.1205129  58.7287851  20.1501971  32.9704274  59.0067001
  20.7760221  32.2603597  57.8255411  69.1394949  50.1027107  26.9936395
  68.7732029  49.3251610  26.5723586  69.8827553  50.3463602  26.4418936
  45.5935669  52.2120285  17.1401846  44.9533606  52.8053522  17.5330329
  45.4621267  52.3083210  16.1969554  44.0104866  61.7847872  18.2642353
  43.2291269  61.5600252  18.7694025  44.7139454  61.8165493  18.9125943
  70.6423044  86.0390949  17.9082561  69.9500227  86.6661739  17.6990926
  70.8385468  86.1981010  18.8315320  81.1470604  93.5749817  20.7688642
  80.5508900  94.3014717  20.5871391  81.5390778  93.7926483  21.6145420
  54.2898083  64.0719557  30.2438211  55.0485182  64.4536066  30.6853247
  54.2122459  64.5681143  29.4289351  93.4745299  31.1575689  81.6586884
  93.7003731  32.0621480  81.4419468  93.7720203  31.0462083  82.5616451
  25.5368948  65.0726414  35.7830167  26.0813785  65.8521986  35.6731796
  25.0966954  64.9671745  34.9396110 101.8650264   3.7658347  10.5160236
 101.4796275   3.8359583   9.6426499 101.5550393   4.5448435  10.9778607
  39.2835689  75.8322668  28.2737017  39.9303842  75.8551645  28.9789224
  39.2976928  76.7163134  27.9069591  76.4467525 107.1879768  42.3319721
  75.7616711 106.5632534  42.5699282  76.4474201 107.1896267  41.3747740
  86.9339561  73.9656925  18.4502244  87.2750568  74.0405369  19.3414462
  87.0120716  74.8486423  18.0889344 108.5388660  97.5254250   1.2790410
 108.0403137  97.5438690   0.4621373 108.1299877  96.8294621   1.7935148
  62.5155640  80.8582973   7.3593891  62.2008705  81.1640739   8.2100976
  62.9198170  81.6296864   6.9621742  31.0923386  84.5864773   0.2980616
  31.7596579  84.2894554   0.9166871  31.0157871  85.5265236   0.4613853
  47.4999791  15.0233592  92.3968677  47.3963147  14.1146888  92.1143751
  47.7690488  15.4908075  91.6060926  87.8538418 100.4573154  29.8683238
  87.0821762 101.0236168  29.8597765  88.5357761 100.9879303  30.2802134
  65.0700283 108.8924885  24.6123838  64.6687555 109.6786880  24.9826598
  65.9720612 109.1505718  24.4227695  29.7339773  94.2596340   7.1735585
  30.4595160  94.8602962   7.3439485  28.9647150  94.7071934   7.5259233
 100.6057054  59.1251554  89.4751574 100.6956369  59.7118367  88.7241902
 100.9383660  59.6317567  90.2160539  14.0762073   8.4241809  82.9017754
  13.4409028   8.0736913  83.5260923  14.6241170   9.0118589  83.4220310
  42.3699045  80.8230400  14.4704413  42.2241211  81.2861633  13.6455202
  43.2017851  80.3664494  14.3450117  94.9298382  87.5521660   9.5560580
  95.0558090  86.8364239   8.9331037  95.5179787  87.3441315  10.2820396
  63.2422334   5.9903564  90.2034010  63.8409406   5.3669156  90.6146325
  63.8107759   6.6853847  89.8718526  21.9534379  24.5573415  91.5347485
  22.8614122  24.7711887  91.3200738  21.7256528  25.1616563  92.2412493
 110.6639862  89.4207573   6.6772658 111.3686657  90.0656414   6.6157877
 111.0541916  88.6836433   7.1469784  53.2723808  73.3822346  18.3657110
  53.3129740  74.1768503  17.8335714  54.1839743  73.1020355  18.4476697
  28.8662273  55.2287950  90.6463726  29.1466695  55.0146665  89.7565778
  27.9937440  55.6072797  90.5379637  79.1834545  97.8844547  38.2412148
  78.3355522  98.0309296  38.6605477  78.9717913  97.7293301  37.3206902
   1.8729669  58.3009614  77.5716026   1.2860185  58.1553830  78.3135791
   2.7377206  58.0519380  77.8978284  83.9863396  80.3145981   1.7021756
  83.1059551  80.0096989   1.9217150  84.5389462  79.5387363   1.7964153
  70.8157778  53.2747984   0.2433752  70.0088739  53.7856913   0.1792077
  70.6353664  52.4783850  -0.2560345  98.9597321  69.3939972   0.6708384
  98.9443398  68.8376141   1.4495762  98.0739117  69.3306875   0.3136975
  57.0852834  59.8734273  76.4810760  57.5965673  59.6999540  75.6906767
  57.0673925  59.0355100  76.9434674 116.6823136   3.7037791  82.5178142
 116.4123713   2.8671207  82.1391817 115.8656060   4.1099490  82.8080638
  70.8943462  56.2603188  18.7645793  70.8499289  56.0349703  19.6938133
  69.9817038  56.3859653  18.5047066  67.8825474  51.4016485  30.4704213
  67.0458794  51.4932585  30.0145435  68.3183241  50.6736851  30.0272512
  82.5092220 106.0929775  28.9164495  83.3915710 106.0007191  28.5570240
  81.9852829 106.4185715  28.1845284  71.9600630  98.1289768  18.1948161
  72.0450163  97.3303223  18.7155461  71.2148523  98.5888195  18.5813940
  32.9766655 103.4723473   5.9127688  33.3748055 102.9755878   5.1979637
  33.2467031 104.3770409   5.7551819  45.0350839  64.7153749  88.2161059
  44.7567063  65.5560960  88.5793187  45.9089643  64.8842134  87.8638818
  57.7062464  88.2659340  28.9510965  56.8327427  88.6361408  28.8239169
  58.2180071  88.9828491  29.3257427  71.3179636  62.1601439  17.8265572
  71.9894361  62.7735424  18.1250572  71.0958672  61.6503668  18.6056781
  69.8732662  85.4791451  11.2382138  69.1987896  84.9855614  11.7047930
  69.3878746  86.1397648  10.7440364  76.2364578  74.3138409   9.6908790
  76.2719440  73.4401226   9.3015319  76.5585041  74.1913605  10.5839157
  18.1104070  76.9109048  93.1637073  18.2719880  77.8161229  92.8977959
  17.1973353  76.9050016  93.4509255  97.2116566  39.1008258   6.5831292
  96.4139271  39.4852853   6.9465160  97.7690220  39.8522496   6.3807976
  13.5918599   1.0336961  68.7281104  13.6048251   1.9375791  69.0428443
  12.7224284   0.7103147  68.9642067  61.3123369  69.4419670  12.5085008
  61.8320370  68.6710358  12.7361226  61.7705393  70.1714420  12.9258096
   8.0375129  35.4168882  88.4755691   7.3882323  34.7280397  88.3336069
   8.6406690  35.3333940  87.7370145  24.4100457  43.1769265  87.5346191
  25.2850419  43.0970658  87.1548392  24.0243512  42.3068322  87.4326231
  46.3489705  30.7944574  93.9915751  46.9855863  30.2010717  94.3901187
  45.6412870  30.2223005  93.6948624  92.8806973  86.4515781  40.6520271
  93.3878803  86.2763309  41.4446688  93.1731415  87.3173332  40.3670883
  63.7151861  79.6194744   2.1500652  63.1635761  80.2063084   1.6327764
  64.2321825  80.2036858   2.7047163  27.2566509 103.3784866  26.4903784
  27.1393514 102.6010799  27.0363784  26.6926050 104.0399361  26.8910885
   0.0634540   0.6748904  13.5960603  -0.2464902   0.0622405  12.9291058
   0.5224479   1.3544215  13.1023014 104.9365777   2.6498450  17.8103638
 104.8230380   3.2077540  17.0408952 105.8551425   2.3824824  17.7789223
  30.1076663   2.0757521  13.7753916  29.1575587   2.0463027  13.6628914
  30.2729858   2.9194582  14.1961777  91.4947224  83.1056309  31.6946626
  91.1518764  83.2031250  32.5830221  91.9355392  82.2559929  31.6999602
   6.7181235   2.5765456  90.8231141   6.5887624   3.2450427  91.4958768
   6.5079671   1.7519082  91.2613385  61.0796499  85.5697250  21.2984037
  60.9657383  85.7132721  22.2378993  61.8067408  86.1427116  21.0549879
  81.1462116  64.2583418  18.8314295  82.0640373  64.4434357  19.0303314
  80.9734535  64.7434664  18.0245590  65.2337980  83.1953239  15.2853942
  65.9501553  82.9454231  14.7017682  65.2002716  82.4949169  15.9369648
  46.8490296  35.9520807  89.9551870  47.1002465  36.3332833  89.1138734
  45.9454423  36.2387742  90.0877763  79.5477438  73.3698177  15.6618500
  78.8148451  73.9248705  15.9283233  79.6962929  73.5939503  14.7431946
  72.2524357  91.4547729  18.5180235  72.4330282  90.5296803  18.6848330
  72.9620504  91.7370701  17.9409730  65.0034809  63.2053137   0.3798749
  64.4774103  63.9858913   0.2061363  65.4634905  63.0385208  -0.4428053
  26.9224626  10.6337442  92.9072239  26.5921289  11.2619676  93.5494436
  27.6666242  10.2164687  93.3411969 101.6128122  22.2308053  86.8942042
 100.9108745  22.3915328  86.2635847 101.7201649  23.0651464  87.3509129
 111.9128340 104.5664883  88.6117919 112.1228569 105.3345156  88.0805154
 112.1950357 104.8021556  89.4955655  40.0693512  58.5970879  26.1190867
  39.4547057  58.5046864  25.3911424  40.7387209  57.9332924  25.9530997
  70.0130558  94.6786213  19.2882740  70.2448940  95.5445766  19.6238506
  70.4237700  94.0670681  19.8994553  74.1927904  16.7866839   7.7921510
  73.4041614  16.5080679   7.3266709  73.9616054  16.7165030   8.7183589
  12.2452479  39.6714009  93.8809297  11.7341691  39.5143022  93.0869849
  12.6235086  40.5414857  93.7540335  90.7057476  63.5331869  10.7827687
  90.0636005  63.3907986  11.4781857  90.2014160  63.9186287  10.0663114
  67.5176573  84.2406940  11.8822801  66.9651937  83.7149429  11.3038385
  66.9084597  84.8351669  12.3201334  48.7436199  76.9142866  50.9225273
  48.3859587  76.0643196  51.1791801  49.6479940  76.7274189  50.6706953
  76.1478758  46.2986946  33.3623075  76.8499947  46.7441368  33.8364840
  76.5984678  45.6522226  32.8189206  49.2819548  85.3259468  13.7902033
  49.7153664  86.1331844  14.0672290  48.4344053  85.3444576  14.2346656
  55.3820705  81.6614914  29.7490025  55.7682896  80.7951164  29.6206737
  54.9676275  81.8655300  28.9106488  25.0537920  86.9479561  35.1309943
  24.5638657  87.6240158  35.5991220  25.7779384  86.7278481  35.7169938
  83.7818259   1.4381445  22.5715590  83.2150239   0.9318579  21.9896364
  83.1815452   1.8444956  23.1966782  84.2564106  77.4551439  25.4746509
  84.1835880  78.3828974  25.2505946  84.5658016  77.0381165  24.6705389
  62.0899439  86.7296124  24.2755580  62.9716015  86.3721561  24.1700220
  62.0053196  87.3706436  23.5697556  65.4073620  87.6254940  17.1723127
  64.9027061  88.0235195  17.8816259  65.7707262  88.3685875  16.6906357
   5.8545077 108.1095267  84.0474351   5.9087336 108.6996604  83.2957466
   6.7662012 107.9274893  84.2752786  93.2169151  74.6324396  11.4685619
  92.4494934  74.6948767  10.8998895  92.8556919  74.5800018  12.3534334
  35.2762824  28.7109937  88.4168150  35.5006867  28.1472863  89.1571625
  34.7008878  29.3787469  88.7899847  46.5995932  72.7962160   2.4223025
  45.7797813  73.2394600   2.2039518  46.5064001  72.5614309   3.3455697
  53.6443043 100.7541275  63.1459188  54.0252209 101.2406254  62.4148607
  53.9366674 101.2258720  63.9257956  95.3541011   2.1236838  55.6188726
  95.1922816   1.6406096  54.8085117  95.1456946   3.0323351  55.4017305
  62.1937084  99.4472408   8.4308285  62.0321131  98.5333920   8.6653596
  62.9278088  99.4109249   7.8176302 107.6596278   3.9428843   3.1772229
 107.0499057   4.6706999   3.0557498 108.2072610   3.9556540   2.3922575
  78.6550331  98.9599419  71.1557961  77.9649830  98.9465714  70.4925585
  78.4360933  98.2371044  71.7438364  53.9957952  90.5129051  10.6317472
  54.8954582  90.2502918  10.8263683  54.0415621  91.4629269  10.5241156
 112.1126735  12.3268117  76.5804739 111.3737475  12.0848884  76.0221775
 112.8655230  11.8873109  76.1851390  63.8869047  86.9436836   0.9477903
  64.5758533  87.5442028   1.2323193  64.3560076  86.2227631   0.5277352
  69.6494341  77.0838451  17.8204763  68.7496710  76.8880129  17.5591230
  69.7673368  78.0077028  17.5995314  72.0843297  27.7444925  92.3337741
  72.0916921  27.7814378  93.2902323  72.1475869  26.8114557  92.1296342
  47.8293180  53.4467077  39.4752145  48.3188772  54.1433716  39.9125099
  48.2288361  53.3813286  38.6078382  88.1577969  70.1572657  19.6194708
  87.7434254  70.5335617  20.3959560  88.9913559  69.8102236  19.9372292
  65.8641320   5.6266488  91.3986255  66.7573815   5.2828445  91.3873653
  65.9724313   6.5764560  91.3499387  72.0352411  90.6330299  24.4883776
  71.9614315  91.1421680  25.2955747  71.8257141  89.7366142  24.7506046
  80.3827000  66.9139767  34.4582033  80.3827095  66.6615391  35.3815150
  81.3079834  66.9268322  34.2134070 116.4696562   7.8716983  80.9724970
 116.3779628   6.9818773  80.6318589 116.6509520   7.7537145  81.9049366
   8.6916572  21.1557569  87.8203888   8.1134015  20.7860746  88.4876134
   8.7405759  22.0872392  88.0352773 106.1978041  32.8190698  94.3490280
 105.9032714  32.1066369  94.9164183 106.7818391  33.3390702  94.9010588
  91.2136459 100.4043007  10.0002933  91.2693787 100.0777245   9.1022545
  91.7700386 101.1831570  10.0068796  84.2390060  94.5025921   5.7454431
  84.8294163  93.8315678   6.0880435  84.4076347  94.5115757   4.8032564
  64.6845198  50.7092905  21.2843275  64.6533537  50.3096199  20.4151201
  63.7770081  50.6926775  21.5882635  79.3008327  80.8833790  16.8802500
  79.0481853  80.8138847  15.9596133  80.2486801  81.0152245  16.8592072
  69.1258621 103.7578583  22.3583150  69.6137619 103.3268833  23.0600572
  69.1089678 103.1155109  21.6488576  46.3460779  86.5571022  29.9544621
  47.2357941  86.9053936  29.8966551  46.0073376  86.9013500  30.7808900
  29.8640853  39.2132463  95.6384590  29.1920119  38.5336866  95.5859935
  29.7226554  39.7506513  94.8590847  59.4930696 109.4321823   7.8400594
  59.3012524 108.8554859   7.1005595  60.3505898 109.8055935   7.6364487
  69.0945435  90.8228874   4.0216482  68.2670927  90.6183052   4.4572020
  68.8398027  91.3228703   3.2461786  76.6880793   7.2232378  24.5399642
  76.5508574   7.5712908  23.6589050  77.6321930   7.0753230  24.5946980
  59.5809078  64.3687439   0.5525101  59.5494413  63.4359312   0.7648680
  58.7099028  64.5654011   0.2076825  59.3153477  96.2904739   8.7117636
  58.4648943  95.9130001   8.9364403  59.1046476  97.0457935   8.1628364
  39.2865825  82.2704601  35.6202221  38.8000417  82.7457237  34.9466991
  38.6107731  81.9081783  36.1931658  55.1639032  98.8528061   0.1023809
  55.1398611  99.7696590   0.3763095  55.1888561  98.3586025   0.9217542
  74.6286917 108.6167526  19.2995334  74.3165016 109.4896698  19.0612340
  73.8803005 108.2041645  19.7307062  87.2251129 100.7444668  19.6809292
  86.9450378 100.6691074  18.7687290  88.1768417 100.6476593  19.6480405
  21.8595088   4.3373908   5.7190400  21.2370074   4.9073351   6.1705881
  22.5526107   4.1835154   6.3610387  74.7511530 102.1585083   1.6564485
  74.8293400 103.1123543   1.6394462  74.4740200 101.9250774   0.7704790
  62.2468567  96.7315674   8.9119023  62.7900076  96.2365437   9.5252323
  61.3494205  96.5721035   9.2041540  71.6522408 102.9557514  34.9906015
  71.1074066 102.4838257  35.6204295  71.1637783 102.9086494  34.1687632
  73.6929005  80.6313015  83.1715305  72.8072541  80.7438732  82.8262921
  73.5660069  80.4559303  84.1039331 101.1580437  91.1222268  88.6928900
 101.0796707  90.9977484  89.6387197 101.9591492  91.6347504  88.5843338
  42.0316935  47.2067070   1.6319756  41.1695385  47.2940111   2.0385477
  42.0500469  47.8886938   0.9605689 103.7401073 107.4908591  93.6901069
 104.5953434 107.5121737  93.2607493 103.1775539 108.0257846  93.1300838
 102.8985691  83.6163998  47.0801783 102.4158573  83.2443047  47.8182650
 102.6159191  83.1008720  46.3248158  75.7119751  41.6580009  18.2562721
  75.7135773  41.9866323  19.1552889  75.0832748  40.9362888  18.2661986
  45.8082247  37.1673226  11.7873716  45.0474405  37.2009301  12.3672915
  46.4580870  37.7272296  12.2121298  74.7546864  68.5817480  -0.3123784
  75.2144575  69.1952705   0.2607143  74.5309114  67.8448153   0.2560259
  33.6886191  33.8000250   0.7669998  34.1192126  33.9056492  -0.0813314
  33.3087277  34.6590471   0.9513797  53.0033493  27.1644974  34.3070197
  52.3034334  27.6489878  33.8692737  53.7976408  27.4102545  33.8327456
  39.4732499  63.2304764  11.7966282  38.6960506  63.2642317  11.2389064
  39.6510839  62.2960138  11.9033253  57.6377726   6.7346430   8.0055958
  57.7501488   7.5581640   8.4803772  57.7313519   6.0573024   8.6754352
  76.0798979  87.8823662   2.8112069  76.9849491  88.1939793   2.8088239
  75.5517340  88.6805153   2.7962780  67.9799669 109.6750832  81.5256162
  67.2951215 110.1646472  81.9811924  67.7830189 108.7572289  81.7126520
 109.8335743  34.5426488  28.0843258 110.1057339  34.0152121  28.8353086
 109.0467453  34.1062522  27.7577019  95.6212538  92.6744366  81.6187711
  96.2822645  92.1299649  82.0463760  94.9000090  92.7131868  82.2468944
  12.6724559  17.0601119  76.9855781  12.7174645  16.3097753  76.3929565
  12.2097045  16.7297305  77.7556022  86.9558334  38.2717729   6.1144215
  87.7742863  38.3561873   5.6252998  86.2846661  38.6017251   5.5170119
  94.1604917  89.4901682  84.2172392  94.8304813  89.0721012  83.6763449
  93.3310812  89.1844321  83.8500400   1.8390113  20.2265252  67.2714968
   2.2623998  20.2802409  66.4147087   1.0083443  20.6883039  67.1575470
  60.2890205  74.3530130   8.3243906  61.0786295  73.9118433   8.0111527
  60.5776596  75.2416563   8.5323149  55.1837349  41.6936922  11.3086569
  55.6006670  40.9928894  11.8099308  54.2905378  41.7339039  11.6504359
  96.5552013  58.2260332  81.3553138  96.9313829  57.9146916  80.5320378
  97.3012131  58.5761262  81.8422730  61.7292261  41.8089581   1.7223564
  61.1370897  41.2440681   2.2188529  62.5335550  41.2970304   1.6374162
  88.7626760  93.9548660  76.6014059  88.9329355  93.1014157  76.2028296
  89.0527408  94.5880295  75.9447487  11.8853789  11.8121232  38.0694194
  12.0022851  11.1550225  38.7555547  12.4230987  12.5518455  38.3520837
  18.9639246  86.8368936  66.9618388  19.1950094  87.5299335  66.3433476
  19.0083658  86.0314346  66.4465781  31.5304780  38.1283712  10.1104999
  32.0796776  37.3531461   9.9937314  30.8168793  38.0130792   9.4830298
  20.2115154  23.3637094  42.1505404  21.0725236  23.3793521  41.7326260
  20.3632879  23.7216878  43.0252123 101.4949643  21.5268459  71.0429140
 101.1839449  22.3699941  71.3724537 100.7096278  20.9811057  71.0023160
  43.0332804   8.8956028  22.7223969  43.3428192   8.9769536  23.6245036
  42.4723291   8.1200403  22.7306747  42.2263575  61.8530941  -0.2317445
  42.1542740  60.9003496  -0.2893513  41.7305183  62.0837402   0.5538610
  29.8308641  23.5070218  90.6872933  30.0321847  22.5885286  90.8663778
  29.3458301  23.4894551  89.8622687  72.1811581  50.3127766   4.1824457
  71.3807869  50.5897522   4.6284577  72.1501970  50.7586336   3.3359900
  29.4927883  46.7057467   6.8828845  29.9103260  45.8453846   6.9238210
  30.1710296  47.2848272   6.5352041  84.0973966  95.9802962  78.5980173
  84.7177046  95.3903390  78.1697650  83.6864488  95.4443932  79.2763694
  84.7660225 104.8623419  84.5639034  84.1753023 104.1120530  84.4980009
  84.5504158 105.4043246  83.8049551  51.4109117  35.6114091  89.7784676
  52.1798879  35.9061422  89.2905618  50.6666261  35.9276857  89.2663737
  14.3642646  28.4906568  90.0939502  15.1847106  28.9647855  90.2292545
  13.8272887  29.0856733  89.5706411  28.3764821   0.9630527  41.0265584
  27.5777751   1.0157766  40.5016561  28.7300426   0.0937547  40.8380170
  76.1893463  38.7642169   3.9890179  76.1541891  38.5185933   4.9134988
  75.8111763  39.6430707   3.9601481 110.6992542  16.6932191  62.1161409
 110.9786617  16.8858327  61.2211199 111.4521682  16.9290866  62.6580997
  40.7980204  59.2623281  23.2380533  40.9178257  58.9915991  22.3277879
  40.1726294  59.9855471  23.1925058  24.0870696 101.5433561  15.2451074
  24.1312820 100.6454950  14.9162877  24.9998361 101.8286972  15.2859235
   1.0224831 106.4583255  83.5334619   0.7581627 105.5936528  83.8476379
   1.5132153 106.8382455  84.2622133  88.9333361 105.2307893  78.5999985
  88.4258955 105.2749778  79.4104202  88.2782333 105.1030255  77.9138859
 108.4755199 106.5090752  79.7448524 109.0553444 107.2597552  79.6163435
 109.0593212 105.7979251  80.0088056  22.2040254   8.9936485  72.3052378
  21.9254142   8.4507455  73.0427094  21.3961345   9.1815700  71.8274971
  54.7889662  54.2714548   7.0957690  54.9052000  53.8419533   6.2482727
  53.9844704  53.8912964   7.4486071  64.9468231  59.8592663  22.4942660
  65.1607752  60.2377033  21.6414809  65.7157946  60.0382376  23.0354500
  33.5901510  93.9935494  91.8371605  33.4993422  93.0850125  91.5498583
  33.6069929  94.5008374  91.0256140  78.3857870  48.2649755  10.9160161
  77.6004076  48.0099535  11.4001369  78.0749655  48.4320784  10.0262415
  35.4126531  20.3548850  53.6853166  35.3323012  19.4345178  53.9357133
  36.3063842  20.4353084  53.3521266 105.7369249  96.8839598  90.8210643
 104.9986713  97.2377635  91.3170837 106.4488237  96.8278170  91.4584671
  98.3700674  94.0801669  89.0799399  98.9345997  94.0349127  89.8516174
  97.4836510  94.1458369  89.4351687  22.6052266  17.8286781  86.7532356
  22.4215585  17.6159896  85.8382161  21.7673665  18.1341304  87.1009691
  52.6682942  88.1138635  87.3523273  52.2255581  87.9779101  86.5146317
  51.9897001  87.9599500  88.0096348 107.1781414 108.7984467  69.0799590
 107.5057524 107.9538298  69.3890257 107.2800939 109.3839884  69.8302765
   6.1233216   3.0794276  78.6020620   6.9636470   2.8544988  78.2026966
   5.9345561   2.3485221  79.1905995  54.3607616  25.3719521  11.8436658
  53.8328457  26.1700034  11.8182015  54.0843296  24.9273825  12.6450241
 115.0369947 106.6913653  90.8882065 115.5286472 105.8836318  90.7396348
 115.6279009 107.2399855  91.4040385  31.7829466  61.7790842  20.5256677
  32.3732162  61.8773699  19.7785711  32.1579719  62.3420620  21.2029004
  83.6348884 100.4024268  57.5700970  83.6111086  99.4953824  57.2652383
  82.8001564 100.5251170  58.0222054  30.5380774  89.7922707  18.6756575
  30.0093627  90.2174377  19.3508804  31.1158323  89.2024231  19.1599238
  13.5863191  17.8348245  93.4379773  13.7953597  18.7231197  93.1490803
  13.7345534  17.8493633  94.3835183  63.2018089  50.2021980   2.7585384
  64.1480017  50.2390909   2.8984910  63.1029654  50.1218987   1.8098481
  98.7055337   7.9815854  86.2486567  99.1067635   7.1345987  86.4432313
  98.7634956   8.4685649  87.0706828  52.6313954  25.7933988  73.7051435
  52.0857507  26.3710012  74.2388793  53.4778768  25.7833089  74.1518970
 113.7156045   2.5816907  78.5426970 114.3586599   2.4483909  79.2390771
 113.4602081   1.6973771  78.2800432  40.1600438   3.9752807  85.8673366
  40.7101232   3.3689155  86.3632848  39.4220000   4.1591443  86.4484717
  56.1421567   5.2914132  94.0742232  56.6364556   6.0720243  93.8241239
  55.7140428   5.5320443  94.8958362 106.2577343  78.6797619  24.8617768
 106.5062809  78.0435228  24.1912103 105.8513260  78.1546783  25.5512357
  33.6160070  35.8938588  92.6108597  33.5936719  36.8507661  92.6189988
  32.8296977  35.6318464  93.0897124 116.3829582  82.4550749  61.0854431
 116.2058227  83.3349157  60.7526775 117.1625059  82.1709324  60.6081529
   3.0439359   3.9159002  92.6945163   3.1169730   4.1908302  93.6084686
   3.8727933   3.4739484  92.5103779  90.4884880 102.0079137  83.9586409
  91.4071148 102.0162726  84.2275031  90.0565355 102.6115370  84.5630308
   2.0458060  27.9505338  81.0625167   2.9124290  27.6854028  80.7544573
   1.7053205  28.5117521  80.3658588 114.7761648 104.3635417  75.4464598
 114.7586649 103.4737492  75.0940390 115.3806513 104.8360062  74.8740955
  25.9049392  47.7928829  15.6312680  26.3713884  47.3218298  14.9407864
  26.1145854  47.3128366  16.4324152  97.3020744  45.9424829   2.0024994
  97.2901344  45.4195213   1.2008749  96.7816067  45.4364157   2.6263943
  81.2582970  53.0047798  17.3948741  81.9947910  52.6267958  17.8754246
  80.8734989  53.6353922  18.0035567  49.0960646  44.8825741   8.9666343
  50.0244284  44.8147249   8.7435418  48.6397982  44.5285559   8.2032716
  45.1846933  50.3301239  24.8535872  45.7241726  49.6743917  24.4117594
  44.4317102  49.8388958  25.1821256  99.4187164  62.8247070  11.8842125
  98.5123062  63.1215096  11.8032837  99.4143391  61.9395542  11.5199053
  28.4413218  81.4075089   5.8215606  27.6859236  81.9946480   5.8510131
  28.3338189  80.9196854   5.0050408  31.7325097  23.6864413  75.8086999
  32.6219827  23.3371343  75.8639629  31.3899833  23.3401956  74.9846740
  77.1432155  75.2238346  79.2489906  77.6712673  75.0355650  80.0248440
  76.6233485  75.9895778  79.4931360  15.2825671  12.5204934  87.7778168
  14.5105630  12.1865930  88.2347168  15.4788428  13.3497705  88.2137127
  59.0847158  88.6309052   3.2378882  58.4627914  88.3386803   2.5715205
  59.5734930  87.8418541   3.4717953  27.2069865   8.3674707  69.5360609
  26.6745978   8.3707751  70.3315397  27.4178916   9.2888774  69.3851848
  38.9704275  54.7538090  15.0548255  38.8409209  53.8933802  14.6559274
  38.0861807  55.0598335  15.2565372  13.5598880  23.6159648  87.8342493
  13.3502894  24.4419040  88.2702835  13.7205726  23.8603296  86.9228234
  25.3608489  49.0711212  24.0462804  24.7280717  49.7873116  24.1001225
  25.1645112  48.6400700  23.2144880  83.7118816  35.8414769  15.5266082
  84.2622185  35.2504039  15.0128043  84.2947769  36.1823106  16.2050617
  16.5610868  10.3427543  75.8277185  17.0285970   9.9360408  75.0981637
  17.1330005  11.0562410  76.1107023  50.3299218  84.0423251  84.3685897
  50.1637154  84.9062682  84.7456987  51.0593658  84.1809750  83.7645038
  59.7451019  82.8664112   0.9113873  58.8207340  82.8497982   0.6633894
  59.9541330  83.7968063   0.9943902  78.4432316  61.7503500  10.5807626
  78.7136507  62.6595211  10.4522645  78.1257582  61.4712334   9.7219628
  83.6098688 110.2025319  53.4125038  82.7778213 110.3622246  53.8579603
  83.5089796 109.3352032  53.0203290   8.8908177  29.9657239  73.3350058
   9.7763043  30.1892556  73.0483385   8.3775931  29.9375905  72.5275155
  28.2275009  49.6907282  24.1438389  28.5997629  48.8438940  23.8978195
  27.2809911  49.5649004  24.0766311   0.6775248  94.5537139  72.7327033
   1.1809075  95.3047562  73.0469866  -0.2320516  94.8514581  72.7485652
  66.1112595  62.4475002  26.4737678  66.8816757  62.9845667  26.6588140
  65.5179453  63.0335951  26.0039735  65.6056207  49.6131427  83.6316832
  66.2570851  49.0141333  83.9963921  65.8271973  50.4653633  84.0069910
   2.8504717 102.2023535  64.7828193   3.0216086 102.8997660  65.4157181
   3.1640303 101.4066315  65.2126284  21.8500644  13.2169952  93.7072890
  21.4950114  13.9347161  93.1828378  21.3263875  13.2239665  94.5085034
  45.0765228  76.5299940  30.7986975  44.7321558  75.6646633  31.0197043
  45.1239681  76.5318823  29.8426771  63.1240225  45.7818174  17.3482430
  63.8441086  46.1109447  17.8861809  62.9510355  44.9047041  17.6902640
  98.4924620  99.2162371  89.1093661  99.0662830  99.3346644  88.3524402
  98.2221525  98.2991267  89.0638401  55.0005198  69.4797659   9.4976270
  55.2446604  70.4042196   9.4527441  54.1697931  69.4282055   9.0249044
  43.6508256  26.7687978  84.9796505  43.1102735  26.2917890  85.6093301
  43.8127023  26.1388864  84.2773421  77.4144411  74.9919415  14.9936604
  77.6802111  75.9113550  15.0104952  77.7399254  74.6638489  14.1554213
  85.6843185  66.2526131   2.4844700  86.5723801  65.9437513   2.3050728
  85.7306290  67.2005177   2.3597090 111.3031292  63.7949753   5.8441722
 110.6169128  64.4596815   5.9033597 111.0581303  63.2646608   5.0859034
  30.9451604  72.4326515   1.7432292  31.6845179  71.8416595   1.6007237
  30.9990191  72.6643896   2.6703906 103.7228649 105.1561881  89.8156335
 104.0479343 104.6498776  90.5600901 104.4333189 105.7641173  89.6109106
   8.1919032   6.8143787  82.3243602   8.4356671   7.3163499  83.1020732
   7.5781566   6.1548127  82.6476582   3.0800003  86.7459679  16.6986203
   2.8339810  86.9572067  15.7980156   3.8241905  87.3186493  16.8842185
  89.1731548  44.9119234  14.2462337  88.2847309  44.7977734  14.5837164
  89.7309017  44.8770094  15.0233662 116.3312786 100.3131581  72.1442266
 117.1993368 100.3087807  72.5475688 116.4271276 100.8755780  71.3756390
  84.7924519  55.2260208  18.2325792  84.1025066  55.0826883  18.8803911
  85.5948067  54.9416876  18.6703122  87.5522423  46.7009830   7.2980243
  86.7850399  46.9898462   7.7921677  87.2277737  45.9892035   6.7463768
  83.2830048  52.4284267  24.5429373  82.3527050  52.2616196  24.3914843
  83.6877537  52.3277378  23.6813855  64.3642855  66.8840885   5.5967647
  63.6027002  66.7888117   6.1687273  64.6385717  65.9859276   5.4115444
  65.8193493  53.3928823   2.5583547  66.0138369  54.2871189   2.8389886
  65.5072403  52.9557467   3.3506492  56.2835294  31.5947713  90.5704151
  55.8545095  32.3344411  90.1402135  56.3209992  30.9151353  89.8974241
  22.2301990  38.0792989  80.4694028  22.3797875  37.9804029  81.4096554
  23.0998689  37.9955091  80.0783999  56.5813714  74.6366967  85.5206718
  55.9105855  73.9926423  85.7475306  56.1057263  75.4647054  85.4543908
  44.1255474  69.2104912   8.6343437  43.5067511  69.2390871   9.3640751
  44.5265722  68.3434105   8.6942083  66.6838789  51.9304943   5.6085461
  66.0561991  52.2421598   6.2605560  67.5341320  51.9986057   6.0428923
  83.4466743  83.1985092  21.4370799  82.8382874  83.8250065  21.0451651
  83.4632015  82.4644566  20.8229780  42.5184163  91.7201448  94.0396670
  43.3297773  91.3148094  94.3456546  42.8069197  92.4635673  93.5102116
  41.2229520  11.8749942  76.5479644  41.7159825  11.1811341  76.1101242
  41.8497163  12.2671451  77.1559186  97.8086536 106.4996291  87.5321008
  97.6782577 107.2270919  88.1404020  98.2378166 106.8956137  86.7736526
  53.6914825  79.6157694   5.2007288  54.5303869  80.0688076   5.2857095
  53.5189390  79.6058178   4.2592609 104.5031929  82.9337120  29.6423841
 103.8488674  82.5968838  30.2544665 104.8211956  83.7388611  30.0508499
  30.3051549  64.7960653  86.5889533  29.6665746  65.3119744  86.0967286
  30.7960492  65.4428662  87.0958002  51.0665017  19.6481647  86.1715682
  51.7705518  19.4095697  86.7745741  51.0465127  20.6049098  86.1932732
  37.8862220   8.6981572  72.3686500  38.6976033   8.1913604  72.3362799
  38.0668384   9.4736327  71.8373819   0.6805718  84.6597911  55.9117480
   0.6843388  84.8788810  54.9799629   0.8506882  83.7181712  55.9370776
  31.7481482 104.4106627  94.7560120  32.3314535 104.8460961  94.1344181
  30.8925020 104.4179297  94.3269874  45.7171899  13.2685746  94.2183332
  45.6881600  13.2904185  93.2618229  46.5901166  13.5934629  94.4389446
  62.9532099  86.0414600   3.4135792  62.8457165  85.1015949   3.2675317
  63.4590769  86.3446808   2.6596659  11.6406041  14.0306367  71.8607302
  10.8086663  13.7732305  71.4634271  11.6404468  13.6013259  72.7162548
  35.4485106  71.6591120  16.3281202  35.7779694  72.5575924  16.3074517
  34.6236038  71.7175150  16.8101430 115.3338253   9.7372951  91.1550106
 115.3392398   9.3964996  92.0494710 114.4215261   9.9799241  90.9966655
  59.3132067  72.5782776  10.0879037  58.8640642  71.8593359   9.6433526
  59.6173239  73.1453562   9.3792641  89.6124649  15.6245708  12.2798324
  89.9292088  14.7353399  12.1211696  90.0265503  16.1517930  11.5966034
  48.1689530  11.0174693  82.3525234  47.4477750  11.4418067  81.8876811
  48.0003339  11.2026681  83.2763751  85.2748394  92.6434898  14.4949603
  85.2278996  93.0147934  13.6139596  85.8798599  93.2174110  14.9648392
  37.1655202  85.8984184  10.4892027  37.9344273  85.3925037  10.7519925
  37.4121141  86.2914848   9.6519893  17.7494603  19.3132915  89.6784975
  17.9887324  20.0426997  89.1067107  18.1422168  18.5451259  89.2638917
  52.7119332   5.9198083  89.6726211  52.4203282   6.8299331  89.7261580
  53.6593228   5.9638490  89.8020192  69.2916775  19.2793167   4.1429386
  69.1683674  19.9636066   4.8007935  69.7479725  19.7172511   3.4244394
  35.0988483  81.7286396  13.9249396  35.7592916  81.5404129  13.2581437
  34.2883873  81.8527412  13.4309924  47.5679922  91.6209507  18.8575613
  46.8394375  91.3640881  19.4227743  47.5429392  90.9939575  18.1347227
  30.6848812  58.6998653  35.2291965  30.2171540  58.8731766  34.4122362
  29.9988651  58.4573984  35.8511472  13.6454326  42.6196660  65.4994317
  13.4562713  43.4720601  65.8916970  13.2787162  42.6753988  64.6170230
  16.4680129  15.6124534  86.9296767  16.5862924  15.3776015  87.8500499
  15.5314189  15.7917299  86.8466933  71.4308756 105.4582215  90.3265710
  70.4991119 105.3863955  90.1194693  71.6944378 104.5672847  90.5567791
  55.6161165  12.6325083  17.5027001  55.6586790  13.2223284  16.7500162
  54.7136211  12.7052450  17.8132534  65.8458281  63.0532169  21.8247294
  66.4268827  62.4971581  21.3056898  65.4981899  63.6874771  21.1977601
  17.1768695  18.6557664  39.7207113  17.7413302  18.8605251  40.4661508
  16.6139918  19.4244327  39.6282430  68.3838361  82.7531720  83.1613954
  67.6641195  83.3735800  83.2768603  68.2526749  82.3948646  82.2835322
  71.9300175  53.7899780  14.1040516  71.9349194  54.7171974  14.3416893
  71.0717201  53.4746981  14.3871629 101.1803406 101.4156867  69.8511787
 102.0139425 100.9808875  69.6714802 100.7260006 100.8240176  70.4509588
   3.9270174  65.7090331  76.7623981   3.3474123  65.9033704  77.4989589
   3.3386957  65.4227758  76.0637112  13.5599357  16.0863103  83.7876852
  12.7897531  15.9207668  84.3314167  13.9183694  15.2169170  83.6090537
 108.0076378 100.2659226  68.0173393 108.9569824 100.1461554  68.0423565
 107.8232687 100.5304814  67.1160908  66.4371538  61.0767603  13.0351067
  66.1005306  61.6408730  13.7313056  65.8038568  60.3611755  12.9794097
  66.3276546 104.8466826  57.7167960  66.0417550 105.6652594  58.1222864
  66.4562815 104.2473555  58.4519787  27.1333486   2.3540820  93.8871616
  26.3669711   2.8422775  94.1880976  27.4016887   2.8006925  93.0841898
  57.5303125  34.0667439   9.5279449  56.6695786  33.7015367   9.7328609
  57.9716730  34.1295576  10.3749919  62.2206640  91.8910122   1.9819418
  61.7636824  91.6589928   2.7903739  61.5743351  92.3810196   1.4736298
 112.9714929  44.0755548  68.3332749 112.0874798  44.2865457  68.6336680
 113.3312022  44.9128999  68.0405207  68.0394077 106.3079262  19.2671967
  67.3747158 105.7859135  18.8178444  68.2271290 107.0271873  18.6641490
  70.5395835 105.0012112  74.5981713  69.7548859 104.7746087  75.0973030
  70.2258079 105.1269580  73.7026473 105.5432402  19.0679874  95.0659336
 105.3954160  19.7027387  95.7669827 106.4785563  18.8704766  95.1149621
  26.1984521  34.8556413  94.9825698  26.3228732  35.8010091  94.8986423
  25.8739263  34.7350682  95.8749680  91.0243290 107.5980283  87.4298914
  91.6491621 108.0086709  88.0275472  90.7433575 108.3077908  86.8523736
  44.9299985   4.2720880  55.4402872  45.0890523   3.3296479  55.3879495
  43.9887601   4.3646945  55.2929063  30.1593047   2.1671142  60.9417744
  30.8528215   2.5523700  60.4061909  30.4283744   2.3414935  61.8436761
  61.1359692  89.9281693  32.1763420  62.0346928  89.7263050  31.9159889
  61.2137938  90.7154846  32.7151418  55.0461435  79.7319555  15.0459111
  55.4473591  80.3894329  15.6142199  55.2082253  80.0515556  14.1583216
   6.0173475 102.8613997  75.7535167   6.8352091 103.1857396  75.3764935
   5.8720648 103.4137870  76.5216251  42.9539585  68.4545898   1.9765674
  43.3733845  67.6148796   1.7889565  42.9156160  68.8978195   1.1290357
  10.4328614  31.1748018  94.1495712  10.3703147  32.1081342  93.9465653
  10.8589679  31.1440267  95.0061460  50.9339982  12.6859702  69.7490259
  50.0585919  12.8999604  70.0716920  51.1198407  13.3602418  69.0955372
  97.8625190  27.3719110  60.3069134  98.7474715  27.0216741  60.2048035
  97.6445317  27.7269639  59.4451399  24.1700673  70.9197903  19.5246506
  24.7210121  70.1746416  19.2849815  23.9323235  70.7580280  20.4376364
  86.0807037  66.6810513  20.1317167  86.9704247  66.3313723  20.1801682
  86.1732960  67.6046467  20.3654528  27.4028730  57.8026819  31.4497280
  27.5747252  56.8994617  31.1834764  28.1714845  58.2901287  31.1533070
  23.4404784  10.5970515  93.1694749  22.4859840  10.5564489  93.1101659
  23.6897880  11.2846746  92.5520201  34.7218495  13.9446820  77.0311804
  34.1718846  13.8624086  77.8102847  34.1097957  13.8801755  76.2980624
  10.4647696  92.5573087  89.1761853  10.6354868  93.4534813  88.8864203
  10.2739966  92.6399375  90.1105364  37.0930243  49.3667078   6.4836085
  36.8430948  48.9928722   5.6386143  38.0481505  49.3057680   6.4993823
  45.4819012  73.3856106  21.5068221  45.2613831  73.6932564  20.6276417
  46.4249563  73.5312891  21.5820241  97.2083252 104.8221207  70.5865236
  97.7629822 105.1596499  71.2898465  97.3749178 105.4079056  69.8480554
   7.7543509  94.6628428  71.5162869   8.2524740  95.4461957  71.7496701
   7.6869547  94.1694833  72.3337765  29.4944221   0.8389415  93.5936913
  28.7013799   1.3749112  93.6012411  30.2100688   1.4688958  93.6787930
  83.2628727  62.4542189  16.0654271  82.8791428  61.8770027  16.7255867
  83.0121708  62.0616722  15.2291942  64.3175012  23.7165441  58.7750264
  63.8491708  23.4057655  59.5498271  64.4718438  24.6457757  58.9451404
  61.4459038  62.2901917   7.7915752  62.3650312  62.1551180   7.5609380
  61.1767960  63.0465078   7.2702384  94.5775574  79.3819881  89.0857358
  94.8342245  80.1106239  88.5205431  95.0435846  78.6260653  88.7284757
  39.7805429  64.5997429  26.0803962  39.7525764  65.5556250  26.0387421
  39.2200994  64.3758774  26.8233752  34.9463826  11.1247911  74.9023314
  35.0429374  10.7778205  75.7891913  35.6172401  10.6701650  74.3929215
   0.8970266  22.1297063  81.1572929   0.2546197  22.3134317  80.4718812
   1.2390405  22.9896535  81.4017339  33.0050546  18.0620755  79.4149251
  33.0598384  18.9284696  79.0116926  32.3643333  17.5903167  78.8828023
   2.6521474  17.0357265  77.8149660   3.5346061  16.7189016  77.6223000
   2.4622994  17.6576938  77.1125777  48.6839467  12.6981487  89.5134874
  48.6261731  13.6069335  89.2185135  49.6233541  12.5283422  89.5835461
  52.4044466  74.3908644   8.9185244  52.0099688  73.7582445   9.5188648
  52.2299290  75.2424192   9.3193114  29.7449475  51.8669309  86.3929869
  30.5144435  51.6997041  86.9371833  29.5436841  51.0195531  85.9959056
  46.7858982  54.6094704   3.1433555  47.2947598  54.3476868   2.3760486
  47.2698498  54.2486286   3.8861984 115.3620117 108.7550116  87.3381396
 116.1852472 108.6436845  87.8136660 115.6288689 108.9674521  86.4437737
  44.4661408   9.3024482  67.8902216  43.5113793   9.2514838  67.9356285
  44.7158128   8.5944738  67.2963615  21.4015800  51.0537328  88.9252950
  21.4338046  50.1809777  88.5335179  22.3194057  51.2903108  89.0589507
 113.2106339  11.1635532  63.7704440 112.6854765  10.4058446  63.5129257
 113.3602535  11.6399659  62.9538174  61.6513007 102.5743151  76.5746470
  61.5238636 102.0975447  77.3948164  62.5723331 102.4326468  76.3558717
  55.3508234  72.2552443  38.3085084  55.9313536  72.0482540  37.5761318
  55.0173330  71.4057589  38.5972834  67.2107315  88.4955883  14.6394587
  67.0372152  87.5989342  14.3528795  66.4859200  89.0066433  14.2793131
  58.4232569  55.7223177  37.1055055  58.0699158  56.5834379  37.3287845
  59.2071056  55.9114552  36.5897179  46.7585802  80.5084515   9.1473985
  46.4839029  79.8363400   8.5236567  46.6284132  81.3346863   8.6819720
  58.9138967  10.9738387  76.0236152  59.1988832  10.5538310  76.8351634
  59.1034013  11.9027986  76.1553474  75.0878143  58.5298109   1.6530775
  74.2427063  58.4453630   1.2116127  75.4649925  57.6507330   1.6185112
  95.8735054  74.4028331  61.7179294  96.0534351  74.1298116  62.6175495
  95.0219362  74.8373640  61.7652793  92.0449162  63.0523252  33.2045937
  92.0358467  63.4853601  34.0581942  92.0291615  62.1175671  33.4100485
  24.8043281  23.5411538  92.3068412  25.7226592  23.2735433  92.2709789
  24.4157058  22.9749002  92.9735936  32.4791586  96.5470839  72.4805303
  31.5881693  96.4841986  72.1364327  32.3898470  96.3528729  73.4135576
  92.6256847  39.6374321   5.9992850  91.9567871  40.2236509   5.6455159
  93.1858253  39.4335318   5.2503544  72.9260617   5.2490129  78.5682590
  71.9753343   5.3387965  78.5028406  73.2386094   5.3500833  77.6691874
 109.2202633 109.3852187  63.0528470 109.0210884 108.9706946  62.2133632
 108.3656900 109.5182133  63.4630294  10.9845125 100.1468993  69.1511817
  11.2674391 100.8398390  69.7478600  11.0918772  99.3393994  69.6538206
 115.2901857  95.6170178  86.6739084 115.4817837  94.9028612  87.2817756
 114.3741291  95.4845906  86.4299072 107.6093822 108.3984947  54.2542124
 107.7571725 109.1359997  54.8462296 106.6637545 108.2531452  54.2840958
 116.3010256  73.6252880  42.5889635 116.4618809  73.1397343  43.3980322
 117.0198025  73.3711433  42.0101690   3.2218704 107.1238899  40.0017595
   4.1433188 107.3111248  40.1809549   3.0979559 106.2230682  40.3007555
  96.4773064  85.8151913  13.6793590  95.8571344  85.2981949  14.1934896
  96.9822090  86.3012886  14.3312907  73.7101239  11.5454138  29.2444873
  74.5354051  11.2105883  28.8937259  73.9573854  12.3344840  29.7266388
  33.0570531  13.5107649  58.5455990  32.3839706  12.8315295  58.5027933
  33.8213325  13.1174792  58.1243658   0.2933898  89.4820213  38.1079936
   0.6563182  88.7430191  37.6197481  -0.6543016  89.3537521  38.0672526
   8.1483209  79.2337513  13.5512435   7.9184824  78.9177704  12.6774228
   9.0764040  79.0198469  13.6468470  94.1908460  69.1569996   9.7065282
  94.2315202  70.0768614   9.4449329  93.2739120  69.0152216   9.9418229
  95.1919800  92.6330757  36.0562229  94.6458464  93.0368042  35.3817105
  95.9844928  93.1695271  36.0755372  97.8267437  71.2918711  46.3702917
  98.2430905  72.0186377  45.9069347  97.2923177  71.7121553  47.0440722
  35.2228332  81.3047218  23.3247948  36.1530900  81.0793018  23.3185053
  34.9227691  81.0590363  24.1999125  28.1702065  84.1915894  31.9740462
  27.4717474  84.6848488  31.5438342  28.2363605  84.5809460  32.8459692
 104.2560881  84.2234421  55.4576397 104.5880919  83.4031391  55.8224916
 104.8951929  84.4631195  54.7865725   4.9862692  70.1959467   3.6743951
   5.5212432  70.9890604   3.7060866   5.5553615  69.5091343   4.0217540
   9.9187249  89.4650841  21.6201687   9.9480987  89.4314194  20.6640124
   9.4334251  88.6796284  21.8726897 109.9370503  69.1200733  18.6641586
 109.6537762  69.5140076  19.4892681 110.6427377  69.6891308  18.3568943
  21.6253638  87.7568436  28.3161521  21.5973854  86.8519783  28.0052447
  20.7511830  87.9147339  28.6726761  13.6009669  95.4389095  57.4897099
  13.1782329  96.1467171  57.9760695  14.3140507  95.1497078  58.0590153
  13.2486880  59.7813988  29.0007424  13.6246014  60.4713011  29.5475078
  12.6562977  59.3085718  29.5853305  74.8961320  51.4933957  91.2388571
  75.0533729  51.5286340  90.2953185  74.9123534  50.5598344  91.4496739
  37.9679036 106.9622612  54.3401623  37.6220202 106.4426804  55.0658560
  38.8631058 106.6442013  54.2231941 100.8857780  88.3897400  16.5974653
 100.9344679  89.2720318  16.2294817 101.7879885  88.0707645  16.5750682
   9.4655645  87.2934532  64.1751337  10.2888751  87.4071980  63.7003136
   9.5429862  87.8749561  64.9315071 112.1797081  75.7572126  20.2168298
 113.0503436  76.1209154  20.0557590 111.6129261  76.2056923  19.5892525
  25.4148173  87.5432396  28.6779618  24.5592141  87.7954578  29.0251780
  25.6180167  88.2169056  28.0290294  22.1740508  80.4632473  15.1337957
  21.7979980  81.3279247  14.9690366  22.0790648  80.3366756  16.0778248
  18.5219365  34.7407808  92.8983821  18.7592870  34.7634305  91.9713523
  19.3603355  34.7352876  93.3602123  99.8279291  80.0353241  21.1797214
 100.0927609  80.4753113  21.9875050 100.0423258  80.6589699  20.4859352
  18.4325194  77.7230692  81.2025833  17.9913449  76.9561577  81.5678787
  18.6887157  77.4543858  80.3203106  16.6565430 103.7685966  48.6348724
  17.3782742 103.1445312  48.7115669  16.4361751 103.9922333  49.5391178
 108.8907283  70.2925873  42.8270102 107.9963648  70.1223564  43.1225872
 109.1881173  69.4559860  42.4693918  51.1078745  15.9911479  36.7241883
  51.4836222  15.5167616  35.9825706  50.6005365  15.3320349  37.1978998
  16.8434834 105.5799770  42.5885534  16.1811912 104.9284363  42.8189754
  16.9434154 105.4949570  41.6403913 110.5767446  90.4166508  32.5720549
 110.8780205  91.1059761  33.1639028 110.2733612  90.8845997  31.7940998
  16.6399240  73.7647915  50.8870888  17.2942567  73.5489130  50.2226496
  16.8040156  73.1427240  51.5958452  21.2186384  96.0583210  78.1056070
  22.0269871  96.4938354  78.3760357  21.5090752  95.2302647  77.7232361
  99.5981067  70.1389313  59.9945593  99.5361512  69.1898775  60.1027012
  98.8821905  70.3593349  59.3986416 108.8154983  75.1737022  43.8358212
 109.0009182  74.2981863  44.1754055 109.2805772  75.2098608  42.9999828
  32.2788858  47.6843357  58.0737734  31.7909956  48.2969475  58.6241388
  32.7887535  47.1607876  58.6919641  36.3555229  30.9743536  11.7088735
  36.9696604  31.3388098  11.0715044  35.9071434  30.2734126  11.2357271
  16.0537255  93.5413742  49.2025137  15.3405786  93.4364319  49.8323107
  16.8306899  93.6863899  49.7424507  23.2722449  77.8322887  56.2250233
  24.1808891  78.0251980  56.4560699  22.8345490  77.6985931  57.0657253
  10.5411160  92.6020050  19.5779657  10.0209248  92.5761795  18.7748682
  10.1892495  91.8914509  20.1141977 100.9120625  44.3867445  23.2223582
 100.0000232  44.5427084  23.4674978 100.8870881  44.2618561  22.2736692
  49.0426964  18.7622202  31.4583778  49.4121891  18.5064543  30.6132197
  49.4509536  19.6058691  31.6528177  29.0664542   0.5668963  48.9652109
  29.9861425   0.3151740  48.8812923  28.9837074   1.3545645  48.4276533
 103.1797033  77.5018120  34.6682119 103.2317191  78.3109474  34.1594577
 104.0519720  77.1149302  34.5927191   1.9231524  69.1330957  59.7791576
   1.1636157  68.5933590  59.9982929   2.2829667  68.7305975  58.9887381
  13.6457109  44.6951246  42.9249573  14.5596159  44.5070887  42.7112961
  13.1574106  44.4246769  42.1473646 104.4824010  54.9254608  39.9334717
 103.6405903  55.1315022  40.3398371 104.7826653  55.7581186  39.5691204
   3.2411465 107.8723145  12.7424872   3.1465632 106.9292927  12.8766513
   2.3950861 108.2371902  13.0018711   6.0445738  75.7801914  43.9835072
   5.6031865  75.3867769  44.7362566   6.5640247  76.4927244  44.3559265
  19.4952738  70.1157045   5.6605244  18.6715567  69.7584677   5.9923446
  20.0488353  69.3480539   5.5173224  12.7278256  81.1724663  17.2172189
  12.5696468  82.1164513  17.2279525  13.6370230  81.0852051  16.9309008
 105.9937626  93.0963898  42.7501154 105.1845198  92.6166916  42.5733519
 106.0010975  93.8007641  42.1020079   9.3962091   1.5789641   9.3717164
   8.6714596   0.9566248   9.3111569   9.4797582   1.9360865   8.4875703
  42.7098108   1.6530932   4.5666984  43.3989996   1.1010684   4.1972053
  42.3653960   1.1462248   5.3020179  83.2086807  81.3622189  19.4847715
  82.2635751  81.2116337  19.5030022  83.3986455  81.5820026  18.5727191
  30.1843333  53.7008238  49.4414616  30.4438996  52.7819014  49.5081329
  29.2276716  53.6819649  49.4674063  74.6819133  11.2342490   4.9241260
  73.8916248  11.6634978   5.2518731  74.5736116  11.2268961   3.9731011
  55.6963712   5.7208384  34.0741086  55.3683275   6.4843977  33.5991311
  56.2998742   5.2992857  33.4623051  30.4371619 103.8224888  15.9244776
  31.0220885 103.1063843  15.6769133  30.8034492 104.1591263  16.7422473
  79.8518532  71.1797609  86.0171153  79.7069330  71.8742074  85.3744884
  80.2757122  71.6198911  86.7539074  40.6901884  60.2607584  56.1440086
  40.7060146  59.3347359  56.3857985  41.4520168  60.3728914  55.5754328
  33.6928606  87.0874310  24.4819164  33.9529300  87.4742317  25.3179622
  32.8482151  86.6744423  24.6615100  55.4158729   4.7408427   3.9971691
  55.7357067   4.2460383   4.7515559  56.0236353   5.4760779   3.9178413
   6.3291538  74.3142509  12.0349944   5.4245013  74.5179701  12.2723448
   6.3345486  73.3661556  11.9033861  16.7878926 108.7006187  18.6680269
  17.0371675 109.0065575  17.7959633  17.4976873 108.9969540  19.2377722
  95.9337335  82.7101231  30.9660459  95.1106125  83.0811310  30.6481504
  96.3493829  83.4260654  31.4465547  16.3795328  91.6401863  32.5116801
  16.0639238  92.3037338  31.8982291  15.6955755  91.5864563  33.1791735
  10.4597592  68.4088039  69.6757174  10.5871499  68.6215067  70.6002474
   9.5097631  68.3570576  69.5705462 107.8069418 105.4188347  45.8366680
 107.8924834 104.8228645  46.5808058 106.9893783 105.1572895  45.4130936
  25.3697038  87.0638847  46.7210197  25.6484652  87.9773045  46.6562891
  24.9808145  86.9933605  47.5928116   9.5836622 107.2156334  50.5276775
   9.6104139 107.2622776  49.5719910   9.0163243 107.9416084  50.7871246
  15.4713464  85.2595806  23.3796549  15.5168998  84.6177673  24.0883398
  16.3352537  85.6717205  23.3738756  37.0998621  75.6238365  52.3571730
  36.7251420  75.4243994  51.4992428  37.5650120  74.8253822  52.6068449
  97.4863296  54.7827339  36.7192960  97.4980622  55.1965618  35.8562541
  98.1500917  54.0952539  36.6643143  16.2484920  57.5510168  60.5235004
  16.7532361  57.0638180  61.1747313  16.0331643  58.3771372  60.9563875
  20.2248025  76.1362553  27.5508285  19.9380732  76.6322422  26.7840052
  20.0339842  76.7104435  28.2925367  26.1532259 105.8537483  41.3085270
  25.7208252 105.0899410  40.9266043  26.4081383 105.5705261  42.1866131
 109.2802619 102.0132160  72.8917980 109.5074033 101.9569492  73.8199568
 109.9874496 101.5492821  72.4436045  18.9052761  89.1767216  49.2814159
  19.3650377  89.8604965  49.7685528  18.9917874  88.3947945  49.8267031
 114.0897086  78.6258507  38.9154220 113.1427016  78.5760450  38.7853098
 114.3072244  77.8291130  39.3992877  45.4754829  44.3264818  36.4594197
  44.7777510  43.6719084  36.4287424  45.5044889  44.6873379  35.5733180
  10.6049395  98.5433769  35.3624725   9.9205267  99.2090225  35.4312587
  11.2331200  98.7741280  36.0468507  91.5641432  91.3757706  52.0334816
  92.5201565  91.3459110  51.9963598  91.2848597  91.2370777  51.1284971
  17.7043897  41.8749704  68.4574934  18.1250745  42.4527921  67.8208061
  18.4315187  41.4492120  68.9116307 104.5724254  71.7672253  55.1040125
 104.3181198  72.0411301  55.9852266 105.0715321  72.5070572  54.7579288
  67.4158091  12.0878066  48.2946396  67.8136343  11.8218363  49.1236305
  68.0675644  11.8591345  47.6319504  33.2432008  84.5482159  23.5284495
  32.3999381  84.8769569  23.8400102  33.8811922  85.1881790  23.8441277
   9.5535231 106.8179703  34.8396873   9.5856810 105.9202862  35.1703811
   8.9775467 107.2777367  35.4505014  25.5938673  74.7579718  11.5002251
  26.0179543  75.1685333  12.2537637  24.9173141  74.1984510  11.8815923
   9.3914050  73.8142538  31.0955071   9.8894387  73.4739828  30.3522635
   9.9338990  73.6152220  31.8586040  84.0243358   1.3474883  16.8235326
  84.6326560   0.6444491  17.0513797  84.4446534   2.1430815  17.1500170
  40.1920938  64.3929529  75.7819271  39.9770737  63.4980917  76.0450220
  39.5557356  64.9380970  76.2446356 113.7098568  97.4231625  54.2344046
 113.4378963  97.1670914  55.1157093 113.7751951  98.3773994  54.2716932
 109.8924422  76.1464787  29.5252943 110.2057546  75.5897999  28.8124323
 110.2018004  75.7135344  30.3209615  46.5599710   6.2362898   8.1161559
  46.8523562   5.8867968   8.9579350  46.5753877   7.1862257   8.2328528
  56.8363124  10.3474177  36.7440152  57.2469407   9.6875037  36.1853242
  55.8964247  10.2076281  36.6286778  22.3622513  89.7732353  69.2625475
  22.5493765  88.9920902  69.7831488  21.4143300  89.8862839  69.3325186
 115.3660520  66.2751913  12.0515120 115.8566394  66.6247272  11.3076174
 115.4119773  66.9646215  12.7139366  36.6287914   8.2982291  27.7919149
  37.4140185   8.6068953  28.2439923  36.9298522   7.5548590  27.2694254
  90.9591412  13.9503135  73.4438153  91.8744885  13.6712875  73.4665199
  90.6216406  13.7355460  74.3134113  35.6043601 108.8500404  29.0556574
  36.4126039 108.8932705  28.5446692  35.4270911 107.9136276  29.1447163
  36.9329906  97.6748180  23.2358837  36.6325927  96.7696571  23.1541538
  37.1986747  97.7572346  24.1517711  35.5838680 102.1021461  55.9677124
  35.6099153 101.2272644  56.3551950  34.9793744 102.5928116  56.5245438
  49.7432041  97.5937939  64.2714310  49.0012980  98.1677628  64.0807343
  50.2939177  98.1036186  64.8655891  99.2001372  84.4434547   9.6260488
  99.3452173  84.3785954   8.6821330  99.7973841  85.1341248   9.9132723
  31.3733745  77.3329830  54.9052525  31.2850404  77.8502846  55.7057714
  31.2956047  77.9723215  54.1971350  54.1925877   3.1829680  18.6571121
  54.0106684   3.3395804  19.5837235  55.1313967   2.9990042  18.6251009
  95.8112269 108.4614658  56.2621498  96.3816696 108.7980556  56.9531870
  94.9243122 108.6125660  56.5889263  66.0910219  26.9317759  38.5135460
  65.7363767  26.0451926  38.4469628  66.7217726  26.8841017  39.2319536
  62.7685732   2.6958598  20.8847547  62.3810095   2.8231276  20.0188255
  63.5317725   3.2735289  20.8928204  14.4241714  89.4134712  45.5621433
  14.2371106  89.1249657  44.6688318  15.1753640  89.9998474  45.4721069
  25.4556775  68.2804155  19.1942000  26.1084986  68.9714050  19.3064165
  25.9587359  67.5211811  18.8997030  37.8195068   6.1738051  30.2395415
  38.3261296   5.4560030  29.8596382  38.2410971   6.9664515  29.9075723
  45.0574017 102.8471279  23.6535358  45.6724977 102.1137333  23.6583138
  44.1967058 102.4373055  23.5670877   8.2969266 100.2871227   7.9335767
   7.9704976 100.9107208   8.5822719   9.1194725  99.9658298   8.3029300
  72.5756579  38.8334836  82.9048379  73.1885146  39.3601312  82.3917325
  73.1021049  38.1038751  83.2315667   8.8510817  96.2554741  64.5357275
   9.1166443  95.4267216  64.9343252   8.0338973  96.4834309  64.9789810
  38.2276249  78.7458134  30.4749465  38.5454154  78.9437389  31.3558936
  37.9184294  77.8415632  30.5294013  36.4234686 102.3789310  25.1876879
  36.4206696 101.9882202  26.0615134  35.5991220 102.8629971  25.1391268
   8.8124204  76.2856436   7.7968913   9.6812797  76.0858154   7.4484879
   8.3722973  75.4369450   7.8441072  16.6917479 109.7224808  25.0105548
  16.6704273 110.4099369  24.3448400  17.6202524 109.6200085  25.2193904
  76.3251323   2.0194758   0.3445879  77.1455950   2.4228800   0.0611449
  75.6495732   2.6502837   0.0957147  18.5077417  90.8487225  18.0953801
  18.1844902  91.5447998  17.5233448  18.8385665  91.3075733  18.8675511
  32.1225166  64.9476814  30.5218363  32.0659876  65.7149076  29.9522710
  33.0602241  64.7674084  30.5884504  79.4250021  28.2765569  86.0250427
  79.9507587  28.5621824  86.7721929  78.5842943  28.7194051  86.1404963
  69.0382427   6.6131819  25.7577491  69.8622793   6.1293925  25.7016683
  69.1558379   7.2008551  26.5041041  53.3364201  76.5639734  26.0535979
  54.0496731  77.1017599  26.3975239  53.4176397  76.6380453  25.1027298
 111.9113671  96.5893650  12.4663424 111.4044439  96.3532066  11.6894972
 111.5186071  96.0774326  13.1733787  74.9953567  34.6215905  89.7010495
  75.5784523  35.3770436  89.6267368  74.7406050  34.6054925  90.6235866
  37.6650500  83.9366627   7.7410471  37.4823928  84.5457172   8.4565336
  37.2509646  84.3352604   6.9756114  15.6233835  57.8446627  16.8710876
  14.8773062  57.4419641  16.4267516  15.2688277  58.6461353  17.2560060
   5.2447546  97.3467922  47.3700809   5.6030869  96.4824581  47.1681690
   5.5909687  97.9161072  46.6828775  22.7921295 107.0110703  27.9203391
  23.7330437 107.1821499  27.8797865  22.5489974 107.2218704  28.8218260
 111.6990125  92.1488094  38.8029981 111.9801953  91.3062954  38.4461617
 110.9024512  92.3611164  38.3165336  42.8210354  82.6438236  41.9852495
  43.0585575  83.3047295  41.3348484  42.4060631  83.1402588  42.6906443
  56.1444134   1.2901152  32.8270626  55.9892255   0.9290541  33.6998630
  55.2991814   1.2169302  32.3838258  21.0063338  81.2816620  25.4815364
  21.0796928  80.3639030  25.7433915  20.2477932  81.6088009  25.9650922
  82.6105184   7.5586928  18.6750603  82.4457044   8.1514014  17.9417372
  81.7444343   7.2310866  18.9175546  31.6228843  96.1415577  35.2615762
  32.1434999  95.3937054  34.9684882  30.7589889  95.7737732  35.4477191
  28.9483190  92.4918842  27.2695208  28.4517479  92.4425602  28.0863547
  29.8264503  92.7611923  27.5389504  78.2044679  43.0254258  80.8766003
  77.4365296  43.4164418  80.4599376  78.0615590  43.1571664  81.8138571
  18.8811803  92.6850986  59.3052959  19.1032732  91.7689037  59.4710922
  19.6560180  93.1734848  59.5833969  48.1231707   2.6768149  23.0927253
  47.4521935   1.9951762  23.1300569  48.7672186   2.3449172  22.4672031
  21.8212778   4.0349329  23.2430553  21.0748452   3.7927760  22.6949406
  21.5554065   3.7931384  24.1302276  89.3395204  11.8639792  52.1484709
  88.8179940  11.3640727  52.7764320  88.7016839  12.1913184  51.5142441
  30.5391598  63.3075047  64.6346140  31.0554242  62.5047779  64.5615673
  29.6869969  63.0155849  64.9583912  16.6002095 107.9455757  36.6992283
  17.3921990 107.9786110  37.2357845  16.6757023 108.6993504  36.1141157
   1.4780447  87.4167824  12.6371086   1.3956028  88.0351257  13.3631146
   1.3873671  86.5554333  13.0446446  13.1274688 103.3563328  29.5051408
  13.5932469 104.0287304  30.0023031  13.3926415 103.5030270  28.5971761
  97.5857949   9.7651232  42.3634338  97.1246457  10.4259051  42.8801012
  98.4397816   9.6823443  42.7877998 105.7211691  75.2238846  26.0744071
 105.0740331  74.5194912  26.1101341 105.9131747  75.3256798  25.1422048
 103.5356634 100.4071808  68.8311386 104.0974098  99.8500633  69.3699265
 104.0144127 100.5054760  68.0081129  25.0540161  83.4430885  30.0610352
  25.2246690  82.5031853  30.1217580  24.2015052  83.5593224  30.4804921
  59.7802633   2.4347247  26.0677171  59.0892929   2.6459349  25.4398775
  59.3770260   1.8043459  26.6645956   9.7948104  91.8613338  41.3711071
   9.5920426  90.9512997  41.1544132   9.3221611  92.0242023  42.1873856
  77.3724526   0.5046595  30.3610802  78.2889766   0.4653109  30.6343317
  77.0882291  -0.4092084  30.3438163  24.6929646 101.4047146  31.7528844
  24.1284895 101.1583805  32.4856305  24.2548275 101.0450649  30.9815741
  18.9729619  58.3569527  59.1806602  18.3906794  57.7824640  59.6777916
  19.4978476  57.7612972  58.6459398 115.9651529  55.4145707  93.0844736
 116.2652885  54.6804036  92.5486185 115.7930600  55.0293721  93.9436813
 106.1309713  71.5683937  24.4588256 105.5316966  72.2988605  24.3054509
 105.5758661  70.7898474  24.4146180   3.0061188  94.1549778  20.0440645
   3.2986867  94.8830509  20.5922818   2.1920729  93.8599491  20.4521275
   5.0419855  59.6211433  27.4000454   5.2824903  59.1893005  26.5803480
   5.4055434  59.0577936  28.0831957  15.8425367 108.0386639  32.4543977
  15.0452065 108.3996487  32.8419352  16.1401653 108.7146187  31.8455195
   3.6825278  79.6494102  12.1917319   2.8255606  79.4381237  11.8213308
   3.9424866  80.4570293  11.7485499  21.0779357  80.2569485  41.5735102
  20.2377725  79.9534321  41.2296581  21.4664888  79.4804144  41.9763184
  53.9845818   9.6264494  22.4194503  53.2012862   9.8628844  22.9162145
  54.1204113  10.3619135  21.8220639  94.0766441  37.8555955  92.3026110
  94.7968649  38.0405988  91.6998778  93.7942826  36.9700803  92.0737805
  79.9676579  19.5406188  39.7844005  79.8901338  18.9093722  39.0690279
  80.1531190  20.3732146  39.3501019  67.1161431   1.7019499  60.0982285
  67.2799248   2.5740088  60.4572964  67.1770758   1.8180216  59.1500521
  14.6210885  69.7883940  23.0741119  13.8560033  69.3678904  22.6816177
  15.1750219  70.0212193  22.3290062  66.2926358   0.0829924  34.1987586
  67.0554942   0.6440485  34.3383932  65.8140725   0.1189459  35.0269580
  21.9646859  77.4920177  41.1172628  22.4089718  76.9649553  40.4531479
  21.6808820  76.8579769  41.7758083 100.3196018  94.1240406  65.3814983
  99.8415511  93.9767456  64.5654058 100.2733510  95.0702286  65.5187368
 106.7272633   0.1584948  33.9589000 106.9565886   0.2927149  33.0393195
 106.3616532   0.9974421  34.2394876  30.2818948  15.8634413  20.9438872
  30.2344048  15.1692999  21.6012573  30.1770008  15.4091967  20.1078916
  12.0876837  83.6268902  39.9100900  11.7535913  84.4248199  39.5002937
  11.3781679  82.9919624  39.8116946  91.9135636  16.6339243  41.7912674
  92.5204438  15.9026183  41.9058180  92.4689645  17.3666037  41.5249157
   7.2797275  85.0585556  16.4271843   7.2297508  84.8198700  17.3528004
   8.1269079  84.7197151  16.1378682 105.3345674  99.1047668   7.1639681
 106.0655838  99.7032166   7.3179394 104.5537596  99.6483326   7.2693348
 101.7042607  58.5719824  30.5480576 101.7690271  59.3316984  29.9693799
 101.4024180  57.8632069  29.9799395   3.4408370 101.3531971  15.5705833
   2.5410354 101.6513157  15.7036817   3.4074771 100.4106045  15.7338047
  52.8598928  79.1516066  30.7867813  53.3349276  78.4547901  31.2395763
  52.7930260  79.8547935  31.4327598  17.4218237  76.9386005  53.1431580
  17.5854468  76.0719681  53.5151958  16.7338276  77.3102427  53.6952209
  33.0254555 110.4332733  25.0537944  33.9043856 110.2121925  25.3617525
  32.8716564 109.8374748  24.3205833  14.6582246  91.0195446  26.7308235
  15.5628550  90.9923553  27.0424891  14.1463518  90.6463337  27.4484110
  75.5747861   2.9521311  13.7858462  74.9194688   3.6215533  13.9824903
  75.1022500   2.1235598  13.8658929  72.0397657   1.8521536  39.9818540
  72.1999830   2.3800505  39.1996193  71.6298717   2.4576415  40.5995989
  21.8535209  77.2866678  21.6857243  21.9509625  78.2383394  21.6531444
  20.9133458  77.1458530  21.7974114 109.7799879  88.8107014  23.2351136
 110.4908549  88.2748318  22.8833485 109.3167662  89.1318703  22.4614811
 113.6431527  19.3286407  11.6705251 114.5088431  18.9623451  11.8511879
 113.5564640  20.0544548  12.2885132   5.7539308  50.7167530  44.8767376
   5.0633240  51.3158560  44.5932388   5.2890199  50.0103712  45.3251982
  70.7314538  15.6756772  77.7599426  71.2950485  15.8988370  78.5007484
  70.7767689  16.4401521  77.1857019  12.4074137  43.3554220  63.2888842
  12.0061886  42.6878738  62.7324438  12.1687198  44.1857767  62.8768492
 102.3314756  90.8085823   8.7888169 101.8236225  91.4966011   9.2188692
 102.7743846  91.2538242   8.0664402  29.3567657  69.1232729  10.7445717
  28.5698152  68.7836695  11.1707282  29.6703219  68.3964396  10.2064049
 112.1062010  56.1488628  22.9824901 112.6889660  55.7355547  22.3454714
 112.6897588  56.6545725  23.5481310  64.4258039 109.6204329  74.2278119
  64.3408339 108.8689233  73.6410876  63.7202876 109.5079184  74.8648496
 101.7706495  82.8837585  16.2095654 101.4991623  82.9190922  15.2923536
 101.0407894  83.2738400  16.6905797  86.5463119   4.6663894  94.8478349
  86.7722600   4.6572627  95.7779402  86.1975300   5.5445279  94.6946919
  17.1027040  31.1112404  27.2596884  16.4848113  31.0051942  27.9830122
  16.5497768  31.2495089  26.4906740  35.6724048  49.8888254  12.5258696
  35.6755590  49.3368530  13.3078873  35.2560616  50.7029104  12.8089881
  18.8267517  45.2170515  10.9392750  19.6292222  45.7364511  10.8893132
  18.2833576  45.5463314  10.2233648  29.6174955  55.7811117  21.7929792
  29.6711063  56.7086124  22.0234179  29.6493983  55.7697535  20.8363795
  24.1359425  81.4030457  18.8574839  23.6950254  82.0433140  18.2990170
  24.6062136  81.9313717  19.5024240  15.0972283  46.0080338  10.3371751
  15.0640118  46.6593361   9.6365064  15.3280532  45.1914167   9.8943561
  97.0076757  49.0356445  57.8454065  97.1676248  49.7970247  58.4030294
  97.7397805  48.4467554  58.0283451  13.6779904  56.3375044  20.1676106
  13.2514811  57.1748781  20.3496170  13.3399940  56.0778475  19.3105423
  85.3389996   7.2333183  78.8680096  85.8388697   7.0443620  79.6621497
  84.5401614   6.7138042  78.9585336  19.5129633  51.5824509   4.3093809
  19.3718112  50.7750273   4.8037252  18.8981056  51.5260553   3.5779431
 107.6412689  50.0210857  18.2875705 107.4487572  50.9166718  18.0099058
 108.5483169  49.8765326  18.0181265 100.7513493   8.4925377  28.0696559
 101.5463584   7.9976755  27.8714061 100.8419269   9.3024647  27.5676155
  38.1931138  54.7468328  24.4741702  38.5437250  55.6344032  24.3998599
  37.2548318  54.8456478  24.3126392   3.9290705  49.2012787  13.6932898
   3.5637155  50.0799227  13.7968946   3.8994789  49.0392303  12.7503693
  53.4667414 105.6127692  82.7352448  52.7591746 105.8741904  83.3245154
  54.1634195 105.3093625  83.3173259  19.0329826  66.3594055  15.9332275
  19.2818487  67.2678947  15.7630992  19.3380678  66.1904097  16.8246281
 107.6135140 105.6207943  49.2294502 106.9265145 105.9927940  48.6763859
 107.9526436 104.8811913  48.7252569   4.2995879  78.4266520  24.1588521
   5.2463377  78.4365797  24.2995572   4.0392601  79.3459797  24.2162704
  91.5099334   5.7788076  89.6714063  90.5559968   5.7488527  89.5983382
  91.7129659   6.7082061  89.7773726 110.0345128  91.4947701   1.9243482
 109.7389483  92.2959995   2.3566708 109.3086039  91.2506771   1.3501461
   4.3614176  68.4616947  22.6731229   4.1097891  67.5438452  22.5708032
   3.5331714  68.9243555  22.8003407  94.9091798  46.0057592  40.7707739
  94.4605380  45.7487249  41.5763092  95.7601672  45.5704355  40.8212233
  19.0266144  48.2217884  25.8403206  19.9205852  48.1004477  26.1602020
  18.5417855  47.4770641  26.1960721  25.8046675  71.9662714  30.0897598
  24.9091387  72.0570183  30.4153705  25.7274103  71.3809729  29.3363070
 108.2870936  52.7228498  34.6719074 109.2248195  52.9106617  34.6315598
 108.1048715  52.2389364  33.8663912  14.1421342  41.6158485  13.3086872
  14.2967463  41.0933781  14.0956748  14.4957519  42.4795532  13.5213017
   1.8438973  67.4723530  12.2541893   2.2466347  66.6232777  12.4361229
   1.2138525  67.2939253  11.5560222  97.6758736  45.8795977   9.5136750
  96.8502312  46.1287880   9.9289441  98.0850261  46.7116117   9.2758077
 113.8640344  47.5004864  48.2752848 112.9434937  47.7055740  48.4389162
 114.1953986  47.1959400  49.1200829  98.4948664  42.2785473  52.4553394
  98.0458325  41.4335537  52.4311447  97.9845505  42.8033876  53.0720663
  98.2138711  67.4116230  18.1701267  99.1700822  67.4538517  18.1805456
  97.9333513  68.2370615  18.5653412  96.0629784  13.2480087  84.2702790
  96.0915541  14.0125074  83.6949893  95.6826829  12.5555934  83.7297554
  10.7024693  86.1484337  11.5794814   9.9712610  86.7608166  11.6604090
  10.4337680  85.5447388  10.8869600 104.7967928  70.1015472   1.1642833
 104.1486030  70.7943821   1.0375454 105.6398600  70.5538082   1.1337879
  43.6007738  48.6804676  38.1737280  43.6885452  49.5286465  38.6086106
  43.9083147  48.8361979  37.2807550  20.6439090  42.0254803  18.2450080
  20.9295154  41.6826916  17.3981571  20.6233287  41.2596035  18.8188016
 105.3349810  89.5197296  22.0569777 106.0444396  89.7632408  21.4623308
 105.1043981  88.6264992  21.8016362  89.0603691  86.8207169  37.6257944
  88.1617003  86.8406963  37.9547763  89.5014315  86.1710644  38.1732035
  38.1848359  77.6995516  54.1759729  38.0577850  77.1458197  53.4056044
  39.1340041  77.8044462  54.2416334  27.2860432  38.0387640  19.0881908
  27.4203968  37.9838729  20.0343227  27.7430749  37.2747159  18.7366486
  92.8017598  32.6401401  14.0645289  92.2631007  32.4194574  13.3046758
  92.3767596  32.1940732  14.7970796 112.2882929  36.8524218  35.0804329
 112.9161307  36.2175727  34.7354436 111.5643924  36.3191795  35.4088426
  63.6292929   2.2923983  23.5383868  63.1277150   2.0978487  22.7466774
  64.5225662   2.4372710  23.2264423  14.3593574  87.4410152  47.5299549
  13.6688852  86.8416119  47.2467613  14.2545962  88.2093239  46.9687510
 110.9645998  68.0835533   6.6496432 110.8451318  67.4169540   5.9731805
 110.1747065  68.0237627   7.1869743  70.4783797  16.9984998  83.3712597
  69.9240922  17.0631780  84.1489585  71.1656594  17.6496734  83.5121568
 111.4762926  83.4744358  30.6116867 111.2621015  84.3694496  30.3484011
 110.6373232  83.0940056  30.8717513  27.7264052 105.6624127  87.3396601
  27.0121210 106.2862778  87.4693699  27.5735681 104.9833298  87.9967113
   1.2950477  52.7179813  21.0518694   2.0634122  52.6998281  20.4813290
   1.4800054  53.4156513  21.6805863  23.3385706  75.1282501  29.5362306
  24.1480613  75.6120062  29.3721128  22.8078151  75.7224464  30.0667572
 106.5602523 106.3485813  62.3728991 106.3161140 107.0754528  62.9458570
 106.1205118 106.5386868  61.5442133   3.9859903  67.9463387  44.2795420
   4.3142164  67.3449659  43.6110735   3.4203380  68.5517025  43.8001585
  12.8642821  92.3853683  47.3820639  13.7333477  92.7655315  47.2538757
  12.4927032  92.8783989  48.1135559  12.1637702  52.4340057   5.1441050
  11.3431001  52.8436089   5.4178840  12.7803636  53.1619644   5.0658780
  15.7074606  76.4617157  50.5903196  16.3471425  76.9522476  51.1064816
  15.8249605  75.5522776  50.8648109  42.0067310  73.8795280  51.8770409
  41.5409136  73.2420683  52.4182320  42.8261280  74.0382767  52.3456764
  29.8515773 107.5356865  35.6595278  29.1288567 107.0051479  35.9948397
  29.6734929 108.4173489  35.9869432  22.1224165  43.8944101   0.3939283
  22.8011227  43.4907055   0.9348661  21.4141226  43.2507420   0.3784178
   0.4482579  44.9297571  52.7729416   0.3486348  44.0136623  53.0319452
   0.3704876  45.4198885  53.5914516 116.0280954  95.3954601   8.3061320
 116.8610861  95.8097172   8.0808651 115.9731160  94.6366882   7.7251995
 115.4883782  44.6149254   3.5452896 116.0634509  44.1585445   4.1594875
 114.9187172  45.1470423   4.1007829  11.3776779  66.6218567   4.6093741
  11.1185753  67.3543882   4.0503591  11.0177040  65.8492088   4.1738647
  27.9991508  71.8341827  49.9386263  28.0169678  72.7077818  49.5478010
  28.9041543  71.6725636  50.2052307 114.4720715  43.7588501   1.0692700
 114.7885884  44.0659237   1.9188321 113.8807761  43.0364609   1.2808149
 101.7666280   4.7095765  88.8693376 102.6720416   4.7074832  88.5587700
 101.6905176   5.5154552  89.3802203  98.2173794  55.9952450  17.9494905
  98.2372695  56.9408560  17.8023386  98.8648360  55.8464146  18.6386085
  78.7224453  73.6167527  90.5560590  78.8786571  74.3780804  89.9973019
  79.1103380  73.8541842  91.3983168  15.4088545  25.1701856  15.7967520
  14.7649884  25.7950878  15.4633391  16.2450910  25.4787946  15.4478943
  32.0911145  77.8932762  18.7328649  32.0745587  77.8381443  17.7773976
  31.3464284  78.4527636  18.9534307 102.8833991  17.8432763  31.3527417
 102.7345675  17.2171271  30.6442070 103.8212758  17.7815342  31.5338683
  90.0487834  57.1242046  35.4370952  89.6263819  57.1980953  36.2928700
  90.1977306  56.1854792  35.3237724  23.4271836  56.2743950  36.7747498
  23.4881020  56.6671991  37.6455116  23.5817170  57.0020723  36.1723900
  39.7063923  87.7504349  23.2141900  39.5020843  88.0766296  22.3377848
  38.8607025  87.4811649  23.5727048  92.3067343  14.8030557  86.8349822
  93.0689215  14.2853107  86.5756704  91.8420016  14.2480458  87.4612566
  28.0310178  51.4458704   0.4126591  28.1123996  51.3523817  -0.5364817
  27.4278259  50.7490301   0.6711261  36.8389948 100.3976918  80.4344662
  37.0872337  99.7298146  79.7952898  36.9508553 101.2271071  79.9699314
 112.4931275  65.4408312  32.4727988 113.3024251  65.1362419  32.8832793
 111.9605296  64.6511173  32.3783469  67.6012742  23.0157747  93.5547850
  68.0654680  22.5378312  94.2420461  68.2024425  23.7166394  93.3025560
  23.5133648  73.6156511  18.5785782  23.3665371  74.1448736  19.3625391
  23.9161086  72.8109169  18.9048183  84.8408681  49.2876959  30.3201270
  84.0120226  49.7405100  30.1645327  84.5856505  48.4363413  30.6754994
  65.7922286   2.7418841  20.4510164  65.6412977   2.4060858  21.3345861
  66.5133423   3.3633650  20.5509186  67.1505570  22.6365651  65.2976985
  67.5086045  22.5514878  66.1813255  67.7580797  23.2243814  64.8486729
  81.0816103  41.1631584  41.6186714  80.4779034  41.7785835  42.0346308
  81.7405945  40.9837723  42.2893381  36.1688274  12.6899279  33.8666558
  35.9054020  12.9164542  34.7585797  35.5890384  11.9688262  33.6215162
  63.9455938  83.2808208  10.3274667  64.2766857  82.8010178  11.0866761
  63.7828732  84.1652489  10.6553960  35.1529980  67.6552486  39.3078041
  35.3430343  67.7928305  40.2358055  34.6853256  68.4460783  39.0392804
  16.4412379  42.3196697  26.3837767  16.3395810  43.2408190  26.1442351
  17.0669150  41.9742489  25.7470322  13.2972193 105.9699249  43.1588697
  13.7451088 105.5500412  43.8932514  12.5691259 106.4433002  43.5613966
  17.5436151  85.2980614  28.9035225  16.9447553  85.3343964  28.1576824
  17.8085876  86.2073040  29.0424418  92.2928482  78.9886618  20.6162596
  92.8111273  78.3012629  20.1978135  92.8576618  79.3242836  21.3123727
   7.6737106  66.5034485  22.4314380   7.2468030  66.5330935  21.5752244
   8.4285057  65.9289837  22.3029709   4.0016195  69.6054840  26.0906029
   4.8073342  69.1164875  25.9234643   3.3032241  69.0305424  25.7776880
  52.0377874  70.7668972  23.6897087  51.6275406  71.5809679  23.9816332
  52.8059387  71.0502052  23.1938124  24.4613171  94.9741364  44.6402788
  25.3099585  95.3118324  44.9266386  24.5175457  94.9641705  43.6847830
  26.7177010  46.7377520  56.6912508  26.5326858  45.7986975  56.6777134
  27.5135016  46.8326473  56.1678743  39.1247344  57.5098324  36.5787697
  38.6925149  58.0330992  35.9037805  38.5596180  56.7449188  36.6873050
 114.0792950  91.8232250  23.4918237 113.4576550  91.7145634  24.2115378
 113.5533764  92.1707535  22.7714992 109.9702417  56.0853291  39.1767430
 109.8548370  55.4000187  38.5185146 110.6530660  56.6510725  38.8163042
  11.6292405  78.4900427  41.4702654  10.9270322  78.2917023  40.8507538
  11.6591668  77.7290058  42.0500565 110.0784331  67.1178055  13.2832766
 109.9936372  66.2750483  13.7291431 110.0430673  67.7657032  13.9869893
  90.8975016  13.3293380  88.7242766  90.6183576  12.6592530  89.3482156
  90.2985107  14.0607251  88.8743271  14.9974453  62.1982002  23.6581850
  14.0891147  61.8965578  23.6715460  15.4299664  61.6860628  24.3414640
  22.4376225 108.3909893  39.0828276  23.1336904 108.1254005  39.6838117
  21.8435240 108.9143658  39.6207428  18.5906255  63.4084558  46.4516687
  18.0861020  64.1945648  46.6607666  17.9351926  62.7141476  46.3840389
  97.6275509  93.0974865  40.2232027  97.2456294  92.3337555  39.7906876
  98.1141656  93.5459900  39.5316172  27.1551776  48.3399677  29.5259976
  26.4942169  48.3554363  28.8338089  27.6680493  47.5511932  29.3498468
  39.5555639  92.0366764  19.5387042  39.0891719  91.3596344  19.0484750
  39.9825954  91.5638733  20.2530766  93.6877596  42.8707017  67.4448414
  94.0003371  42.2169484  68.0702515  94.4780456  43.3344545  67.1680542
  20.4611921  78.1446791  50.1055813  20.6683350  79.0790415  50.0883627
  20.2892256  77.9544353  51.0277891 115.6122148  86.6290951  50.5381203
 114.7658181  86.5931416  50.0925303 115.7321787  85.7493591  50.8957481
  81.3275629  81.7055035  29.2271948  80.7314735  80.9980106  29.4728804
  81.0438185  82.4519062  29.7550249  34.4846794  12.1905173  63.2568026
  34.7287870  12.7443923  62.5152779  33.7505675  12.6483668  63.6663008
 100.4191917  65.9843111  37.5529122 101.3563507  65.8266830  37.4383783
 100.0904816  66.1291218  36.6656613  50.9462786  92.5388145   4.4563484
  51.7714643  92.9776669   4.2496943  50.2806234  93.2185936   4.3512979
  29.1623568 104.1873122  94.0350157  28.6443572 104.7986317  94.5586531
  28.6948340 103.3550978  94.1062690  20.4008484  49.4030333  28.7265062
  20.2106810  48.4729290  28.8488746  21.3566208  49.4515562  28.7071276
   7.0192522  69.1866398  23.0752897   7.3771030  68.3018589  23.0022216
   6.1516029  69.1278648  22.6753378  32.4972796  70.1892853  24.9487066
  32.6605344  70.0879717  24.0109873  31.8597651  70.9010458  25.0053024
  20.8922005  51.0121298  16.2663519  21.0383177  51.9502735  16.3878942
  20.9803939  50.6403160  17.1439683 112.6965346  82.3778439  35.2428913
 113.4152898  82.4482822  34.6146703 112.2317594  81.5812206  34.9867535
  17.5207269  68.8099241  14.3176305  17.5602806  69.2638779  13.4758496
  18.4014332  68.4556055  14.4402897  26.7870092  78.3792830   7.3005360
  27.4172211  78.8548279   7.8417599  25.9394526  78.5555792   7.7089459
 115.0913669  58.4523821  53.4067822 115.7722065  58.4840107  52.7347040
 114.3619427  58.9462137  53.0322075 114.8571081  72.0354557  12.7743995
 115.2452306  71.1782980  12.5986946 115.1153568  72.5732899  12.0258868
  25.7485819 100.6172752  41.1241007  25.8697128 101.0524273  40.2801800
  26.4070725 101.0136223  41.6946507  24.4732523  71.2456512  25.7263851
  24.3437552  72.0908785  25.2962065  23.5951066  70.8690882  25.7837939
  36.7878723  56.3870859  31.9286251  36.1597991  56.6233444  32.6112223
  37.6442146  56.5079212  32.3388791  30.1532804 103.6641789  88.1810053
  29.6495109 103.8491202  87.3883869  30.5295878 102.7973128  88.0288114
 111.6900801  55.0946283  13.9754832 111.8367511  55.8991432  14.4729578
 112.4011915  55.0760603  13.3350086 112.6140972  74.0615034  28.4640956
 113.1342279  73.8021421  27.7035499 112.4574097  73.2442141  28.9370894
   9.1341698  78.4854078  20.7342863   8.1959796  78.6621141  20.6649590
   9.3285066  77.9250336  19.9829924  96.0030204  67.8049994  54.7529459
  96.2071830  67.0290804  54.2309332  95.3876572  68.3015013  54.2134619
  78.2948488   3.6156405  24.9250126  77.8155369   2.8258360  24.6746302
  78.3666057   4.1193903  24.1142583  74.6406311   0.0126589  31.6155243
  74.7073978   0.9207285  31.3202620  74.7080678  -0.5055295  30.8135486
  21.0321069  74.0970898  32.5581884  20.3212833  73.5785341  32.9350996
  21.0209966  73.8773298  31.6266251  58.8797665  85.2926350  19.8383713
  58.5558844  84.5789146  20.3878522  59.7790384  85.4336929  20.1344180
  86.1321049  79.5120764  32.2195745  86.3424354  80.4453182  32.2520208
  85.9590250  79.3375874  31.2944627  91.5246546  19.3400754  89.1443069
  92.2746789  19.9346341  89.1302093  91.8900430  18.4879102  88.9065375
  16.1445761  64.1856241  14.1433418  16.4787054  64.8698330  14.7233856
  16.1125803  63.4015274  14.6914303 114.8020076  95.2834320  25.8043098
 115.6243084  94.9434471  25.4515171 114.2503729  95.4223728  25.0344872
  58.0359596  14.3376196   8.6949301  57.8682071  13.5969771   8.1122273
  58.9889521  14.3638743   8.7806398 104.6759647  73.8186121  13.6185932
 105.2940672  73.6576891  12.9056513 104.1942793  72.9963017  13.7081623
  12.1976471  97.3062992  20.0283670  13.0939281  97.0044231  19.8807943
  11.7623866  96.5664291  20.4518819  40.2312374 107.2664833  59.8540783
  39.9248171 107.5073814  60.7283211  39.7893310 106.4387035  59.6650505
   9.6734518  90.0708771  48.3010530   9.6179277  89.1462517  48.0597830
  10.5369747  90.1618576  48.7038994   0.4347111  77.5864077  19.9265110
   0.4930665  77.9558897  19.0454268   1.3111413  77.2433472  20.1008987
 100.7505232  36.4184856  27.7990556 100.9746223  36.6784763  26.9055152
  99.8468166  36.1087704  27.7388668  80.3644710  66.1373186  16.3121855
  79.4083338  66.0922575  16.3130009  80.6260377  65.6607199  15.5243599
  25.0168657  48.9883661  51.4432383  24.5785189  48.2481861  51.8630266
  25.9074903  48.9692831  51.7934608  13.9291787 101.6930866  31.3282585
  13.4843957 100.8536434  31.2110305  13.5187221 102.2732258  30.6870198
 105.8442896  85.5105591  29.8371339 106.3271051  85.9242630  30.5526567
 105.6123691  86.2340641  29.2549038  16.7788291  50.9871292  28.4956837
  17.6060045  50.7076120  28.8879609  16.1176741  50.4331255  28.9106369
 102.9152566  71.6719103  14.2188132 102.2241800  71.7381096  13.5598266
 103.3414441  70.8346224  14.0356624  36.4011884  78.9502859  25.2566981
  36.0742402  78.1588411  24.8289728  35.6128502  79.4069242  25.5503583
  35.6429711   6.5312804  16.5184808  36.1509779   5.7330073  16.3738513
  35.4048371   6.8261851  15.6395268   6.4831913  68.3086586  29.7997904
   5.6073183  68.2513809  29.4179559   6.9205540  68.9937258  29.2941976
   5.2911651  82.1206665  21.7925692   5.8318782  82.4153996  22.5253677
   4.5323434  82.7039909  21.8050146  38.7131596  74.9614763   4.4480315
  39.5903969  74.9482822   4.0652615  38.1544256  75.3120518   3.7543866
 101.2837487  62.8999662  33.5681343 101.3287156  62.0835114  34.0657377
 100.6102305  62.7406693  32.9068995 100.0443273  51.4860630  38.7149334
 100.2121990  50.5987167  39.0322256 100.8607941  51.9577646  38.8795805
 103.7326735 106.2120056  37.4282908 102.9428118 105.7003593  37.6031137
 103.4733134 107.1179295  37.5964355   5.6630653  87.4782753  47.0280266
   6.2099957  88.0635548  47.5519991   4.7661725  87.7491093  47.2241545
  23.9725637  71.6036129  11.6072273  23.5626531  72.1672201  12.2633922
  24.8983097  71.5874290  11.8500507 115.7933060  55.8013248  38.5596037
 116.5198703  55.6697035  37.9504967 116.1906970  55.7231712  39.4269013
 114.0410107  77.0219231  41.2078333 114.5170369  76.6609716  41.9557238
 113.1872218  77.2682858  41.5636158  71.9703298   1.5928449  80.8894594
  71.7330699   0.6797160  81.0511191  71.6765034   2.0588435  81.6722389
  42.5436354  88.1757832   4.4229439  43.3885908  87.9772377   4.8265028
  42.2989941  89.0270519   4.7858784  48.7449329 106.4519406  92.5936441
  48.2671665 106.6254616  91.7825575  49.0735035 105.5587054  92.4916648
 101.7128878  62.9006290  13.6292911 101.5423852  62.8619814  14.5703888
 100.9200602  62.5454044  13.2274532  67.3594510  22.5087966  76.3604041
  68.0566030  23.1555118  76.2509807  66.9087505  22.7757062  77.1615668
  85.2093535  62.8064537  20.0075006  85.6318765  62.1732950  19.4271410
  84.3356925  62.4461412  20.1595664 104.2416590  67.7497959  19.3144393
 104.8376184  68.4841537  19.4620359 104.8076742  67.0385551  19.0144479
  48.0949222  55.5456247  87.6653035  48.8491666  55.9750165  87.2616108
  48.2309329  55.6573571  88.6061801  68.5389858  62.6845789  25.3035855
  67.9351478  63.3012295  24.8896384  69.0531593  63.2212162  25.9068084
  78.5770496  48.2395829  90.1485159  77.8247757  48.3392133  89.5650877
  78.5425927  47.3252763  90.4297574  11.7959714  82.2023106  24.9979830
  12.1087015  81.3757610  25.3657389  12.5338984  82.5301933  24.4839859
  27.5503826  33.8028741   1.0087665  27.2242761  34.6234870   0.6393294
  28.3909154  34.0351987   1.4034343  15.3610504 106.3593864   6.3017172
  15.5327857 106.4246178   7.2411233  16.1856616 106.0479546   5.9285432
 116.0132824 100.5628109  21.0613465 115.4893138 101.3595200  21.1446238
 115.9400857 100.1376057  21.9157910  33.9167523  90.7170677   1.2619631
  33.0920649  90.8573914   0.7967400  34.3759465  90.0576210   0.7418588
  23.6596274  96.7868137   6.8150795  24.5928550  96.9995022   6.8059289
  23.2996726  97.3188400   7.5247383 114.7846049  49.9879742  24.0159011
 115.0709965  50.4624939  24.7963142 114.5287454  49.1247559  24.3408918
   4.5476636 103.5609818  49.3690157   5.2006841 104.1651535  49.7222424
   3.8946304 103.4808731  50.0642586 108.4792804  54.0792465  62.4741793
 109.1053914  53.4796953  62.8800821 107.8702521  53.5084391  62.0056725
   9.1734231  79.5270443  72.7571154   9.3469161  80.0401783  71.9679260
   9.7360426  78.7574625  72.6709080  13.9031810   3.9689768  18.8833165
  14.6450657   3.4655035  19.2184985  14.1920537   4.8804034  18.9289975
  18.0796480  63.1123495  40.6328297  17.1843421  63.4189272  40.4890585
  18.5100913  63.8354778  41.0889435 115.0296671 103.7461948  45.1147556
 115.0958597 102.7982807  44.9993515 115.9341128 104.0369797  45.2315855
  13.9793420  61.4977741  26.7054820  14.7881246  61.2194109  26.2758160
  13.8063371  60.8162403  27.3549485   8.6196089  61.4874792  15.0296378
   8.6315244  62.3077869  15.5227792   7.7540362  61.1169386  15.2020204
  38.1726122  59.4626236  34.6195579  37.3321605  59.2385817  35.0191498
  38.0405021  60.3397226  34.2597246  31.7317414 103.3396339  34.9654746
  31.8953347 103.4447479  35.9027147  30.7961464 103.1463909  34.9058414
   4.7339782  74.4701385  32.8216338   4.2789766  75.0473309  33.4348655
   5.6099445  74.8477840  32.7422690  89.3669283  20.1272001  70.7922907
  89.2160963  19.1858710  70.7063909  89.3287420  20.4587354  69.8951526
   5.4108733  67.8427076  74.8985529   4.7322059  68.1574821  75.4956818
   4.9809217  67.1570969  74.3873644  45.8705950  94.0657806  20.8114076
  46.1341619  94.6863079  20.1319122  45.7059336  94.6096992  21.5816498
  17.9654646  86.0711479  22.9406333  18.6453593  85.4293156  23.1456447
  18.0313885  86.1957741  21.9938755  56.0445976  56.0994720  26.4327717
  56.7922783  56.6959190  26.3946104  55.3076220  56.6183138  26.1104298
  12.7960801  89.8713589  21.9763827  12.9102743  89.9264050  22.9251504
  11.8962121  89.5662403  21.8607545  99.3635565 100.8673096  16.0708523
  99.6078950 101.3238621  16.8758953 100.0595837 100.2233696  15.9400034
 112.2065371  80.5490303  43.6262703 113.0206337  81.0355854  43.4968662
 111.8836098  80.8445549  44.4775152 107.9493981  63.7752056   6.7346567
 107.0636403  63.8227606   6.3749301 108.0871891  62.8442764   6.9096285
 104.5081752  76.8561888  68.4871960 105.3524512  77.0942974  68.1041431
 103.9146155  76.7940331  67.7388287  15.7377064  89.9551964  36.4232612
  15.4519880  89.2777538  35.8103490  15.2121675  90.7219219  36.1948419
  82.7574458   9.8986472  87.2740831  82.5720935  10.7875909  87.5768252
  82.1603300   9.3449153  87.7771421  23.8610101  47.5969124  62.9193783
  23.0314207  47.2184801  63.2105875  23.9101577  48.4407043  63.3686352
   5.6554461  98.7869263  17.9643440   5.3225327  97.8975296  17.8444195
   5.0109959  99.2093563  18.5322082  19.6437585  69.5709753  41.3214445
  20.3729630  69.1474152  40.8685732  20.0593543  70.0983381  42.0036459
   1.0271218  65.0954962  44.2629576   1.1217146  65.6610727  43.4965324
   1.7824018  65.3072262  44.8115492  45.2234030  94.8642159  14.9133897
  45.5077410  94.3879986  14.1332603  45.0435114  94.1807270  15.5589223
  90.6575512  25.0199975  93.0043531  89.7137927  25.0692357  92.8522767
  90.7422220  24.5515098  93.8347645 108.2959240  46.5287066  23.3499813
 108.5191506  46.4965963  22.4197268 107.3657619  46.7540789  23.3654451
  11.5235949  62.9444742  33.5325527  10.8131731  62.3856735  33.2174754
  11.0823870  63.6437225  34.0148640  51.4982843  54.1357374  61.7714024
  52.4527073  54.0879965  61.8264484  51.2632370  53.4808779  61.1140299
  49.5818197  38.5129155  90.5152746  49.0634453  38.0960836  91.2035872
  49.3959390  37.9977502  89.7302367  28.3078814  67.6758480  17.0155716
  28.1367660  67.4210262  16.1089194  27.6088667  67.2573042  17.5179982
   0.0255897  78.4930515  34.8262286  -0.0123985  78.6088324  35.7756400
   0.9608401  78.4909534  34.6224284 110.6079554  67.2416592   3.7621844
 109.9878531  66.7007780   4.2512158 111.4385324  66.7700291   3.8249323
  36.0507345 109.9800205  11.6282856  36.7656302 109.3890381  11.8646896
  36.1274981 110.0813103  10.6795597   2.3915879  69.8533773   4.7303036
   3.2437110  69.8839808   4.2953533   2.4212927  70.5684710   5.3659070
  10.0534666  84.5835495  14.2066216  10.6753314  84.1474819  14.7891653
  10.5962825  85.1478386  13.6560202 114.1972052  84.1991796  78.0599363
 114.3730890  83.6057462  77.3297759 113.3821928  84.6398153  77.8194745
  60.2723426   3.7607802  42.9185581  60.4906100   3.2501257  42.1389341
  60.9843630   4.3958128  42.9960203  49.9203009   6.0643805  41.1511183
  49.7468275   6.9977702  41.2732744  50.2090925   5.7598341  42.0113993
   7.1887869  71.0559034   6.3963288   7.5522161  70.5480051   7.1217173
   7.9273152  71.5702915   6.0704267  24.0119433  74.5445156  37.1083164
  24.6935201  74.8900890  36.5318918  23.2207704  74.5428514  36.5695477
  39.5226145  80.7033062  15.1677477  39.5609927  81.6340637  15.3878689
  40.3980923  80.4985619  14.8393440  69.0391654  14.0545596  16.7195594
  68.6536759  13.7017859  17.5215471  68.5208124  13.6672724  16.0141838
  51.0863018  82.2069359  28.7476349  51.6353035  81.4500809  28.5426974
  50.8853006  82.5946808  27.8958821  76.5539879   3.1498850  11.0203409
  77.5098318   3.1082190  11.0495889  76.2907809   3.2558383  11.9345236
   8.5661757 100.2235508  67.5350237   9.4942451 100.3567410  67.7278423
   8.5519403  99.9111176  66.6303635  20.0230145 105.2882957  11.8095708
  20.8775592 104.8580074  11.7807126  20.2200007 106.2192631  11.7059934
  31.7244744  88.1497288   3.1027138  31.1360383  88.1003666   3.8560644
  32.5457692  88.4854317   3.4618947   6.6806632   6.8623151  87.6102324
   6.6670972   6.2525834  88.3479811   7.5389272   6.7314901  87.2071274
  27.7548838 107.3279762   6.0746449  27.9441047 106.8206310   6.8639684
  28.4361172 108.0000401   6.0528600  25.1584816  77.6265097  29.6648192
  24.3177438  77.9534578  29.3446684  25.7210350  77.6136446  28.8904786
  85.0525957  81.6647615  83.8818033  85.4303765  82.3638047  84.4155212
  85.1383572  81.9779386  82.9813595   7.8366584  97.6898861  27.4440646
   7.8197867  98.4915352  27.9668498   6.9430006  97.3509598  27.4963951
  68.7847942   8.1205214   2.6152679  69.1252822   8.8992537   2.1749525
  67.9033011   8.0100382   2.2589043   4.3206176  97.3064041  43.5516024
   4.3468454  96.3728237  43.3418989   3.4010354  97.4811840  43.7517309
  15.6185436  66.8880987  60.1427031  15.0077760  66.4703608  60.7499027
  15.1048267  67.0331144  59.3481636  38.7408257  89.7537804  18.0570674
  39.2502642  89.6901608  17.2491956  37.8477502  89.5298672  17.7953172
  22.9685616  37.8117228  37.4027586  22.7281547  36.9212985  37.1466708
  22.2878265  38.0748653  38.0221033  37.6393187   0.3690184   4.8402420
  37.2819823   0.3195513   3.9536217  38.4280357  -0.1725637   4.8111594
  27.6676112  37.6634111  89.7056820  27.2778541  37.7730836  88.8383325
  27.1191579  38.1939782  90.2835466   9.5121652  83.9750767   2.4069606
  10.2418101  84.4317627   1.9882834   8.8250703  83.9600277   1.7406982
  96.3451051  29.0792741  94.9730250  97.1743035  28.6608495  94.7415271
  95.7844352  28.9381589  94.2101564  33.7908983  72.2385788  87.6367664
  34.2095923  73.0763292  87.8345108  34.4874501  71.5911102  87.7455425
 101.7633646  72.6322412  44.6084452 102.1314150  73.2143164  45.2732468
 101.9644886  73.0611610  43.7766933  12.8141117  87.1363544  37.6832414
  13.7310290  87.3786545  37.5536799  12.3212600  87.9119205  37.4152350
 116.6945361  86.8081188  57.3440838 117.1936476  86.0530376  57.0326710
 116.2378555  87.1303558  56.5670109  36.9930351  23.7113036  10.4794347
  36.0759092  23.4789980  10.6248474  37.4293262  22.8747405  10.3180516
   6.7262948 102.5753975  30.3295445   5.8589536 102.9764938  30.2741051
   7.0952010 102.6803207  29.4525433 100.3050380  58.8898897  33.0393839
 100.1613455  58.0022669  33.3675838 100.5792766  58.7677145  32.1304846
   9.0269107  72.4827003  12.2134280   9.3867087  71.5985727  12.1420169
   8.7813103  72.5676489  13.1346750  47.0989180 109.1954899  41.5289640
  47.3937941 109.2382717  40.6193209  46.5068388 109.9415588  41.6241550
   6.2433845 101.1542130  60.9468365   6.5031260 102.0558739  60.7576895
   5.7745546 101.2096786  61.7795134  63.0695409   5.9258688   6.3746864
  63.2010120   5.1579226   6.9307560  62.1738595   6.2067259   6.5620416
  63.6966032   0.5903471  61.5960550  64.6386618   0.5787219  61.7652369
  63.3036417   0.7994689  62.4434519  78.8856329   8.6784257  90.3548332
  79.0126382   8.1350030  89.5771487  79.4182592   8.2583369  91.0301612
  17.1533632  82.8924465  30.3068566  16.9330585  83.3338642  31.1271310
  17.3018992  83.6041641  29.6842599  11.3849717  64.0881719  86.6924478
  11.7642480  63.2581510  86.9813366  11.4367610  64.0555753  85.7372059
  47.2344303  81.1617851  52.9827499  47.3768902  81.0753536  52.0401621
  47.6087093  80.3636456  53.3557320  30.6042886  68.8421822  14.1944635
  29.9146366  69.3588209  14.6112311  31.1115623  69.4802999  13.6927557
  86.9439774  87.0680703  73.1863113  86.1589872  86.5749253  73.4247060
  87.5380593  86.4115133  72.8226753  77.4325673  49.5067586  91.9810496
  77.7964715  48.8645353  91.3716550  78.0927793  50.1985921  92.0224075
  59.3850756  81.8971348  13.8483846  60.3111601  81.9725990  14.0784001
  59.3853998  81.4776134  12.9880118  45.5610561  96.0448551   0.3198950
  45.6738138  95.7688046   1.2294646  45.2722740  95.2544308  -0.1362447
  38.8379860  72.4893236  37.8660178  39.5764565  71.8836164  37.9293776
  38.8316941  72.9480314  38.7061238  40.7831287  75.9642696  18.8078237
  41.0362005  76.2035656  17.9162407  41.5848351  76.0680866  19.3203890
  55.4702234  81.1862850  19.9550033  54.7502565  80.8992100  19.3933392
  56.1604214  80.5393028  19.8091388  43.6647034  89.4883823  42.2404814
  44.1287661  89.6526527  43.0613947  43.7723732  90.2963543  41.7386580
 108.2299411  76.5943050  47.6590872 107.7949660  76.8262053  48.4796047
 107.9310274  75.7042646  47.4727678  55.8242750  90.3684711  40.4969788
  55.3121376  89.9946117  41.2140417  55.2029610  90.9191990  40.0206470
  29.1215873  95.2863407  36.2029672  29.1807938  95.2432728  37.1573639
  28.3567953  95.8369160  36.0350418  77.4324578   0.4415263  21.5920281
  76.6618127   0.1670874  21.0950160  77.8123588  -0.3754102  21.9153357
  62.3523283 104.1925907  11.4720082  62.2283411 103.6910439  10.6662095
  62.5635386 105.0771713  11.1734438  27.4177217  89.7621632  33.4891152
  27.0516896  90.5355358  33.0599999  27.1166515  89.8261261  34.3954778
  15.0406957 107.3366833  24.3925834  15.4860902 108.0652523  24.8250723
  14.6739674 106.8202114  25.1102161  11.4073026  99.5293713  18.3002174
  11.5269685  98.7010765  18.7647998  12.0815194  99.5224857  17.6207948
  97.1934854  66.8396272  85.9079839  97.6612889  66.6039266  86.7091330
  97.8849589  67.0302476  85.2741368  97.4323570  86.9476594  87.4738272
  98.2255327  86.8775548  88.0050405  97.2704684  87.8887834  87.4081816
  17.5525987 101.7999077  29.1002464  18.2523489 101.2163734  28.8068676
  17.6957428 101.8908119  30.0423074  44.4891077   6.0569418  61.7233181
  45.1207316   6.3331641  62.3873854  44.3757296   5.1188410  61.8761301
  87.0242237  51.4410104  87.7924343  86.7622780  51.1568822  88.6681540
  86.6808771  50.7647123  87.2085084  38.4271586   6.3205183  21.0414696
  37.8142926   6.5147913  20.3323245  37.8696801   6.1639536  21.8036604
  21.9909811  62.8716421  40.1362658  21.7853189  63.0043650  41.0616398
  21.3980126  62.1741438  39.8567677   2.4339603  91.3471127  11.3761723
   1.9764096  92.1312714  11.6794467   2.9157212  91.0389805  12.1437621
  22.2981834  92.3246193   8.6310476  21.3414454  92.3202133   8.6604506
  22.5375628  93.2423019   8.7605733  18.1575727  85.9608936  39.1463780
  18.1273258  85.0069237  39.0738606  18.1051874  86.1313915  40.0868130
  41.2420368 103.7057304  47.6249361  40.6500387 103.8133240  46.8804884
  40.6622410 103.6243820  48.3822012  16.9997626  17.9967155  92.7662440
  16.8619710  18.3133783  93.6589752  16.8893319  18.7728919  92.2170718
  24.0636283   0.4571475  22.2212076  23.3199495  -0.0738107  21.9361544
  24.7103161   0.3582896  21.5224528 111.3683402  46.7003679  23.9662957
 111.0031253  45.8769512  23.6425138 110.6032371  47.2418547  24.1603088
   5.9731901  81.5997124  13.1705189   6.2154317  81.8729401  14.0553331
   6.3582712  80.7286072  13.0749786   7.4167550 100.9888268  57.8488445
   7.0115948 101.8241596  57.6158381   7.4126834 100.9793758  58.8059902
 103.6785107  79.0763617  37.7303362 103.3495658  79.9508286  37.5221753
 104.2193144  78.8383579  36.9772625 116.4033853  28.7061395  83.5006149
 117.3602783  28.6826982  83.4944160 116.1567461  28.6625947  82.5767620
   7.8549635  91.0355473  62.6061773   7.4538624  91.1643791  61.7466688
   8.7967885  91.0611343  62.4372292  17.2795296 109.7700882   8.0927086
  17.7558780 109.1215229   8.6110574  16.4622331 109.9063396   8.5719728
   7.0573002  92.2642803  39.7216201   7.6462346  92.8723431  40.1684380
   6.5499276  91.8610382  40.4260349 114.1556161  97.6666546  20.1650858
 114.5228072  97.0013714  19.5830190 114.7737656  97.7143860  20.8943629
  42.2415495  84.4123268   9.6099442  42.9035139  85.0419235   9.8956877
  42.7151155  83.5837650   9.5361412  60.9939337  82.6610565  44.0230894
  61.7415142  82.6313782  43.4260321  61.1952639  83.3788490  44.6234894
  27.9038668  66.7306328   6.9143343  27.6194096  65.9649038   7.4133098
  27.1073055  67.0493937   6.4899343  22.6448512  38.8048387  50.7974195
  23.5337234  38.4955525  50.9720039  22.5282955  39.5463896  51.3913488
  91.3787519  47.4843587  88.9266826  91.1861705  48.4156026  89.0358778
  90.5254792  47.0547094  88.9863844  30.6556767   8.6357440  14.4239938
  30.6122846   8.3959521  13.4983313  31.3640630   9.2776907  14.4721651
  31.4180279 109.0995884  27.0397568  31.7414212 109.8735619  27.5008440
  30.5271864 109.3317699  26.7776036  40.7031727  69.4022894  27.5507164
  40.5104113  69.2986822  28.4825659  41.0138178  70.3040028  27.4692035
  65.7780570   3.0909575  12.5797451  66.3154286   3.6920584  13.0956388
  65.8894700   3.3856905  11.6758907  45.5236864  86.1626148  46.5427303
  44.9406958  86.8456936  46.8740368  45.0156927  85.7246494  45.8598232
  17.6900232  91.4234734  37.4879098  17.0739448  90.7786751  37.1401739
  17.1854615  91.9092655  38.1403303  21.2342381 105.5477333  31.8328500
  20.5213809 105.0972176  32.2857308  21.7492890 104.8443508  31.4376259
  26.7650652  88.4615707  22.0325685  27.4166036  89.0387630  21.6343451
  26.3322759  88.0404854  21.2898636  67.8827428  31.8422116  86.2311055
  67.3175811  32.4785318  85.7930173  67.3143386  31.0895910  86.3945271
  60.2124691  89.7912216  24.2745042  60.4337692  89.6732235  25.1982641
  60.8901644  89.3076134  23.8021946  89.1531533  41.0065211  51.3120937
  88.6547011  41.5743388  51.8997669  88.5493535  40.2957285  51.0966206
 105.3881674 109.1329098  16.2162411 106.1684411 109.5617008  15.8647633
 104.7096699 109.8073673  16.1851048  50.3142977 106.9182110  40.3344870
  50.2568054 107.2674847  39.4451404  49.4319820 106.5990639  40.5239677
  39.9466991  87.2728634   4.3317038  40.8494520  87.5570202   4.1884404
  39.9848938  86.7477226   5.1310754  91.1977577  27.6271619  92.0804529
  91.0308372  26.7929258  92.5191043  92.0438921  27.5061216  91.6495954
   6.6588479  27.8238095  93.7470700   6.4554816  28.2881154  94.5590376
   7.5901061  27.9911794  93.6022464  73.8146544  98.8477993  34.8417830
  74.0429497  98.2281876  35.5347395  74.6502066  99.0609741  34.4262767
  48.8889933 105.6081295  22.3629761  49.4114351 104.8484516  22.1057272
  48.3314562 105.2865696  23.0714846  40.4116759  12.7472533  23.1636119
  40.3687538  13.4572924  23.8041115  40.5102383  13.1904639  22.3209476
  13.5709822  85.5117607  34.7457409  13.3170080  85.2794933  33.8525558
  12.7688932  85.8521938  35.1419616  63.2001125  72.1224775  94.8559235
  63.8918542  72.2059240  95.5122478  63.5694348  72.5191201  94.0669312
   8.5815888  40.9691514  85.5831404   7.8468114  40.4191674  85.3113766
   8.3808356  41.8326177  85.2220912   7.9585439  25.6591977  85.5659200
   7.2382098  25.6466855  86.1961515   7.5458795  25.8954324  84.7351761
  17.3556721  77.2297812   1.1787909  17.9983175  76.7781353   0.6317515
  17.7069318  77.1618557   2.0666163  33.3124065  90.5565929   3.9360762
  33.5349560  90.5288696   3.0055198  34.1580629  90.5651379   4.3844354
  27.1795011  72.7906609  53.4564209  26.7894435  73.4274292  52.8575754
  26.5671682  72.7461720  54.1907930  24.2213613  41.8786039  94.5004251
  23.3973151  42.1461667  94.0934916  24.0016442  41.7479982  95.4228665
  35.6582141  99.0676975  20.8305717  35.1374531  98.4745979  20.2890253
  35.7849503  98.5929298  21.6520119  25.4533482  75.8376837  24.0270567
  25.2251649  76.4082432  23.2931447  26.3655567  75.5954838  23.8675284
  55.4342318 107.7034569  23.0763912  55.6077576 108.4847927  23.6013985
  55.9210539 107.8472042  22.2648668  43.5150430   5.4612196  14.3375993
  43.9815915   4.7948302  13.8331330  43.6066112   5.1801623  15.2480149
  37.6844978  97.1599483  25.9071302  36.7800260  96.9812870  26.1645055
  38.2038021  96.5251064  26.4006138  81.2927169   9.4103087  24.7045779
  82.2175235   9.1888941  24.8138475  81.2972230  10.3243102  24.4202995
  34.5691919  59.6208715  22.0020199  33.7376356  59.2692566  22.3200011
  34.4899559  60.5674028  22.1204782  64.8389578  61.9666529  14.9147117
  64.6606970  61.5408373  15.7532430  64.2462969  61.5376854  14.2974794
   5.9893870  95.6765175  49.8275375   6.8894839  95.9983349  49.8774195
   5.4512799  96.4681149  49.8342609  63.7135935 108.0944252  54.8059320
  62.7690840 108.1431675  54.6584177  63.8022280 107.6340866  55.6404781
  67.8614330 105.5757809  44.1599512  67.7327442 105.5688381  43.2114649
  68.7491751 105.9134769  44.2787409   2.1057455  75.8953428  47.7537394
   1.9502118  75.2914000  47.0275927   1.2858863  76.3816786  47.8405762
  87.9057586   3.5269584  92.6441501  88.4858679   4.1955127  92.2798206
  87.5338429   3.9333333  93.4269451   8.4994668  84.5704937  38.7522340
   9.4084162  84.7497177  38.5115647   8.3141488  83.7140083  38.3671045
 100.8077567  81.7751789  22.9668784 101.3164633  82.5680828  23.1364799
 100.4121261  81.5592384  23.8113189  45.6837559  83.1803703  15.6094837
  44.7305632  83.1569767  15.6937885  45.8996677  82.3913860  15.1123703
  58.5718441 102.9302216  52.6958752  57.9111624 103.2306004  52.0717716
  59.0303087 102.2252846  52.2385931   8.3024031 105.9840488  32.5896549
   8.2358515 105.0409985  32.7395201   8.8061500 106.3101196  33.3354092
  32.5091481  59.1758394  26.7667913  32.3683286  58.2916498  27.1053362
  33.2753730  59.0955925  26.1987329  43.4575033  96.0900402  20.3196263
  43.4398556  97.0449257  20.2554202  44.1065502  95.8183098  19.6706784
  97.2183978  71.4173974  68.3348651  98.1441342  71.2869252  68.5403462
  96.7539894  70.8533467  68.9532514   8.8111901 110.1502895   6.8983924
   8.6173683 110.0395012   5.9675914   9.6023536 109.6309280   7.0417714
 113.0392157  17.5151338  95.0437969 112.7371561  16.9342317  95.7420402
 112.4376904  17.3499097  94.3177802  32.6034069  56.8640518  35.4882622
  33.0766368  57.2910500  36.2023759  31.8515944  57.4335480  35.3249073
 116.6613743  82.0874977  22.6292682 115.7800407  82.4527550  22.5513601
 116.7791414  81.9442844  23.5683370 114.8914927  17.1476878  29.7981215
 114.7544545  16.3150538  30.2499747 114.0119523  17.4343623  29.5522356
  93.7910432  13.7058962  23.1554985  93.4781045  12.8304709  22.9276085
  94.7307319  13.6787833  22.9752684  88.6796111   9.6572817  41.0133791
  88.5736245  10.5114020  40.5944872  89.0247792   9.0925539  40.3218746
 102.6237928  63.7758149  82.6262660 102.7096307  64.5496549  83.1830724
 102.7024113  64.1129483  81.7338593  73.8269633   1.9038905  20.9649682
  73.0726594   1.9297160  21.5536880  74.1721672   2.7965678  20.9786797
 111.3864821  20.4091681  15.7350981 111.2220115  20.0928343  16.6234183
 110.6126613  20.1425112  15.2387857  90.7919854   0.5383433   5.0875664
  89.9192113   0.1851500   5.2600449  91.3900823  -0.1037752   5.4699123
  68.7864989  10.1006926  46.5514231  69.4241280  10.7013930  46.1656475
  69.1210860   9.9292029  47.4316931  30.2530980  94.7980213  10.3116369
  29.6284676  95.2993774   9.7875100  30.9503531  95.4216194  10.5146039
  66.1598319  29.1936530  49.5974636  66.4361900  29.4756068  50.4694510
  66.2148589  29.9847067  49.0613270  80.3403109  13.6629714  16.7037308
  80.4288262  13.0410040  15.9815371  81.2376279  13.9337576  16.8979561
  26.7666388 109.7106552  78.8066578  27.5356388 109.1407681  78.7962484
  26.7265153 110.0749588  77.9224014  69.9812645  -0.1360475  10.5273545
  70.6922859   0.5044116  10.5052507  69.6610469  -0.1073991  11.4289486
  35.3273034 101.8607903  12.6130855  36.0452986 102.4134731  12.9217291
  35.6672645 101.4475346  11.8194389  28.0359197 105.2746582  20.4256177
  28.3275223 104.5125675  19.9252033  28.6172438 105.9817314  20.1457024
  25.0135279  81.5831757  43.1312752  25.0183415  82.2593689  43.8087463
  24.8192525  80.7731247  43.6027670  28.3443499 109.4942665  31.3804436
  27.7746534 109.9760818  31.9800520  27.7667713 108.8554573  30.9626484
   7.0641714  52.3677349  23.5362864   6.6595596  51.6087008  23.1162977
   7.4270701  52.8772306  22.8117514  58.5510737   7.6100863  31.1015582
  57.8074378   8.1193579  31.4238620  59.2823333   7.8744067  31.6597939
  42.9162216 103.0135250  43.0298090  43.6942911 102.7321339  42.5484991
  42.5639915 102.2077560  43.4078217 113.0564224  68.0443658  90.9543328
 113.8270795  68.1496991  90.3964575 112.7151858  67.1785440  90.7304166
  47.9206562 103.0240059  70.5841255  47.4635458 102.6898670  69.8123550
  47.3582363 103.7266159  70.9100962 104.8828160  78.0048551  87.2612186
 105.8283293  78.0058850  87.4103381 104.7447407  78.6777868  86.5946390
 101.7240590  30.7481040  23.7567401 102.6342172  30.5236376  23.5631776
 101.2093753  30.1301421  23.2376456  21.7410684  99.0783405  47.5568199
  22.3858953  98.4360409  47.2603607  22.2352600  99.8940945  47.6376820
   8.8966430  16.8134440   1.6752738   9.8256744  16.8859995   1.8940800
   8.4811176  16.5243281   2.4876615  59.3375558   9.3848933  17.0323491
  59.7935957   9.4822825  17.8682768  59.0998763  10.2781523  16.7836928
  52.9383612 103.2534885  38.8633132  52.5458288 103.6660576  39.6326876
  52.1938133 102.9087257  38.3703399  26.6070414 103.8571262   3.0701756
  27.0746231 104.6388245   3.3643770  25.7815623 104.1901112   2.7181265
  45.9747553 105.3661537   6.6167951  46.6228390 104.8278904   6.1623859
  45.1344442 104.9604702   6.4034116  42.0280838  64.9789858   8.0914962
  42.0156479  64.8179150   9.0349650  41.9310141  64.1113281   7.6990914
  73.2375252  46.1142530  71.1585446  73.1566697  45.6567468  71.9954319
  72.5917947  45.6924810  70.5916448  65.4401255 104.3768883  13.0595899
  65.1125336 105.1275349  13.5550153  65.9849834 104.7621727  12.3733532
  13.9064628  60.7776918  93.6251213  13.7420589  60.1697435  92.9042904
  13.6575252  60.2907075  94.4106793  52.8821856   8.6805953  40.4915524
  53.0064410   9.2076243  41.2808800  52.3621601   9.2368449  39.9115610
  90.1198119   1.2707270  30.0489640  89.5596618   0.8627261  29.3886614
  91.0022134   1.2146033  29.6822929  46.8483019  97.5284290  11.1371183
  46.6744900  98.1749439  11.8212521  46.6828775  97.9957962  10.3183150
 115.4450680  84.2109489   8.3521396 115.6499689  85.0006390   8.8527840
 116.2620548  83.9930916   7.9034716  75.9385127  17.1607150  39.3772769
  76.1334914  16.4184226  39.9493074  75.9157986  17.9162062  39.9645972
  77.0436954 101.9564438  38.7591696  77.8321791 101.5454865  38.4047151
  77.3682833 102.7037334  39.2615891  15.4570758 102.5317574  15.5003607
  15.1381576 103.3563709  15.1335502  15.4391992 102.6681900  16.4476192
  81.8590182   5.0895346  53.8952732  81.6467112   5.8823527  53.4027386
  82.5289411   4.6529139  53.3691597  54.6954233   4.0459193  55.2670622
  55.3031141   4.1268481  56.0021782  54.8132354   3.1481589  54.9566364
  97.1352166  11.7861212  29.4225669  96.8674439  12.5661219  28.9366484
  97.2622365  11.1168803  28.7500978   1.2212826 100.5962658   7.1059299
   1.1855005 100.5627060   8.0618715   0.4015275 101.0192013   6.8502682
  28.5247540  95.6529236  62.8229713  28.3000088  95.2073288  63.6397743
  27.7570796  96.1886978  62.6233530  63.0248970  27.2668780  24.2218637
  62.4232763  27.9535902  24.5094657  63.8331884  27.7317465  24.0055609
  89.2383777  46.2145509  89.7212441  88.4695529  46.6596116  90.0777008
  89.7546934  45.9749784  90.4908233  10.8620274  96.3532639  43.4530830
  10.7561576  95.4452896  43.7370157  10.1920915  96.8354416  43.9377642
  19.2257958  74.2018308  92.6052185  20.1818353  74.2307748  92.6424490
  18.9530116  75.1082219  92.7476265 108.0324959  63.1858253  40.7628441
 108.0030524  62.2494316  40.9591293 108.6232089  63.5502529  41.4219999
  36.8335056  68.2113361  32.7962089  37.6627946  67.8021193  32.5491142
  36.9689631  68.5013866  33.6982918  65.9230036  10.7879103  23.1428552
  65.2877993  10.1888979  23.5352087  66.7330641  10.6290091  23.6274028
  51.8771440   7.7737082   0.7842331  52.0758897   7.2621478   1.5684764
  51.5710193   7.1274603   0.1479304  27.2967553  79.7306395  10.8553326
  27.2185445  78.7901402  10.6954038  28.2301474  79.8695087  11.0157359
 115.1165054 108.7968636  26.5833640 114.6692915 108.8588524  25.7393312
 115.9778612 108.4367466  26.3721490  76.5315342  97.7079010  16.1661088
  76.9075775  96.8844032  15.8551729  76.3289165  98.1952763  15.3675890
 110.0209772  29.9802102  84.6507390 110.4680526  30.2767266  85.4434772
 109.0972101  30.1738538  84.8100789   2.0522481  32.8097429  88.6253019
   1.2498790  32.4785127  88.2219096   2.2446519  33.6169233  88.1481560
  82.4809522  37.2487200  20.4735851  81.9509381  36.4518012  20.4582667
  83.1171674  37.1268214  19.7688854  90.7485508  55.0191106  79.6066208
  91.0823070  55.5937661  80.2955409  90.3680717  55.6148709  78.9612205
  55.8936882 103.7718678  24.2698503  56.4681911 104.4313049  24.6588540
  56.1256409 102.9581451  24.7173691  74.7067946  30.9411944  65.2802896
  74.4946736  30.4435290  64.4906282  75.0837225  31.7584456  64.9543047
  66.3337773   3.5472811  28.0152774  67.1443123   3.5873641  27.5076747
  65.7287163   4.1217745  27.5461388   2.3126393  48.8891401  73.2553740
   2.8861934  48.1235971  73.2206173   2.3435098  49.2519368  72.3701282
  28.5567379  76.0948133  58.2515240  28.6655498  77.0051241  57.9763508
  28.7624121  75.5820847  57.4698353  28.2375121 101.1668491  52.1949244
  27.5643849 100.7366467  52.7222347  29.0565848 100.7544136  52.4692297
  48.6792421  99.5244122  16.2461197  48.4847450 100.2740955  15.6836426
  48.0786991  98.8404751  15.9497964  13.5099077  98.9417362  16.3623953
  12.8319323  98.2668209  16.3298023  14.1890693  98.5719490  16.9265103
 110.6718122  18.7845029  69.4815608 110.8710229  18.3489217  68.6528178
 111.1740195  19.5988025  69.4509264  82.9166751   5.1337041  74.5872303
  82.0523088   5.4799642  74.8090597  83.0744647   5.4380359  73.6935206
  65.4263735 106.8560219  48.1279182  66.2673044 107.2376919  47.8761387
  64.8538256 107.6099873  48.2691479  33.0802965  77.7606344  21.0860443
  32.6397252  77.5340748  20.2670217  33.2438707  78.7012815  21.0177708
  82.7712125  15.9850729  22.7905250  83.0712813  16.6647471  23.3940434
  81.8161553  16.0248698  22.8406811  30.4606152 103.8499832   9.6035177
  31.0379720 103.3010101   9.0729302  30.9983253 104.1102600  10.3514194
  89.2248029   1.1405791  41.4279747  88.5923928   1.0122908  40.7209921
  89.8303908   0.4040469  41.3441992  38.1218584  10.6680716   7.6015472
  37.3278630  11.0533083   7.2308767  38.3560015  11.2506999   8.3240163
  34.7705674  99.0278435   0.6978535  34.4249392  99.6916485   1.2946308
  35.4176283  98.5515976   1.2181727  37.0686936  93.5008526  24.1941738
  36.1317611  93.3834267  24.3510246  37.4866199  93.1927967  24.9983335
  84.0783148  47.4590482  92.1621578  84.7078770  46.9018068  92.6197176
  84.2354488  48.3357991  92.5126644  81.4105338  17.1850050  18.8769066
  82.3191470  17.4858798  18.8655579  81.0301370  17.5414885  18.0741310
   9.7189885  74.2929448  87.6876058   9.5771772  73.6580552  86.9854386
  10.3445750  73.8665380  88.2733138  52.5833845  80.9078407   7.5410116
  52.7307892  80.2845860   8.2523924  53.1119394  80.5735683   6.8163568
  43.4640312  88.8723660   9.1451442  43.4103346  87.9167461   9.1328758
  43.9115429  89.0975952   8.3295232  50.2451181  85.7226276  29.0148497
  49.5777845  85.0826359  28.7672424  50.9136629  85.6471634  28.3339810
  24.8533344 103.5367966  40.5505371  25.1435018 102.7377605  40.1105833
  24.6227336 103.2529259  41.4351130  80.0590590  20.9056558  83.4259887
  80.7571148  20.6639756  82.8172703  79.3311437  20.3276433  83.1973644
  30.1128459   3.4900988  10.9171772  31.0689241   3.4445704  10.9086370
  29.8421145   2.7408923  11.4478636  54.3450737  99.5721340  49.3301630
  53.8905716  99.9724293  50.0713921  54.4583130 100.2872849  48.7040901
  41.6627169  80.9190464   7.9306138  41.7425346  80.4169369   7.1195984
  42.0301342  80.3464603   8.6039513  66.5439606  94.2237282   3.7158865
  66.3499880  93.8941479   4.5933747  67.3687649  94.6991253   3.8155013
  60.3722572  68.8909864  28.4474492  59.6660042  69.5285892  28.5518527
  60.6923151  69.0318394  27.5564051  38.5335565  20.0357665   4.4758102
  39.3455327  20.0445403   3.9690071  37.8830505  20.4270495   3.8927361
  13.1104422  27.8964376  33.8655758  12.3535323  28.4212565  33.6050296
  13.5091627  27.6242995  33.0390215  77.9911201  95.7314063  89.3695487
  77.0597165  95.8764363  89.5359488  78.1885856  94.9075628  89.8151066
  23.5138106  41.0397387  43.7714624  24.1698360  41.5323210  44.2646408
  22.6920938  41.2063169  44.2332697  23.5727358  45.1575518   9.8682201
  23.9848256  46.0214615   9.8594135  23.8514519  44.7508669   9.0477592
  10.0456047  44.0172529   8.4295005   9.1221017  44.2235279   8.2851911
  10.5023098  44.4428921   7.7039075 108.1369841  51.5050364  32.2771525
 107.4496149  50.8764982  32.0564842 108.8208490  51.3507223  31.6254258
  61.2170785  87.9671574  83.7624140  60.6599467  87.2917295  83.3755894
  61.7682188  87.4946690  84.3862982  31.9656849  17.6899445  19.9186993
  31.4217257  16.9599926  20.2145219  32.8404093  17.3132789  19.8227167
  10.8378947  54.4079161  21.0693884  11.1291432  53.4991693  20.9946227
  10.4973924  54.6225166  20.2009201  57.3394411  87.8259373  91.7599620
  57.2296172  87.4210525  90.8995907  58.1814628  88.2779813  91.7062186
 107.9527771  22.4301471  90.9343375 107.9286658  23.3209838  91.2837081
 107.5847923  21.8889035  91.6328176  17.4294984  73.7272406   4.6218407
  18.3571577  73.5531521   4.4625524  17.3865390  73.9686346   5.5471051
 104.4868433  18.3483257  88.4253432 103.6729562  18.8138808  88.2327856
 104.5249759  17.6515474  87.7701475  53.5045576  95.6236458   0.9368401
  53.1551552  96.5145683   0.9571231  52.7298069  95.0619602   0.9594013
  84.2301422  56.8616094  90.7697354  85.0900012  57.1499814  91.0758676
  83.6095797  57.2948159  91.3558002  11.7257434  15.1689614  92.9892588
  11.8915444  16.1035051  93.1132257  11.2625438  14.9005641  93.7827583
  72.8854704  47.4568081  12.3297465  72.0181608  47.1833849  12.0309985
  73.0919409  46.8570757  13.0466282  13.8673341  49.4874191  29.4273686
  13.5512042  48.6070347  29.2243528  13.9541316  49.4968510  30.3805804
 108.8886880  42.7731752  56.1910248 109.3383759  43.6085701  56.3180065
 109.1798919  42.2305965  56.9238567  23.1460667  29.4561815  10.4702306
  23.0493379  29.4825602   9.5182955  23.9325094  28.9305186  10.6165874
  25.9930086  59.2566490  16.3387764  25.4078174  59.5605373  15.6449211
  26.1860490  60.0422430  16.8504477 114.8226299  48.5750532  11.3207996
 115.0479499  47.6849413  11.0503125 113.8679420  48.6092663  11.2605309
 114.5686310  13.2066417  36.7355394 114.7092728  12.4471378  36.1702013
 114.7129900  13.9607203  36.1639118  50.4264927  67.8910398   8.7841874
  50.4963303  68.7559080   8.3800197  51.2464094  67.7852106   9.2666477
  18.0712605  78.0440092  36.6991186  18.1763411  78.2339907  37.6313734
  17.1241975  78.0428505  36.5601826  31.7820191  70.3957796  11.5736008
  31.0389066  69.9313402  11.1884916  31.9547272  71.1159325  10.9671545
 114.8642401  50.5776691   0.1745652 115.3174729  50.7331610   1.0031991
 114.0290248  50.1849747   0.4284128   1.2154815  21.2116909  36.8668365
   1.2745617  20.4622412  37.4593472   1.9270627  21.0785961  36.2406039
  20.5736542  62.1765184  35.5931401  20.7125378  61.6322613  36.3682079
  20.2573586  63.0107737  35.9398437  26.9314313  49.5044994   9.9930340
  27.0422792  50.3603220  10.4071760  27.3155522  48.8861084  10.6145442
  16.5074146  28.7366295  30.3484750  16.7167294  29.2785335  31.1092377
  17.2884655  28.7856483  29.7973061  40.1457644  95.6678867  41.6938162
  40.2705002  95.6618309  40.7448006  39.3334460  95.1807022  41.8317318
  39.0760753 101.2512208  88.0204155  39.5980205 100.4661751  88.1862916
  38.1704578 100.9675551  88.1454070  74.6886628  78.0487061  82.6838322
  75.4679888  78.1959415  83.2197459  74.2002933  78.8699890  82.7405913
  67.9798096  75.4762054  84.1149862  67.9558795  76.4198304  83.9561446
  68.1261485  75.0914896  83.2508035  12.4196613  53.9536524   9.0860355
  12.2731864  53.1818962   8.5390717  12.7357769  53.6011410   9.9179232
   3.6079919  29.0472341   3.0026463   3.6905295  28.0982447   2.9086420
   3.3418596  29.3516159   2.1350303  84.8641848  25.6131162  77.9736372
  84.2446088  25.3603639  77.2891851  84.4157707  26.3058461  78.4586986
  20.7181454  55.7708454  25.4984355  20.6155348  56.6234684  25.0756574
  19.8913586  55.3188992  25.3299212  40.2949572  27.9563498  20.6650686
  39.6587348  27.7564478  19.9784136  40.7727671  27.1371317  20.7947230
   5.5068904  36.7395139  24.1519833   6.4484501  36.5734100  24.1060662
   5.1076978  35.8710265  24.1008949  22.8941774  59.6615505   9.6003383
  22.7767825  58.9277124  10.2036095  22.7267051  60.4388475  10.1332462
  26.4426804  57.9795122   0.2814271  27.2679019  58.1407261   0.7388656
  25.9464693  57.4151516   0.8743073  22.4733043  57.9364586  11.7413938
  23.3161521  57.4924707  11.8347239  21.9429970  57.3359966  11.2175119
  38.9105368  64.6099997  19.4974351  39.3192601  63.8447857  19.9019384
  38.2359147  64.8788881  20.1209855  97.7184045   7.0311679  83.5226889
  97.0773184   6.3467588  83.3307894  97.4177074   7.4171294  84.3453939
  32.9943967  87.0922852  15.2195740  33.3637238  87.8057289  15.7399821
  32.0659924  87.3107243  15.1384413  33.1009078  73.5574770   5.6032073
  33.2537818  73.0634117   6.4086640  33.5523820  73.0552721   4.9248320
  96.0726433  75.1920795  47.3103380  95.4466372  74.5093727  47.5517035
  96.8238311  75.0420141  47.8842974 114.1333407  45.9826660   7.8415084
 113.4433162  46.5023994   8.2537872 113.9803138  46.0836315   6.9020295
  83.4973448  20.6037082  74.3931456  82.5923177  20.7942714  74.1464801
  83.5976028  20.9981908  75.2594944  38.6703491  54.9491930  20.5922651
  38.5091543  54.8937178  19.6503675  39.1798449  54.1645479  20.7946873
   8.0137718  70.3932095  45.6687832   8.6668110  70.6781530  46.3079834
   8.3768421  70.6547308  44.8226023  76.0087035  32.2039117  90.5406921
  76.7943244  32.3137368  91.0763882  75.9563758  33.0083360  90.0245489
  51.1237383  35.3719974   0.9443971  51.3405275  34.4478345   1.0675065
  51.6542673  35.8312511   1.5954383  28.1771326  53.5191822  13.8945007
  27.5251389  54.1727877  13.6416459  28.9500308  54.0313816  14.1322243
  10.5543339  94.1146088   9.1778845  10.7863724  93.6820221   9.9996299
  11.3245380  94.6383095   8.9570940 107.4022203  61.8992710  24.4860864
 106.6237503  61.9240999  23.9296699 107.2679442  62.6060247  25.1175165
   7.0533842  58.4127808  59.3733406   7.2518355  57.5552034  58.9972973
   7.2894657  59.0360260  58.6862707   9.3125093  58.3428288  28.5116243
   8.9652628  57.4591446  28.6331010   8.9976221  58.8306141  29.2726398
  39.6931458  65.8914471  17.1547961  40.6232119  65.6652164  17.1598291
  39.4045591  65.7384396  18.0545390  32.7880645  33.0272937  29.3777013
  32.7908754  33.3881354  28.4911251  32.3629856  32.1743846  29.2878079
  33.4948277  84.2530441  17.2895145  33.8487172  85.1367664  17.3896623
  32.9330301  84.3062115  16.5163469  34.3666101  67.5637484  14.0061533
  35.1886106  67.7278185  13.5439515  34.6353912  67.2209978  14.8585105
  36.1381721  61.0721111   8.5765338  35.5152154  61.6221714   8.1015718
  36.8505383  61.6661692   8.8128793  73.8175910 103.4751416  94.0416990
  73.6201256 102.8988887  93.3033426  73.9178532 104.3421698  93.6487089
  12.7872527  45.3933096  34.7181153  12.5203919  44.4776869  34.6365547
  11.9716370  45.8668327  34.8817563  29.1329575  43.2313538  20.8122587
  28.7227297  43.9455986  20.3246069  29.0636611  42.4738550  20.2312040
  38.4437275  60.7113409  22.5941730  38.0600452  60.7522631  23.4701538
  37.7515149  60.3409338  22.0465684  15.7055461  86.9727516   5.1063681
  15.1440763  87.1228027   5.8669388  15.1053190  86.6845322   4.4186974
  47.9015112  69.6736813  35.5338860  48.7970591  69.3357992  35.5260038
  47.7085209  69.8621082  34.6154737  18.3445799  52.2446394  26.9876242
  18.6226833  51.6713524  26.2733197  17.7643764  51.7001343  27.5197005
  35.7432389  41.1181545  30.5878901  35.7558656  42.0669079  30.4616356
  34.9017787  40.8396196  30.2265120  22.9113722  71.8587828  46.3038588
  23.5852194  71.9332123  46.9795942  23.3989477  71.8408918  45.4803419
  86.2614852  14.8695173  78.2301052  85.4650366  15.3812637  78.0886252
  86.2592500  14.6772804  79.1678007 106.5393668  56.0755396  18.9204645
 106.4737409  55.1617527  19.1978025 106.7700666  56.0282755  17.9926836
  90.5341374  27.4148740  60.4747649  89.8695909  26.8446244  60.0882073
  91.2173020  27.4735250  59.8068758   9.5855689  26.6135311   8.2284194
   8.7888521  26.6544008   8.7573844  10.2095592  26.1325192   8.7720138
  37.9074502  45.0771856  30.4814887  38.7464786  45.2009392  30.0377011
  38.1413960  44.7410393  31.3466525  77.4706662   4.8282327  90.5468278
  76.8231467   4.3982829  89.9881734  77.1432256   4.6981754  91.4368276
  47.8870201  50.5107880  -0.1528255  47.6724720  50.0630331   0.6655350
  47.2515202  51.2243652  -0.2091569  47.9828453  70.6452322  22.2122240
  47.8417683  71.5253210  22.5611854  47.5801325  70.6644106  21.3440728
 114.3059480  48.5809088  19.4144595 114.1888353  47.9089546  18.7428975
 114.3640437  49.4013357  18.9248073  30.9847133  77.0512510  71.6429229
  31.1079245  76.4924527  70.8755918  30.3700589  76.5678883  72.1950050
  97.5969552   6.5894069  94.0648055  98.4257685   6.8996324  93.7000285
  97.7881634   5.7042731  94.3749891  97.8324729  34.5834947  32.3965406
  97.2461813  34.6174288  33.1524134  97.8715401  35.4870343  32.0829749
   7.8968608  72.1113682   3.5962367   6.9591117  72.3029852   3.5844186
   8.2561469  72.7133989   4.2479265  13.1312323  53.9384604  13.5319400
  13.6295080  53.7610197  14.3297303  12.4866045  53.2321072  13.4900832
  36.1716676  19.3132651  29.5550108  36.0619664  18.7955761  30.3526282
  35.5249763  18.9557302  28.9465785  99.5097338  20.8221139  79.0817566
  99.5843136  20.3352727  78.2609935  99.4033634  20.1469602  79.7518940
 115.7597333  26.6308093  24.9504995 115.1878237  26.1497498  24.3523932
 116.6415358  26.4850998  24.6078277  23.8869452  25.5486178  16.4842200
  23.8557148  24.8698044  17.1583617  24.5710897  25.2566075  15.8818018
  24.0528202  69.4797421   9.3178749  24.2634940  70.3160191   9.7331977
  24.9040055  69.0947580   9.1093016  14.8621273  58.1811905  44.2231798
  15.1793838  58.2921076  43.3269262  14.1102612  57.5946331  44.1402435
  14.5428145  73.2427168  65.9145689  14.9059510  72.6381111  65.2674103
  13.6209905  72.9943180  65.9836340  63.1031942  60.0603485  38.8855433
  62.9383183  60.8562708  38.3800173  63.9844894  59.7906733  38.6270356
  21.3729692  50.2714729  18.8094127  21.7033458  51.0890865  19.1816914
  22.1537089  49.8243952  18.4826088  64.2120522   3.6312426  30.6514072
  65.1290554   3.8902129  30.5604529  63.8370484   3.7683047  29.7814536
   4.9444351  76.1473942  29.5136213   5.4548943  76.1442566  30.3233433
   4.4796810  75.3106213  29.5202279  41.2312126  94.3402958  32.6281667
  41.0268211  93.5273266  32.1660590  41.2749434  94.0871716  33.5502553
  29.5514321  59.9998951  21.0908604  30.2068734  60.1886082  20.4192829
  29.6534753  60.7051134  21.7299891  22.2076058  32.6542759  34.7996259
  23.0383444  32.8697228  35.2235222  22.2714162  33.0522823  33.9314365
  54.7629404  61.5656233  51.4977264  55.3752947  61.9944715  52.0955086
  55.2724838  61.4126539  50.7019854  24.0072465  91.8692875  11.1086929
  23.7470865  91.4651585  10.2809072  23.3258271  91.6072369  11.7277455
  49.0784400 106.3358212  87.2201277  49.3207531 105.4916144  86.8395658
  48.9742535 106.9170809  86.4667936  22.1758491  56.2367524  90.7292985
  21.5313703  56.4699067  91.3975193  22.8414470  56.9220628  90.7890357
  37.0882177 102.5889397   6.7266530  37.9138851 102.9872704   7.0020300
  36.4914227 102.7443314   7.4587172  48.2087660  49.6855879  23.4046483
  48.7285614  50.0904083  22.7102685  48.8119698  49.6135712  24.1443729
  12.5984347  41.8286085  37.6830816  13.0941081  42.6280737  37.5059009
  13.1572831  41.1231232  37.3571801 107.1831780  80.5597115  10.2081716
 108.0375528  80.9859753  10.1405370 107.3770385  79.6241379  10.1503360
   9.4392735  60.6323385  12.3939562   8.5565817  60.3268147  12.1848154
   9.3794566  60.9353542  13.2999575  10.2067125  79.0007496  28.0883694
  10.1536572  78.3524466  27.3861432   9.6906912  78.6243677  28.8013124
  15.2254820  94.4206905   9.7026974  15.2623713  94.6096611   8.7650609
  15.9798813  94.8815346  10.0697625  50.7685041  64.7657919  43.5017061
  49.9393559  64.7385836  43.0242062  50.9046078  63.8654423  43.7967968
  57.5305605  88.7067318  32.1564865  58.3646679  88.9037704  32.5827193
  56.9252253  89.3642330  32.4992442  24.5905566  63.1257439  39.2443490
  25.1660991  63.0592251  40.0062943  23.7281466  62.8714371  39.5726895
  12.9226136  80.7186985  11.5950680  13.2780349  81.5906525  11.7670989
  12.7963901  80.6943512  10.6465387   4.4019395  34.1448964  92.4997731
   3.6046392  33.6203851  92.5734173   4.9742061  33.8089551  93.1896176
 114.5572777  48.3194590  32.0386577 114.9916325  48.6024094  31.2339783
 114.2953455  47.4154520  31.8643022  10.7343543  42.0289612  31.2813926
  10.5445802  42.8691816  30.8639598  11.6360748  41.8332672  31.0267663
  11.6673887  39.3162870  26.0005927  11.6026711  40.2175045  25.6845999
  11.8612564  39.4030738  26.9339299  52.4168015  57.6074123  35.9058452
  52.1154404  57.0681524  36.6370153  52.6467228  56.9776821  35.2226114
 111.1645090  31.8259324  86.8678667 111.2319958  30.9596910  87.2694917
 112.0591914  32.0363034  86.6004332  20.0332189  76.8744326  33.6705923
  19.3806124  76.3917732  34.1779113  20.0753975  77.7336359  34.0903831
 111.1789458  75.9654236  12.0651817 111.4216107  75.4534721  12.8367066
 111.8223983  76.6734648  12.0354712   5.0315845  54.3754911  36.0363293
   4.4596037  53.6872911  36.3761067   4.9955532  54.2692375  35.0857282
  43.5863638  75.8673096  13.8927782  44.2488956  75.4581165  14.4494188
  42.9129648  76.1676168  14.5031714  21.0409045  70.4915810  29.9227047
  21.0395455  69.5863295  29.6116614  20.3251672  70.9102249  29.4444895
  75.4932160   4.5594157  93.0733936  75.5548903   3.6047544  93.0409464
  74.8715138   4.7353973  93.7796150  30.0702405  49.2970133  56.7469645
  30.4956818  48.4686756  56.9685221  30.7785082  49.8487997  56.4151239
  39.5092845  73.3173227  35.2211571  39.0638566  73.1650829  36.0546136
  38.9413834  72.9086447  34.5679307  51.6396332  80.2037430  16.2707496
  50.8706617  80.7217026  16.0327828  52.1123838  80.0845337  15.4470241
 113.6161699  46.5529299  22.5220323 114.2045837  45.8850622  22.8741074
 112.8552147  46.5316772  23.1023145  79.8754626  25.3836908  85.9891404
  79.6440703  26.2478341  86.3296487  80.4845809  25.0267877  86.6355343
  27.5228500  96.5138912  18.0491292  28.0883932  96.2377262  17.3279321
  28.0636859  96.4078331  18.8317394  14.1363585  71.0761404   8.7333786
  13.9340174  71.2038136   7.8065622  14.7892296  70.3761959   8.7417865
  27.9008627  65.4932499  10.5319047  28.8153291  65.4718447  10.8139074
  27.9008245  65.0468445   9.6851736  91.9025349  10.6267108  91.7619480
  91.5327882  11.4177932  91.3698895  92.7409696  10.9096612  92.1269129
   2.0243960   0.1174678  82.5766392   1.6280967   0.6946506  83.2293578
   1.3337070  -0.5087672  82.3598166  64.6934271  64.9814939  29.3629885
  65.1289272  65.8158016  29.1883349  63.7993002  65.1068830  29.0451026
  60.9346676  63.4710073  17.2957790  61.1037064  64.3090105  16.8651927
  60.0695324  63.5754490  17.6918459  15.6699479  67.0021677  21.4326358
  15.9790194  66.3086319  22.0154881  14.8534012  67.3035717  21.8309307
  57.3709445 110.1578761  65.1710744  57.9401462 109.4010354  65.0316568
  57.6450806 110.7894612  64.5061083 114.9421083  11.6963281  79.0923532
 115.3852784  12.5360049  78.9708240 115.4130184  11.2791671  79.8137768
  23.9239955  66.0666418  49.6007347  24.5106363  66.5780830  49.0434980
  23.6039352  66.6929197  50.2500200  33.3156657  98.6781693  13.6323500
  33.5043335  98.7290668  12.6953089  33.4552836  97.7577877  13.8551342
   0.7721953  55.4121447   8.4449369   1.3230191  54.7183371   8.8075078
   0.3549951  55.0125217   7.6817328 114.7229564  21.8390550  74.7273059
 115.5931913  22.0830001  75.0426074 114.1547190  21.9391860  75.4910536
  14.0955174  78.7276411  12.7570558  13.8052404  79.1451025  11.9460702
  13.6487579  79.2139387  13.4499848  40.6959105 108.3959866  20.4602456
  39.9026704 108.4371853  19.9261081  41.3990450 108.2296562  19.8324168
  21.1095190  99.4965267   9.8504430  21.3288212  99.3999290  10.7771623
  20.3281927 100.0494576   9.8455799  17.5259471  48.3509636  15.5091345
  17.5644279  49.3068600  15.5409694  18.0123663  48.1178808  14.7183752
  42.9054022 107.8816509  14.4820809  42.7615356 107.0011044  14.1354227
  43.8554859 107.9495144  14.5767474  63.5074568  66.2540388  40.9869051
  64.0368032  65.6062222  41.4520550  63.8531065  67.0983505  41.2765503
  19.5794213  59.8010111  14.8697376  20.3255057  60.1723385  14.3988812
  19.7937441  58.8729239  14.9643266  49.9904156  68.3436823  15.0003338
  49.6023989  68.4614849  15.8673942  49.3077612  68.6267185  14.3919718
 100.6822746  62.9976273  17.4439251 101.0017913  62.2348404  17.9258955
 100.0887626  62.6342916  16.7866862  25.5763006  85.2539730  33.0078650
  26.0039949  85.5869675  32.2189260  25.3672528  86.0377884  33.5159659
  24.8239756 100.8520699  23.3822775  24.6138620 101.7858410  23.3695817
  25.7172704 100.8029270  23.0419207  19.3080068  38.2663155  24.2674160
  19.7169578  38.3671832  25.1269603  18.3885670  38.4898877  24.4119048
  33.0410790 100.3379059  37.5821209  33.0134344  99.7126293  36.8578959
  32.2148967 100.2033424  38.0463934  15.0797153  89.9187851  41.4664030
  14.5037508  90.6241989  41.7611837  14.7870481  89.1501808  41.9561195
 110.4506194  47.6173391  94.3183983 111.2543618  47.1434392  94.1047572
 110.4842030  48.4036626  93.7736032   9.1026240   9.5759048  72.0945926
   9.8363620   9.2570390  71.5690585   9.1411716  10.5282916  72.0067950
  47.9668093  87.4922943  40.2761078  47.5345373  86.7607212  40.7167625
  47.9901695  88.1877708  40.9333706  21.1653376  71.2618828  50.5061150
  21.0340810  70.5054569  49.9344301  21.8441510  70.9827900  51.1205673
  10.0435030  58.7279463  58.6197042  10.8274770  58.6738634  58.0731773
   9.6993208  57.8348827  58.6338520  22.8897095  59.4295740  41.4353752
  22.4746561  59.9863434  42.0941401  22.6276827  58.5403490  41.6738129
  12.5147897   8.8052596  90.5969303  13.4333926   8.9050760  90.8467935
  12.0689994   8.5723628  91.4113404  68.9949375   2.0203962  92.7278494
  68.3773678   2.1678867  93.4441497  68.6602890   2.5564374  92.0088907
  75.5654955  57.5151634  13.8433325  76.3536263  57.4013329  14.3744838
  75.2672386  58.4022141  14.0443575   5.0433350  67.9173899  15.2534652
   4.1496414  67.7036619  15.5215406   5.5498838  67.8900862  16.0651886
 111.4170747  79.2711782  10.9603119 112.2535970  79.4130135  11.4034212
 111.6569995  79.0542221  10.0594246  32.1257257  75.1929998   1.6694719
  32.7409840  74.9854660   0.9661825  31.3492250  74.6698332   1.4705338
  45.1175928  72.1744823  15.8445811  45.1072884  71.5322113  15.1349258
  45.7267427  71.8113375  16.4874601  79.1223758  10.3063001  87.6340015
  79.7184759   9.5612659  87.7103026  79.3325263  10.6952085  86.7849918
  27.8836465  70.5444145  31.2219524  28.5788250  71.0785723  31.6061854
  27.1860194  71.1680746  31.0204601  30.3162885  54.4586086  40.2709103
  30.4367900  55.0562239  41.0088587  30.3385854  53.5858536  40.6633806
  27.1530676  61.2044811  49.9852562  27.5644374  62.0048189  49.6589661
  26.4401245  61.0335779  49.3698454  13.7691271 103.7900829  20.6576538
  14.2282999 104.4589520  21.1655998  13.6441004 103.0666828  21.2719011
  92.0157253  61.5961637  93.4378863  92.2318708  61.2437810  94.3012165
  91.1194026  61.3015641  93.2764925  30.2389455  79.8197985  17.9681647
  30.6024671  80.7021523  17.8937697  30.5916452  79.3508959  17.2118807
   3.9729959  75.0437784  26.0719800   3.6926997  74.7042561  25.2220464
   4.3001524  74.2759132  26.5405726  31.1945367  74.7902155  43.8362694
  30.4945540  75.3943825  43.5887957  31.8014765  74.8108816  43.0963850
  35.4318428  62.4848652  36.4166880  35.6837106  62.8849363  37.2489953
  35.0521445  61.6410589  36.6617393  50.2871459  96.1170817  94.1245309
  49.6763234  96.5604449  93.5358411  50.8185642  95.5674172  93.5486016
 113.9874491  73.6216974  40.9035206 114.6870262  73.5640812  41.5542889
 113.8161891  72.7133465  40.6549168  40.9222126  46.0897970  75.3569412
  40.3641319  46.6348743  74.8022556  41.7820120  46.1227131  74.9375439
  18.8491225  65.6342697   9.2844129  18.1651711  64.9848557   9.1209912
  18.6059380  66.0331774  10.1198554  82.4776562  10.5313720  91.0728522
  81.8410056   9.8484649  91.2839191  81.9568431  11.3315953  91.0048123
  34.1690489  99.5187522  92.3507343  34.1534414 100.2966309  92.9083122
  34.7799700  98.9242221  92.7860956  78.5082388  53.3346891   8.1103402
  77.8473186  52.7420998   7.7522087  79.3439627  52.9393673   7.8623205
  17.7635908  82.2532272   5.5702364  17.4321902  83.0827141   5.2262014
  18.3659923  82.5074673   6.2693143  17.3944604  83.9236546  15.8211589
  17.9192972  84.5327282  16.3405931  17.7064359  84.0433884  14.9241817
 101.9736516   3.6971368  95.1171702 101.9593274   3.3216323  94.2368158
 102.8500926   3.4997596  95.4475159  76.9886822   3.9033640  33.5681176
  76.7142767   4.7191370  33.1492639  76.1816830   3.5360468  33.9287615
  19.9663138  70.3365421  38.2212400  19.2953348  70.8386278  37.7587199
  20.1454401  70.8468390  39.0110135  78.5064886  13.3565654  92.5600766
  78.1019466  14.1169252  92.1424245  78.5061558  12.6819028  91.8810634
  54.4859028  95.0729752  33.9977026  54.4155788  95.8312702  33.4178114
  53.6870813  94.5715714  33.8342571  13.4877729  71.8141413  27.7113247
  13.3563507  71.2819195  28.4959912  14.3723786  72.1671295  27.8067374
  36.2395525  84.6455097  26.6557503  36.0354185  84.5158672  25.7295990
  36.8329358  83.9265728  26.8731356  63.9197588  71.1181450  10.4708397
  64.0307713  70.2591610  10.8783400  63.1962824  70.9995794   9.8554051
  62.2920179 106.4007282   7.8479499  62.3933697 107.0460701   7.1483147
  62.6525354 105.5927753   7.4826074  21.7096972  81.9699764  44.6580744
  21.7034674  81.4625454  43.8464642  22.4743319  81.6483974  45.1357317
  50.4684067  87.1345520  17.3100924  49.7649813  86.6690636  17.7625680
  50.4231787  88.0275440  17.6517844  48.4110594  34.8560572  17.6132357
  47.9051590  34.0667462  17.8063309  48.4326077  34.8988271  16.6572344
  48.9403105  71.3682604   4.4887811  48.1185436  71.8542337   4.4197595
  49.6085215  72.0432758   4.6074256  18.5058880  55.0820827  10.7243323
  17.9769850  55.7179928  11.2061107  18.3428335  54.2497683  11.1680579
  57.0989895  94.2174625  34.0032601  56.3195992  94.7704124  34.0582418
  57.8290415  94.8162079  34.1605854  73.7668371  74.3553352   3.1542107
  74.3209410  74.8866463   2.5824535  74.3735600  73.9739275   3.7887549
  60.2633953  54.3091202  34.9331665  61.0068893  54.9047565  35.0262904
  59.6776342  54.7514439  34.3187809  16.3834333  71.4560127   6.4943862
  16.2834156  72.0759010   5.7719123  17.2260523  71.6815281   6.8885547
  53.2674742  78.0403280   0.4728635  52.6872635  78.7999058   0.4216297
  53.1087875  77.6760292   1.3436899  34.2681861  83.4149075   9.8760128
  33.5923600  84.0927505   9.8809212  34.1525912  82.9554081  10.7077157
   2.8030518  62.3574448   7.1352524   2.3754449  62.7491140   7.8968155
   3.5242689  61.8461037   7.5021464 116.0049307   7.8696527  83.8629361
 115.0898539   7.8324832  83.5845776 116.0260689   8.5608424  84.5247801
  10.7791638  50.9469318  15.6998360  10.8614635  51.8755722  15.4828465
   9.8400384  50.7703114  15.6443298   1.6212207   7.8892793  83.5249002
   0.7097679   7.9082622  83.8166697   2.0753509   8.4868993  84.1189058
 115.9645759   7.6321305  50.3410001 115.5914914   8.4980859  50.1761861
 116.7976677   7.8094329  50.7777544 104.9346411  32.2965898  68.8917943
 104.3328654  31.9503392  68.2328506 105.5558860  31.5849675  69.0463086
   0.5727034  70.0581646  39.1271996   0.7094406  70.9671640  38.8602710
   0.1997440  69.6349669  38.3538699  99.3494355   7.2976102  75.0753446
 100.0275575   7.7715577  75.5567594  98.5324036   7.5404777  75.5108936
  56.2991858  67.0138979  23.8295460  55.4104137  66.6742754  23.9342999
  56.3488197  67.2754669  22.9101181   7.5888312  23.0111861  23.2056618
   7.8323764  23.5258937  22.4362493   6.8017417  22.5371242  22.9373574
  14.7658563  51.8355274  37.2452855  15.2213299  51.8667459  38.0865955
  14.8511755  50.9257078  36.9603539  17.3625457  66.4466286  39.3576932
  16.8551242  65.7006264  39.6774340  18.1542754  66.4459944  39.8956490
 111.2821614   2.0625915  92.6776083 112.0572745   1.5605344  92.9293408
 111.6262972   2.7921714  92.1623223  68.8424033   2.1828021  27.2389412
  69.4887346   2.7135123  27.7046013  68.7554687   1.3909949  27.7696967
  52.2231245  52.6319695  17.8418303  52.0916605  52.6855755  18.7884426
  51.4427042  53.0412245  17.4680817  29.3380767  26.0945501  86.0038318
  29.6349794  26.9550599  86.2997975  28.4941417  25.9699811  86.4379861
  25.9289479  81.1846828  67.0056438  25.0015783  81.2796307  67.2229004
  25.9331226  80.9065628  66.0897493  26.6721535  95.1910305  21.4311099
  26.2839842  94.7452354  22.1839881  27.0676780  95.9814548  21.7985511
  19.5570719  84.0229797  34.4298077  19.8095489  83.9942551  35.3526616
  19.7385466  83.1413174  34.1042900  70.2691746  91.3171959  30.8093071
  70.1843452  90.3921032  30.5785847  70.8215237  91.6862488  30.1201487
  94.1082400   2.9409731   9.3498367  94.3454617   2.2785700   8.7008530
  94.0080089   2.4513567  10.1662052  84.6250409  31.0686530   0.4111523
  85.4717940  31.4171256   0.6900973  84.5680875  31.2926901  -0.5177162
  26.0237288  73.6449957  16.3676071  25.0785208  73.4939528  16.3663912
  26.1298394  74.4953823  16.7939973  12.6454592  68.1506538  33.2685471
  12.0578110  68.7799501  33.6867380  12.0930386  67.6903391  32.6367474
  47.8760052  64.9409628  19.5733559  48.2474804  64.4812822  20.3263044
  48.6060810  65.0250912  18.9600480  98.0146027  75.5402517  35.6788135
  98.4404373  75.2052116  34.8897386  97.5486279  74.7854042  36.0383940
 107.8963775   8.7980212  24.2148471 108.6739749   9.3283118  24.0406036
 107.3968762   8.8300456  23.3989406  92.2328936  23.2926501  56.3759847
  91.2853920  23.4285011  56.3800164  92.5166308  23.5580386  57.2507949
   9.5130902  31.3684644  87.0583834  10.1457435  32.0832910  87.1291782
   9.9195939  30.7478799  86.4535274  43.3923531  84.0874481  22.8556108
  43.2029057  84.7646427  23.5050273  42.5414562  83.8825607  22.4680138
 100.9401864   4.0131320   8.0859303 100.0373811   3.8222445   7.8314948
 101.4740056   3.5491980   7.4409270  35.2782393  73.7960100  22.9853106
  35.9517407  73.1747913  23.2622766  35.7329822  74.3933105  22.3914456
 114.6758281  43.1440629  93.4849930 114.1476785  42.3991002  93.7719132
 115.5343210  42.7681722  93.2902540 114.0683594  68.0441427   7.1121275
 113.2581227  67.7037907   7.4914783 113.8573580  68.1926632   6.1903614
  86.6320819  14.5598925  39.6609592  86.3271731  14.4545973  40.5621672
  87.2797841  15.2631129  39.7078729  44.5218945  79.1920662   7.8977847
  44.8709011  78.3492088   7.6079237  43.8301849  78.9640474   8.5188973
 108.2559072  31.3044919  90.9826450 108.6010849  30.8429517  91.7468907
 108.5141384  30.7613076  90.2379973  24.1167617  85.8612633  17.5792861
  23.6025500  86.2996960  18.2572222  25.0135708  85.8730984  17.9136860
  16.2696612  81.7905045  34.1087842  16.5588510  81.7285538  35.0191474
  15.5273700  81.1888504  34.0518069 103.8346248  78.8935614  11.3606632
 103.1109863  78.3962107  11.7417407 103.5110336  79.7934437  11.3190293
  17.0028746  85.4836369  26.0689950  16.5596473  86.3311195  26.0294628
  17.7672267  85.5864239  25.5020452  16.6538918  79.8480129  10.6950617
  16.3072336  79.7737694  11.5841889  16.3008869  80.6757259  10.3686965
  12.0501173  62.1882915  39.2763019  11.7209828  62.2886658  38.3830905
  12.9601026  62.4816704  39.2306256  89.6296489  24.6325196  76.6715272
  90.0124800  24.1751136  77.4201615  90.3071856  25.2500238  76.3961049
  59.6698618  97.0653248  27.6192451  59.2489481  97.9247284  27.6415181
  60.6030989  97.2530365  27.7195454  94.0940034  10.2542342  86.0877724
  94.0328562  10.0627889  87.0236363  94.1294693   9.3941488  85.6691738
  12.4227262  72.4412441   5.0531203  12.8703737  71.6042233   5.1765698
  12.9747355  73.0774355   5.5078530  12.7326167  99.3201828  37.0229197
  13.6829817  99.2922878  37.1336460  12.4491179 100.0525379  37.5702000
  71.6063070  67.5237226  19.0791810  71.0613823  67.1796131  18.3714521
  72.5008106  67.4630070  18.7439096  31.8013740  71.3103962  56.7355871
  30.8874869  71.1701488  56.4878559  31.8640614  72.2518396  56.8967915
  21.1683822  89.7996712  20.2244139  21.9753265  89.4011116  19.8985016
  21.3184905  89.9111652  21.1631727  67.2190571  81.8207741   0.4850970
  67.4010897  80.8883953   0.6024478  67.9708719  82.2630501   0.8793013
  15.9597808   7.4832811  89.4255807  16.1802512   6.6903009  89.9142559
  15.4996043   8.0345048  90.0585266  22.2303581  39.4209504  28.2988143
  22.8077221  39.6732235  29.0193963  21.4614892  39.9819970  28.4002852
  16.4010561  77.6075602   4.6049923  17.1706700  77.2781324   4.1408741
  16.7158401  77.7921963   5.4898947  75.7664680  95.6507397   5.6109184
  76.0829735  96.3740826   6.1520565  75.2343321  96.0717297   4.9357647
  39.1262746  99.4900513  26.5107298  38.3075619  99.0034580  26.6065073
  39.2434168  99.9298573  27.3527956  12.7018958   5.0308789  75.1120849
  12.1281987   4.8202552  75.8487959  13.5846120   5.0072278  75.4815205
  71.0283941   6.4857901   0.0285657  70.4250521   5.7849158  -0.2183834
  71.3599032   6.2247885   0.8877581  27.1428299  75.1539135  44.4764280
  27.8791046  75.5834961  44.0410137  26.5003943  75.0158453  43.7804079
  19.5620519  31.5680494  93.7026195  18.9543706  31.1087407  94.2822704
  19.2990190  32.4866571  93.7592341  39.7431064  81.5414143   5.6444204
  39.7963405  80.6307316   5.9343195  40.3638268  82.0076847   6.2043571
  24.5008492  80.6751728  30.0371718  24.2393446  80.1822662  30.8149195
  25.4402995  80.5113888  29.9544740  16.9490945  91.1582947  13.3163869
  16.0838079  91.4508533  13.0301678  16.7727625  90.5762959  14.0555835
  32.5195765  47.0324564  24.1708803  32.5319386  46.6362429  23.2996178
  33.4024835  47.3835230  24.2868924 106.9262969  41.1876764  72.7202912
 106.5044462  41.9624700  72.3488470 107.0319831  41.3944997  73.6488863
  61.0360043 107.6598168  89.6967657  61.5343516 106.8431283  89.7268321
  61.1698573 108.0539466  90.5587267  30.8202243  78.2451200  31.9894075
  30.6417322  77.3420763  32.2518682  29.9874091  78.5619879  31.6397715
  83.5556126  89.0819359  18.8296640  84.4822788  88.8440895  18.7987804
  83.2327557  88.6830616  19.6376812  23.4836602  51.4197826  58.4033680
  24.3925500  51.7183208  58.3713341  23.5061336  50.5424213  58.0213070
  43.6905432  67.3073053  35.3565478  43.9060593  67.4545002  36.2774825
  42.8485632  66.8524790  35.3773403 108.0463707  37.7265157  79.9289484
 108.7938868  37.6499833  79.3359955 107.3314249  37.2841157  79.4713827
  34.7322583  69.8966885  22.8800273  35.6773353  69.7449446  22.8738379
  34.6424723  70.8441544  22.9824257  51.4289266   2.5403822  18.6320424
  51.1966461   2.9786433  19.4507027  52.3789615   2.6387633  18.5688877
  28.5016042  21.5039386  76.5298386  28.8523704  21.6583432  75.6527098
  28.6915093  22.3104467  77.0091279  14.0425134 106.4866924  12.8206825
  14.3101597 107.4039459  12.7637506  14.3696308 106.0911465  12.0127380
  10.2941573  69.5249796  31.5145755  10.2848423  68.6154938  31.8128753
  10.0569201  70.0337744  32.2898674  26.1975574  77.9317760  26.7824960
  26.6692400  77.4945593  26.0735607  25.5073595  78.4269428  26.3412833
  56.3111925 101.4613628  14.3237162  55.4374218 101.6290855  13.9706910
  56.3085890 101.8862343  15.1814485  78.8048715   5.2415217  27.0374870
  78.6422771   4.9766673  26.1321425  78.0724281   4.8717154  27.5304437
  50.7470322  73.4526825   4.2685249  50.7685709  73.5012484   5.2242494
  50.3770065  74.2918110   3.9943400  36.1272365  52.9150666  85.3181227
  36.9533473  53.2521333  84.9714716  35.7348567  53.6618127  85.7704909
  77.8566855   0.5109442  46.2391043  76.9906372   0.2446021  46.5477419
  78.4680408   0.0408400  46.8060970  10.2095604 107.1725655  39.5305490
  10.6896722 106.4173794  39.8702717   9.6220040 106.8054867  38.8700485
  32.3377657  89.7857571  27.5713897  31.4797020  90.0480175  27.2379470
  32.9512835  90.3929806  27.1577287  29.4540739  83.0497360   7.7583343
  29.1406822  82.5332069   7.0158958  28.9519382  83.8633919   7.7130091
  20.4128337 102.6593304   6.3881528  20.7780504 102.7733326   7.2655654
  20.5772114 101.7400837   6.1778808  24.9513030  49.9661970  30.7503653
  25.7324910  49.5630169  30.3716540  25.0981665  50.9074116  30.6566525
  46.4309692 105.0687504  18.1005681  46.2689543 104.6134090  18.9267921
  46.2221050 105.9841728  18.2866275  20.5836773  33.4881616   0.1679591
  20.1267791  32.8865314   0.7557668  19.9389493  33.6990261  -0.5073868
  39.2849040 100.4696846   1.8471490  38.8763452  99.6838474   2.2101417
  38.8433027 100.6036472   1.0085351  46.7719460  89.7656059  38.0651259
  45.8458138  89.7096443  37.8298044  47.1467018  88.9389610  37.7610755
  48.6296082  63.5209608  13.6780322  48.3156157  62.8963375  13.0242062
  49.5829630  63.4938812  13.5967064  27.5049853  80.7656479  19.5762110
  28.3474946  80.4957390  19.2107594  27.7340269  81.3123226  20.3278232
  88.0733871  66.3367748  30.2777410  87.1468258  66.3208580  30.5174756
  88.2675838  65.4378510  30.0123048 106.3610350  41.8911447  95.2165715
 105.9920775  41.0116948  95.1349023 106.8086945  42.0413484  94.3839420
  85.4288787   2.2926463  33.5048914  86.1071462   2.9680480  33.5097456
  85.6845111   1.7015685  32.7967167  54.3371296  95.0884438  18.2616806
  54.6517181  94.3085957  18.7189579  54.8076582  95.0834751  17.4281287
  40.9276724  65.8874273  47.0466232  41.6301584  65.3159189  47.3566580
  41.2946653  66.7697382  47.1020365 114.6819627  53.2260598  94.4901725
 114.7321522  53.1608571  95.4438293 115.1277720  52.4407949  94.1726175
  15.6910491  54.1972494  17.1606600  15.3855038  55.0920343  17.0115411
  16.0811162  53.9352512  16.3267314   3.5633421  68.2725048  30.6409621
   3.5119742  69.1484690  30.2584934   2.6727438  67.9285097  30.5721545
  17.6489669  46.9672765  94.3143101  16.8705302  46.8527116  94.8594211
  17.6812488  47.9074468  94.1374402   8.7022430  35.0576772  78.1132169
   9.4258052  35.0669564  77.4866374   8.4975797  34.1298093  78.2290168
  46.9461918  94.6905422  28.5427976  46.9504404  94.2862701  29.4104242
  47.2492504  95.5857944  28.6942148   8.6420280   4.6812762  58.8918133
   8.0417710   4.2743863  59.5166035   8.6027652   4.1169633  58.1196471
  37.5248575 103.5909462  39.2928457  38.0984521 103.8052177  40.0285816
  36.7076898 103.3054543  39.7014618  22.2190022  69.8799562  25.1070595
  21.3979173  69.4333315  25.3134012  22.8163815  69.1770172  24.8516202
  52.3178577  98.0046749  23.7780786  51.8979073  98.1973076  22.9397655
  52.3402262  97.0486832  23.8206744  42.8560638  66.8847704  29.9138665
  42.5510931  66.1600590  29.3679547  43.1435871  67.5506496  29.2892313
  62.1448946  75.3577852  12.8540564  62.8565311  75.1298094  12.2558665
  61.5359831  74.6217251  12.7934432  89.5554798 102.9589272  71.0179658
  90.2685373 102.7771712  71.6301318  88.7618177 102.8966618  71.5494342
  27.5766850  65.0355482  25.5641174  27.6596880  64.9394798  26.5128613
  28.4431982  64.8124790  25.2240753  36.3989449  78.2701063  20.1228762
  36.0498142  78.9289522  20.7230926  35.9055471  78.3986855  19.3127775
  35.7503319  57.1963882  23.4664249  35.5796480  56.3773441  23.0013800
  35.5201840  57.8809500  22.8382230   2.4926501  23.0050410  58.2520648
   1.5780717  23.0271424  58.5336371   2.9837257  22.8038921  59.0486927
  19.2143327  17.3077954  94.3159444  18.8645583  18.0939998  94.7352018
  18.5492450  17.0635165  93.6723431  60.7276106  59.2296839  27.4984527
  61.6531706  59.1811323  27.2592664  60.6013346  58.5082436  28.1147432
   9.1520947  97.5738621  17.8880882   9.9210691  97.2791767  17.4001610
   9.3470949  98.4827614  18.1163478  56.0321951  72.7450895  19.1491103
  56.4552212  72.1015453  18.5806632  56.2049389  72.4309349  20.0366330
  83.0173558   0.1585520  12.6612651  82.4858350   0.8552683  12.2761583
  82.8761739   0.2430094  13.6042225 114.3742477  20.0828637  95.6977396
 114.0206849  19.2532815  95.3767834 114.2229044  20.7005157  94.9823110
  30.5772829  76.3613319  27.1920204  29.8559237  76.0134792  27.7163029
  31.2040710  75.6398773  27.1384549  61.4046097  74.6554756  51.8404818
  61.9040966  75.4551029  52.0058250  61.9971943  73.9467812  52.0911407
  41.6267252  37.5483561  38.9540029  40.7496595  37.1826982  38.8387752
  42.1500254  37.1368909  38.2661915  36.4900827  88.8059235  21.5064168
  37.1242809  88.3526516  22.0619059  36.6883707  88.5031700  20.6202722
   5.1598299  77.9990673  36.6592884   5.8616579  78.6407709  36.5502834
   5.2577633  77.6875305  37.5590587  48.5952234  72.5402021  37.1711707
  48.1703854  71.8871069  36.6151071  48.3126640  73.3811283  36.8116736
  93.3476543  12.7448787  74.1680189  93.2902490  11.7947377  74.0671988
  93.6128055  12.8735103  75.0787230 116.4196359  32.2545423  79.6180077
 116.7513167  32.8921022  80.2502556 115.8377849  31.6914262  80.1284822
  33.8713455 103.1298828  30.0402522  34.0347338 103.8870525  30.6025887
  33.7117386 103.5048008  29.1741157  70.0854826  74.1585302   8.2079154
  70.6575966  73.4181976   8.4099603  69.6506977  73.9096212   7.3922944
  80.0178909 100.0612259  12.4479151  80.7392883 100.0870228  11.8193007
  80.2440643 100.7250214  13.0994189  18.4087205  70.1916075  23.7535691
  19.0432727  69.9841595  23.0676103  18.8916624  70.0706673  24.5711112
  59.4909811  72.1571922  24.1929889  59.9879265  71.4748144  23.7417316
  59.4578838  72.8819609  23.5686135  30.4127479  73.1884527   4.5235270
  29.8291516  73.1421995   5.2808297  31.0493636  73.8655186   4.7527379
  47.3158741  69.2243052  30.7425022  48.1966114  69.4124269  31.0667586
  46.9947433  70.0661230  30.4193163  31.1380911  82.7591610   4.5563939
  30.4850960  83.3640862   4.2044118  31.8286347  83.3257580   4.9004161
  31.3032198  62.1024370   8.6143714  31.2884164  62.2463036   7.6681608
  31.5358019  61.1791372   8.7126434   8.0488962  86.3068295  27.7324748
   8.4612620  86.4037895  26.8741131   7.1171308  86.2018204  27.5400758
  15.4814470  94.5907307  59.3396044  15.9345949  93.8699913  59.7771168
  15.4086733  95.2700424  60.0100327 113.8423239  31.2141504  85.8993180
 114.1900360  30.3322400  86.0318197 114.3190777  31.5478982  85.1393505
  23.4538728  59.8502816  76.9130381  23.8428336  60.4318513  76.2597986
  24.1693097  59.2701902  77.1735485 111.5967786  86.9390965  65.9734535
 111.1868959  86.9241238  65.1085806 110.9461921  87.3542595  66.5396738
  56.2293768  48.3663750   0.9937117  56.9090605  48.8361120   1.4770368
  55.5086517  48.9924622   0.9244082  30.1391059  18.6623134  73.5404034
  30.2290088  19.4180192  72.9598327  29.2085343  18.4412040  73.5033818
   4.3300450 104.8632240  31.9947147   4.2248508 105.6048203  32.5906968
   4.2520329 104.0918541  32.5560951  14.8276377  80.5623722   3.6417779
  14.2326784  80.4210186   2.9053858  15.6982589  80.5879402   3.2447925
  76.1165828   7.7075327  16.6820788  76.4306230   6.8042220  16.7225909
  76.2778801   7.9768504  15.7778215  43.9952671 100.0957490  74.7604199
  44.4055759 100.7142449  74.1559835  44.5468812 100.1231576  75.5422135
  23.6008787  56.6306400   4.6719241  23.1723714  56.3649893   3.8582641
  22.9913044  56.3663816   5.3609943  43.4691334  94.7741890   2.9861206
  42.5582409  94.5187664   2.8402779  43.5203218  94.9531078   3.9250565
  78.2012981  32.3796881  36.2092710  77.5306672  33.0051268  36.4837146
  78.5399884  32.0171011  37.0278358  41.0755014  90.5183125   1.5999791
  40.6210136  89.8995113   1.0283539  41.8506098  90.7790375   1.1025290
  74.8537254  87.6681042  18.0516708  74.5748281  87.5662994  17.1416807
  74.3053341  88.3746719  18.3926356  58.0820036  64.4958401  41.4775419
  58.9886141  64.7119761  41.6956520  58.1413364  63.6687565  40.9993792
  11.4258003  56.6222620  22.4621701  11.1269760  55.7707644  22.1429801
  12.2117639  56.8082523  21.9484568  38.1552577  54.6502542   9.6727502
  38.2412314  55.2895832   8.9655745  38.6103058  55.0501966  10.4138362
 104.0013611   4.7970094  75.8076735 104.7164833   5.0512685  76.3909264
 104.4243776   4.6435441  74.9628444  13.7789857  38.7149930   2.7971032
  12.8496802  38.8957500   2.9383481  14.0764046  38.3311629   3.6219963
  10.5093127  44.5428647  81.5360721  11.3473207  44.4114865  81.0925503
  10.4153997  45.4936971  81.5938755  91.1608481  70.1289357  89.4199701
  91.9987046  69.7226037  89.6416177  91.2138950  70.2885236  88.4776600
  11.2287789  79.0692510  94.4440349  10.8306390  79.6261300  95.1130674
  10.5996495  79.0744390  93.7226488   4.2248231  22.2115125  60.3112026
   4.1383678  21.3976325  60.8075495   4.2283708  22.8989972  60.9772201
  41.5517616  70.3795958  16.6775811  41.1428356  71.1702967  16.3257217
  40.8811378  69.7025967  16.5871787   0.0865608  71.3148965  62.7245565
   0.1460129  70.5301561  63.2694240   0.6119066  71.9679059  63.1869669
  99.3398535  62.9375543  84.7077926  98.8087689  63.2397737  83.9710136
 100.0263249  62.4052228  84.3057783  25.5727702  57.1676625  81.1538835
  25.0410777  57.7022542  80.5641778  25.6538087  57.6956166  81.9481941
  31.6530657  80.2359390  39.5303297  31.9630575  80.3231239  38.6289215
  31.4304352  79.3091679  39.6184587  65.5130482 107.4358940  37.8604889
  66.3849640 107.2983170  38.2307243  65.5685282 108.2875443  37.4270821
 111.1479675  78.2037152  95.1387114 111.9054400  78.7733163  95.0044489
 111.2356507  77.8973760  96.0413178  63.8417864  72.5501728  17.7119350
  63.7561798  72.6201868  18.6627245  64.7856569  72.5715494  17.5542140
  32.6416839  17.7512301   0.7331818  32.2970546  17.5980223  -0.1465840
  32.7150119  18.7033308   0.7992413  29.4923139  87.6642895   5.4595339
  30.2923727  88.0744553   5.7880217  28.9419031  88.3980751   5.1859558
  79.6977949  76.5917730  14.4035363  79.3349075  77.3392153  13.9282751
  79.5465040  76.7980862  15.3259122 104.5294255  20.7917059  40.0533915
 103.8988513  20.0722159  40.0225925 104.9934071  20.6682623  40.8814716
  45.5233622  73.1523752  24.3468356  45.6544876  73.3078051  23.4114861
  46.1871099  72.5022078  24.5769548  17.2721702  64.6206369  59.9714633
  16.7137366  65.3764142  60.1536484  18.0637437  64.9953069  59.5851202
  75.8680943  51.8363179  94.2275329  75.7480959  52.7848043  94.1805080
  75.5525633  51.5128507  93.3837082  79.8757810  39.6936358   8.5917020
  80.0832671  40.5270327   9.0143532  80.0386447  39.8497618   7.6614690
  41.6127157 105.6387520  22.2101164  42.1520424 105.9486771  22.9376483
  41.6138268 106.3638687  21.5852690  34.1921735  94.1839886  11.8814480
  34.1188622  93.2322884  11.8097985  34.3197083  94.4828415  10.9810865
   2.7629882  30.1106538  69.5623036   2.7923471  30.7719316  70.2537342
   2.1588117  29.4456376  69.8923989  88.2663154  52.8013124  77.1653791
  88.7507188  52.3154630  77.8328665  88.3370554  52.2617997  76.3778801
 102.0488583  37.2439565  94.9731144 101.3394558  37.6528634  95.4688703
 101.7285311  37.2207822  94.0714020 105.6762611  15.8670510  82.5651701
 106.5888726  15.7926263  82.2861822 105.5359327  16.8072738  82.6770742
  71.7023134  68.3759117  21.6301036  72.1080971  69.1994429  21.3592505
  71.6528368  67.8577089  20.8268285   8.6564887  74.1340256  24.6097374
   9.1510266  74.5311213  25.3266621   9.3262225  73.8044786  24.0105009
  17.5223380  30.2380933  74.3226119  16.6118032  30.4739465  74.1450353
  17.7377683  29.5916166  73.6503859  38.2527256  63.1327772  16.9416845
  38.6152506  64.0107775  16.8236911  38.1356573  63.0471468  17.8878319
 100.1037788 104.7556400  40.0692320 100.8357239 104.5961761  40.6650972
  99.9001503 105.6839848  40.1830482   0.5005914  17.0518436  90.6149484
   1.3035899  16.6203965  90.3229214   0.8039409  17.7914132  91.1414965
  30.2029157  75.7008410  32.6209521  29.8541188  75.7467461  31.7307472
  29.5172882  75.2620029  33.1245041  -0.0802964  48.8179673  87.0154508
   0.6300837  48.6553182  86.3948555   0.1067573  49.6866502  87.3713155
  54.4770575  62.8894138  33.9406633  54.0327978  62.8880787  34.7885203
  54.8210812  62.0008707  33.8491297  28.8427854  89.4318104  23.9352226
  28.7706709  88.4781170  23.9738750  29.0234089  89.6212292  23.0145025
  98.7078685   5.6076182  30.5019164  98.4870690   5.7330073  29.5790100
  98.0847329   4.9495734  30.8100033  97.4641770  10.5131186  20.5573535
  96.9399947  10.1617087  19.8376453  96.9661015  10.2950419  21.3451338
  99.3525618  40.3966177  14.5331371  99.4985789  40.9356154  13.7557113
 100.1255816  40.5467547  15.0773144  69.0314388 102.5887775   7.6283556
  69.0288639 103.5330009   7.7854085  68.8599777 102.2026443   8.4872693
  17.2361827  74.3504953   9.2284542  16.2821341  74.4262648   9.2452812
  17.5265980  74.8059654  10.0186682  75.4634899  10.0930632   9.9413341
  74.7261256  10.6475771  10.1963687  75.5241436  10.1970232   8.9917308
  55.5079412  90.1491261  33.4309483  54.6573305  90.4376221  33.1000924
  55.5512428  90.5015564  34.3198538  51.4771366  85.7086277   8.6842507
  51.6900015  86.4499378   8.1173474  51.8405533  85.9471607   9.5370448
  27.0395613  72.2393894  11.4356267  27.0328140  73.1965303  11.4436841
  27.6572299  72.0100594  10.7412720   4.4319659  51.5015687  81.9813486
   5.1999408  51.3783254  81.4234431   4.2399913  52.4373998  81.9212850
  34.0583420  77.7824306  14.1731977  33.9311671  77.0670748  13.5500419
  34.5520091  78.4409332  13.6844206  38.0977422  60.3381337  75.0629778
  38.3177930  60.5948629  75.9584685  38.8454944  60.6276597  74.5402141
  77.2057009  99.4479752  20.2690744  76.6100454  99.4433880  19.5198023
  77.2102499 100.3579903  20.5658603  72.1045536   4.4099558  30.6632233
  72.7542061   3.7571467  30.9240508  72.6108951   5.2108611  30.5276155
  62.2155046  72.7562809   7.2838765  62.5071478  73.0483484   6.4202374
  62.9336214  72.2126961   7.6080048  24.2300558  55.2473211  22.9560900
  24.1559052  54.3605661  23.3087921  23.3307433  55.5747604  22.9402494
  60.0899071   1.4010466  44.6338320  60.0104398   2.2916163  44.2920542
  59.2454213   0.9940279  44.4404125  94.1641158  18.1711138  40.3342342
  94.3870467  17.2647990  40.5466700  94.3609351  18.2537783  39.4011426
  38.0962253  67.8939581  12.4501574  38.3292365  68.7962532  12.2315276
  38.6356902  67.3593903  11.8675363   6.0052621  60.8285761   0.6473918
   6.8428200  61.1234570   1.0048449   6.1417925  59.9018145   0.4506505
  66.1955595 107.9664612  29.3601608  66.1117554 107.6483440  30.2590537
  66.2175798 107.1723747  28.8261390  81.5272921   6.7529810  51.3507605
  81.8854779   7.6401652  51.3218832  81.6948956   6.3984812  50.4775620
  65.4113048  22.2502936  12.4735868  66.3081497  22.0342673  12.2181761
  65.2806729  23.1439913  12.1566117  11.4694577  22.4023523  77.7501507
  11.2425834  22.6028766  76.8421050  10.9033853  21.6659440  77.9814382
  17.2129464 100.0679588   7.0471692  17.9350042  99.7778034   7.6045525
  17.6406491 100.4571342   6.2843806  11.1577141  85.5803204   5.9840280
  10.4479110  85.8096123   5.3841639  10.8432102  84.7996426   6.4399576
 104.6552884  74.5467271  93.6744546 104.7480356  74.8619832  92.7754305
 105.3550588  73.9014711  93.7753870   6.8175298  63.5768403  88.5681929
   7.1803933  62.8527059  89.0782900   5.8727103  63.4234704  88.5731460
   1.8744212  52.1198072  79.0705259   1.2993747  52.4983682  78.4055109
   2.6244336  52.7135553  79.1047283  74.8214191   6.1585749   4.0704513
  74.4551486   5.7263983   4.8420078  75.7154936   5.8222331   4.0093419
  71.7484874  15.3939951   2.8948113  71.0685486  15.9403170   2.5005323
  72.1251434  14.9118556   2.1586722  54.3511200  97.5879002  32.6159430
  54.8111486  97.9740810  31.8706417  54.1438580  98.3320522  33.1812000
   4.3389922  55.9442987  90.1332630   4.2664987  55.5205430  90.9884857
   3.5565597  55.6625737  89.6592762 108.3290929  14.9354018   2.8349718
 107.7699822  15.2057017   2.1065746 109.1619319  15.3793467   2.6751825
   4.9459439  42.0478238  86.1760225   5.2998429  41.3574781  85.6152971
   5.4740506  42.0032205  86.9731100  87.7462596  16.3715685  18.4351051
  87.4076337  15.6322421  18.9400291  88.2249993  16.8990553  19.0744829
  72.9200649  91.1253452  35.3846931  72.5590086  91.1683178  34.4992423
  73.2852554  91.9969368  35.5369949 106.5358459  56.4761438  92.8837045
 107.4658214  56.4712323  93.1103127 106.2221395  57.3312654  93.1779459
  37.1988630  90.1238632  12.2362602  36.5755677  90.5961895  12.7882040
  36.6560531  89.5357132  11.7112148  80.9432525  12.3840178  40.3226709
  81.6907138  12.5204600  39.7405100  80.3311604  13.0837000  40.0945854
  55.9678650  53.2757139  14.6440566  56.0275269  52.3321819  14.7937870
  55.9728909  53.6582518  15.5214798  71.5098566   2.3814715  22.6360393
  70.9528798   3.1537379  22.5379968  71.1753124   1.9426192  23.4181643
  62.9740906  93.8194180  22.6939631  63.7253141  94.3077946  22.3572493
  62.8983545  94.0960884  23.6071706 101.6702067  43.1262864  93.2258876
 101.2147390  42.7879228  92.4549850 101.7086684  44.0723314  93.0853206
  10.4164505  72.8793335  33.9428616   9.7358322  72.2064972  33.9259577
  11.2148368  72.4189425  33.6843038  31.7915058  90.6019974  30.2952409
  32.1052289  90.0001526  29.6202707  30.8394074  90.5971813  30.1966643
  37.7447581 107.9996300  15.3136718  37.3319101 108.1287289  16.1675572
  37.0441389 108.1616974  14.6819305  34.2790699  94.1950417   3.2105640
  34.0777969  94.1507626   2.2758125  35.2230382  94.0442467   3.2597139
 109.5481526  41.7938031  77.7434679 109.1368186  42.6579465  77.7606006
 110.3196513  41.8846502  78.3027251  14.5710927  72.9872121  70.4694744
  14.8441058  72.2312917  69.9495740  15.3310233  73.5691919  70.4633208
  55.2155644  25.3841818   3.2786968  55.2475566  24.5665205   3.7753111
  56.0219723  25.8412112   3.5175836   9.4832259  66.7938317  94.7441258
   9.2016965  66.7440309  93.8306208  10.0286609  67.5794019  94.7841749
 100.0139302   7.9288329  31.2629461 100.4844827   7.9876269  30.4314661
  99.4262999   7.1812476  31.1532664  66.8158627 109.6271610  46.9503450
  66.7798805 110.2995586  46.2700367  65.9135723 109.5521927  47.2609663
  90.7352769  21.8367709  82.9204174  90.5898201  22.7580919  83.1354375
  91.3363194  21.8566217  82.1757122  95.3871316  15.3579653  34.5777416
  94.8375672  15.0163592  33.8723969  96.1059731  15.8018054  34.1277313
  65.1559734  76.5631771  36.3837171  65.2090502  75.6111479  36.2997246
  64.5888519  76.8360043  35.6624889  97.7351827  20.6357802  27.3987818
  98.6346215  20.8037318  27.1176362  97.5287408  19.7733153  27.0385671
 101.5664309  14.8203124  44.3231821 101.1461085  13.9603365  44.3218565
 100.8656091  15.4290713  44.5566177  30.9483910 109.1375923   3.1547514
  30.9425282 109.4562817   4.0573227  31.0241699 109.9290657   2.6217753
  53.8086939  74.8440933  37.8518319  54.4185209  74.1253662  37.6851797
  53.5186005  74.7078037  38.7537742  88.9760208  89.4627285  10.7202697
  88.9234543  89.7247791   9.8011410  88.9675617  88.5058403  10.6973696
  21.1913538  71.5439939  18.3085632  21.7788148  72.2101831  18.6653733
  21.6229677  70.7129812  18.5069644  16.8291616  64.9037409  11.7497540
  17.6494658  65.2974367  12.0469701  16.4361751  64.5409441  12.5435865
  67.1450090  31.8887663  10.7782483  68.0510378  31.7735410  10.4917800
  66.7141342  32.3221087  10.0415015  25.5369925  22.1311831  13.5826623
  25.1751137  21.8392158  12.7459848  25.1092196  21.5767002  14.2351890
  83.6156576  93.4051109  91.5596922  82.8093880  93.2579017  91.0652320
  84.0523546  92.5533486  91.5648557  25.6351352  93.9258957   8.6854810
  24.6961689  93.7780476   8.5727108  25.9407830  93.1621265   9.1748357
 102.6846492  14.5797099  57.6080795 102.2952687  13.7098827  57.5185724
 103.4730303  14.4364776  58.1316944  85.2883994  33.8523854  77.7086039
  85.0362616  34.7685136  77.5929447  85.9620135  33.7037458  77.0449896
  10.2416182  49.2182684  33.1638646   9.9631017  50.1212788  33.0114365
   9.9254131  48.7377167  32.3988056 109.6879041  34.1007699  93.6517810
 109.2177593  34.6000089  92.9839860 110.3252732  33.5833635  93.1595548
  16.8014127  41.2656488  84.5291729  17.0915967  42.1307172  84.8184259
  17.0995408  41.2040605  83.6216696   0.9372588  62.7966499  14.2144072
   1.5360814  62.1928501  14.6538043   0.2118708  62.9045868  14.8295450
  10.4538178  41.1097860  44.6414042  11.1615264  41.6889572  44.3586636
  10.6054831  40.2948999  44.1626644  24.0402484  29.5396543   5.0406647
  23.0881000  29.5520973   5.1380861  24.3596792  30.1148891   5.7358646
  73.3450699  43.4965801  16.1501360  73.3094454  43.1516457  17.0423150
  73.5541344  44.4241714  16.2601399  10.5678922   4.4036426  88.9995881
  11.0167533   4.0403833  89.7630014  10.5964929   5.3510322  89.1332604
  91.7724215   7.0048465  85.0593384  92.5637471   7.1057929  84.5303340
  92.0405983   6.4434375  85.7867535   5.5292398  42.1841516  52.8448053
   5.4658013  43.1382550  52.8884550   5.2805739  41.9684495  51.9459911
  57.5651884 102.2402287   4.6254465  57.4367857 102.1354866   5.5681944
  58.2080030 101.5693760   4.3952805  98.4435093  20.6117334  84.6164806
  98.9022505  19.8636283  84.9987467  98.4516751  21.2755527  85.3060515
   4.1124660  47.1388807  70.0502606   4.3390685  46.3853635  69.5051904
   3.8668471  46.7590417  70.8938427  26.9859362  45.0005150  14.4352245
  27.2589993  44.6064186  15.2636898  27.7942419  45.0763655  13.9281559
  22.0103615 104.7043610  60.4815479  21.2496775 104.4087363  60.9817453
  22.7605121 104.3269063  60.9409328  69.1907597  86.2601471   6.1533493
  70.0564766  86.0007095   5.8379757  69.3570757  86.6626358   7.0057422
  11.5410691   1.1371221  60.9352847  10.9162885   0.7050552  61.5176888
  12.3934871   0.9851875  61.3433691  56.3066816  99.1323185  19.1342282
  55.4588652  98.8308811  18.8077593  56.7390394  99.5076370  18.3671343
 110.2970945  20.4603948  75.7728787 110.5821502  21.0364761  75.0635787
 109.7484695  19.8044147  75.3428407  41.7647648  58.8500690  16.0938585
  41.0641909  58.2958508  15.7499492  42.1093750  59.3049765  15.3253961
  18.9702666  53.6636591   5.8367991  19.4001496  52.9176140   5.4186535
  18.2490778  53.8855124   5.2478182  79.5383171  30.8041753  94.1172993
  78.7870781  30.4228582  94.5716877  79.6245275  30.2837648  93.3185645
  28.1232357 105.8801270   3.6994112  28.6772323 106.4602375   3.1771165
  27.6211405 106.4703560   4.2613447  50.4038804  90.3059626  70.7244416
  50.1215296  89.5080901  71.1715575  50.9377115  89.9947358  69.9934192
  87.9616188  27.2942533  74.5960827  87.3714798  26.9074907  73.9492579
  88.8388573  27.0853986  74.2750450  15.0964987  64.4856596  17.6970696
  15.4247165  65.2912235  18.0965388  14.2396283  64.3496656  18.1014335
  91.4139908 103.3305360  68.9171882  92.1316784 103.9626456  68.9571281
  90.7758253 103.6521674  69.5540019  20.4647636  73.7003374  23.7326980
  20.1917887  73.3487892  22.8852725  21.1383820  74.3457699  23.5184932
  40.5522728  65.2960825  34.9304557  40.3392839  64.5080280  35.4302955
  40.9897614  64.9699545  34.1440248  82.2642576   7.0558204  90.5622824
  81.8409752   7.4075593  91.3454448  83.1286716   6.7752303  90.8627631
  82.4967957  56.8967772  12.6458549  83.2131386  56.2708616  12.7522492
  81.7315102  56.3546562  12.4543548  46.0171509  51.3441467  12.0462680
  45.4651690  51.3482666  11.2642610  46.4828634  50.5088329  12.0063150
  64.9470139  49.5020342  28.1809711  64.1619301  49.1644192  27.7498150
  65.1444435  50.3153038  27.7163792  26.4891273  20.9975614  86.4003362
  27.4357921  21.1372794  86.4236452  26.2411576  20.8837403  87.3178251
  41.4330578  41.3306427  28.0873847  41.1409426  41.4700222  28.9882016
  40.6297874  41.1446953  27.6011658  37.7914953  82.9153347  18.9355075
  37.7791619  83.0555630  17.9887140  36.8764734  82.7541542  19.1656995
  21.1950445  56.1771488  33.1437302  21.5188742  55.9744835  32.2660661
  20.9440875  55.3284311  33.5083318  34.6408534  81.2720013  26.0339475
  34.5537257  81.8330956  26.8045449  33.8538504  80.7272530  26.0441017
  13.1078351  55.9413862  56.0735273  13.9348924  55.6945896  56.4874125
  12.9560542  56.8420267  56.3599491  26.6306859  16.1289443  88.4326674
  25.9507018  16.5493478  88.9590849  26.4786130  15.1911678  88.5496326
  97.2907149   8.1946315  51.0960289  97.9746615   8.0415858  50.4440876
  96.4736091   8.1595983  50.5986972  49.3929434  54.7113371  14.8220360
  50.0183821  55.1868582  14.2752826  48.7204742  54.4108009  14.2107272
 110.8496380  80.4366016  15.3243947 110.7581711  79.4841003  15.2996874
 109.9537277  80.7609558  15.4159045  70.8331203  84.9249744  35.8266854
  71.1840343  84.0438175  35.9557796  70.2844143  84.8522186  35.0457501
  61.5191460  78.0956650  26.7083716  62.0144033  77.4682188  26.1818147
  60.9595156  77.5530863  27.2639394  60.7796018  98.3271933  87.6395585
  60.6828182  97.4630404  88.0396886  60.6244867  98.9419223  88.3566918
  98.9316904  15.5397119  64.9551793  99.0698182  16.4481343  65.2233596
  99.2012321  15.5174197  64.0369840  25.8187890  46.9018793   3.2988724
  26.3388228  46.2760401   3.8029784  24.9165082  46.5979147   3.3975095
  91.8497752  53.7532129  62.4211951  91.2501597  53.7732114  61.6753431
  92.6797306  53.4499063  62.0532151   3.8404933  51.5412331  16.9447708
   3.8394862  52.4219131  17.3197818   2.9302609  51.2522650  17.0096099
  51.7849159  50.8203697   5.8279639  50.8419847  50.6706190   5.7594782
  51.8648577  51.5906477   6.3905585  88.6938953  18.2439269  63.6578389
  88.2924067  19.0991534  63.8115354  88.1674563  17.6355161  64.1764279
  52.9338694  39.6456003  12.4940574  53.6696434  39.0406537  12.3996460
  53.1948185  40.2310038  13.2050025  27.3629379  74.3816948  13.6966074
  28.1755757  74.0354395  13.3278835  27.1254420  73.7568474  14.3817306
 116.9617283  51.1922921  88.5766144 116.2578451  51.4206685  87.9694720
 116.7410719  51.6559304  89.3844386 107.0150530  10.7976093  73.5505219
 106.6408049   9.9793615  73.8770767 107.3935186  11.2137737  74.3249913
  17.8002262  61.2659121   6.0282105  17.1124315  61.8919277   6.2546486
  18.1801081  61.0127401   6.8695354 116.8025589  72.7239275   7.9364067
 116.7935479  71.7675638   7.9753840 116.8060144  73.0009556   8.8526350
 116.3631856  12.6904334  92.5189816 115.7712280  11.9427289  92.6012074
 116.3012325  13.1388511  93.3623760  62.4204206  51.9086552  25.9030771
  62.6897955  51.9027567  26.8215728  62.0255232  51.0479164  25.7637548
   9.2104846  12.6668586  92.3967625   9.9050647  12.3007096  91.8492930
   9.4691640  12.4459352  93.2914739  22.6479483  61.9140816   1.1005366
  22.4231696  61.0936594   1.5394112  22.8059292  61.6633606   0.1903658
  94.3243568 100.5871058  48.0165239  93.7783878 100.5194283  47.2332187
  94.0829819  99.8252059  48.5432811  68.0718421  26.3406266  87.6339366
  68.7509494  26.9398107  87.3240622  68.3183884  25.4903497  87.2699703
  20.9499598  61.3611078  10.8941078  20.4382181  61.6751957  11.6395628
  20.5801702  60.5009365  10.6951284  42.0133829  91.9814968  15.2759302
  41.9170284  92.9225063  15.4223895  41.5526485  91.8188000  14.4528365
  32.9703403  87.1525097  19.4978666  32.2724771  86.4996243  19.5522785
  32.7701211  87.7758694  20.1961279  70.1538794 109.4181443  68.4624382
  70.0030463 110.1526786  69.0573712  71.0016411 109.0633298  68.7300869
  34.9299932  66.6376972  50.8140039  34.2197800  67.2372389  51.0428762
  35.2229667  66.9316339  49.9514484 116.1956059  26.8052854  88.6541845
 115.9275400  26.9098462  87.7412547 117.0450722  26.3667859  88.6056604
  89.6762085  67.4643135   9.6663499  88.9907646  67.2321987  10.2928615
  89.7925282  66.6762066   9.1356957  21.8780446  94.4913864  25.8939719
  22.0496607  94.1870594  25.0028110  21.2163568  95.1752281  25.7902789
 115.4083049   0.9815015  73.3455439 116.0310303   0.3192605  73.0457468
 115.3650128   1.6123094  72.6269074  29.3932563  13.7827577  85.8256419
  28.5038167  14.1349544  85.8586539  29.9582845  14.5511235  85.9068473
  39.1846275  43.7835503   2.3013276  38.7795424  44.6488523   2.3595554
  39.1843009  43.5814095   1.3657153  61.7866087  53.6325455  30.1345301
  61.3861704  53.4848404  30.9913063  62.1954679  54.4950151  30.2067232
   8.5722601  45.4399538   2.0448674   9.4917911  45.1741171   2.0499304
   8.1453586  44.8145580   1.4593202  31.2381506  55.5740404  38.0462861
  31.1261249  55.2177525  38.9276147  32.0345807  56.1021948  38.1009030
   2.6159078   9.3686046  85.3604002   3.1907254   8.9714469  86.0146810
   1.8943435   9.7389640  85.8687420  42.2045135  88.9440632  23.0986619
  41.2552929  88.8432884  23.0275726  42.5505447  88.5096645  22.3190522
  79.9518650 102.7032757  75.9719773  79.1504257 102.5950242  75.4599185
  79.8061579 102.1779967  76.7587967   7.4398166   7.6493873  79.6055813
   7.7930862   7.3579730  80.4461248   6.8318301   6.9563665  79.3480881
  28.1621909  54.6415997   6.3451743  28.2849932  53.7715387   6.7248344
  27.3682022  54.5623302   5.8164692  59.8043871  47.0780945   9.5451748
  59.3483353  47.4495792  10.3003240  59.9911547  47.8307867   8.9840972
  53.6885541  98.0146552  92.6196675  53.3398729  98.3868552  93.4296809
  54.3886249  98.6145783  92.3623268  12.8789455  11.0305156  88.9088078
  12.9561549  10.4560937  89.6705885  12.3461753  10.5341138  88.2875396
 114.0401613  26.1923303  71.4327736 114.5364391  25.6043042  72.0021291
 113.4040415  25.6243791  70.9980102  78.5406971  74.7240162   7.8403348
  79.1794443  74.2313433   8.3556098  77.7590990  74.7531414   8.3921391
  21.5793305  38.3737745  95.5150194  21.9869739  37.6425161  95.0509941
  21.3868362  39.0144242  94.8303742  50.2698374  57.8079748  39.0824413
  49.4445801  57.3351336  38.9747262  50.8744431  57.3748732  38.4798574
  74.1686832  39.7457399  76.6851969  75.0952270  39.9728765  76.6067226
  74.1357677  38.8070096  76.5009852 112.9133260  17.9956378  91.7644857
 113.7926041  18.2214679  91.4609994 112.3945867  17.9234590  90.9632792
  33.7286043  71.9788265   7.7384186  33.0216265  71.3372564   7.8077567
  33.7934566  72.3593712   8.6143243   0.2760011  38.8391008  93.6618713
   1.0752946  39.2198266  94.0257602   0.5853683  38.1557740  93.0672379
  33.8308358  72.6249552  33.5592985  34.0017915  73.5323572  33.8115358
  33.1676292  72.3245144  34.1806865   0.7491744   4.3510855  24.2846370
   0.0844825   5.0219286  24.4407654   1.5528024   4.7203864  24.6507311
  16.8376094  40.0776948  77.7217694  16.6056186  39.2852391  78.2059331
  17.1422511  39.7587861  76.8722291  14.9653798  21.5965308  84.6314676
  15.2863914  22.4711122  84.8512156  14.5518809  21.7014636  83.7745901
 114.4988715  22.6092662  89.0452452 114.2141330  23.0919923  88.2692750
 114.1251194  21.7350949  88.9340259  96.5838360  32.3202314  49.9826618
  97.0214116  31.6301908  49.4840570  95.6644379  32.2562780  49.7241064
  23.8540965  10.9350433  83.0635519  24.1521150  11.8420829  82.9950293
  23.2699519  10.9315004  83.8218327  10.8174640   6.3112010  57.6578112
  10.0055104   5.9187545  57.9786702  11.4789468   5.6312312  57.7855297
  28.5606241  99.6235752  26.3529754  28.0539966 100.1998520  26.9252229
  29.4343042  99.6059132  26.7436218  46.7380238  88.8315296  23.6483002
  47.3535252  88.9253521  24.3753386  46.4965248  87.9053307  23.6569428
  84.8181820  63.6968660  33.4735107  83.9331913  63.8400555  33.8089323
  85.3899670  63.8882351  34.2169356  49.1912317  42.5561857  22.3348665
  50.0765896  42.3279238  22.6181841  49.3170404  43.0234909  21.5090132
  49.3296099  95.2296734  31.7363310  49.2995977  95.6155968  30.8608937
  49.3461227  95.9811878  32.3289418 107.2330987  69.9439611  59.3212886
 106.5902650  69.2456617  59.1973229 107.3464667  69.9994649  60.2701302
 115.0037252  18.7128104  73.0435796 115.0243103  18.9862050  73.9606734
 114.6347558  19.4634332  72.5781079  66.0432445  28.7961187  83.9911886
  66.9446408  28.7673368  83.6704298  65.5065369  28.7848176  83.1986936
  69.8056746  73.7147474  29.7218037  70.6039143  73.1918287  29.6469569
  69.6791315  74.0850353  28.8482428  22.7329522  47.7308263  35.8276077
  21.8894464  48.0542649  35.5112024  23.3558303  47.9776849  35.1440092
  38.3825046  32.6809301  84.4225879  37.8324491  31.9190110  84.2405375
  38.2731944  32.8365983  85.3606995   2.9350358  31.9207753  76.4002498
   2.4919349  31.0723294  76.4049883   3.2341558  32.0297326  75.4975386
  90.6120586  40.6336965  92.8599279  90.2831697  39.9900617  92.2323917
  91.2093984  40.1383104  93.4202926  10.3341180  51.9291867  77.6029106
  10.5076200  52.7168836  78.1183310  10.2685863  52.2427835  76.7009147
  87.5168722  65.4377461  76.1549099  86.7810219  66.0199881  75.9658273
  87.5182884  64.8108710  75.4315444  29.2563772  63.0104399   1.5594426
  29.8414612  63.1529093   0.8153904  28.7056899  62.2740507   1.2935366
  17.1091205   1.9503059  64.5220585  17.3675138   2.0095910  65.4418154
  16.4853746   1.2247504  64.4947954  18.0968761  88.0581188  11.8315983
  17.2508323  88.4968662  11.7424774  18.0815303  87.3707199  11.1656570
  14.5879221  59.9608564   1.6489829  14.7842681  60.6810570   1.0498232
  15.3612375  59.8980856   2.2095850   6.7997515 103.7105323  68.9829274
   6.2735331 104.4529868  68.6861344   7.6712382 104.0781642  69.1298743
  55.2183771  97.8821850  14.3400228  54.9375677  98.3864689  13.5764313
  54.7186136  98.2516098  15.0680268  23.9624005  47.2166242  89.5108862
  23.7744552  47.2299852  90.4493584  23.6996013  48.0835332  89.2016275
  30.5958533 100.9109783  11.9993782  31.3955259 101.2496090  12.4019766
  30.0315237 101.6783905  11.9053578 101.7790479  11.3597811  18.9295530
 101.1909646  10.6775797  18.6055315 101.2179965  12.1275748  19.0388668
 115.9611403   0.1841726  68.4867020 116.4747106  -0.6197034  68.5658260
 116.5491521   0.8023109  68.0526729 112.9819094  45.1520719  55.4856177
 112.9754268  46.0776414  55.7295819 113.4312856  44.7165956  56.2099500
  17.7993899   3.7571134  87.6276995  18.4280759   4.4150962  87.9244210
  18.2548648   2.9227723  87.7401562  97.1209019 106.8421031  68.0697270
  97.7711075 106.4052439  67.5196214  96.2829130 106.4763594  67.7864619
  86.3481920  94.9009133  77.3177989  87.1677225  94.4106127  77.3826929
  86.1422174  94.9004961  76.3830240   5.6415874  15.7811393  74.2036362
   6.3277083  15.1255979  74.3290992   6.1160689  16.5956105  74.0371056
  23.2147479  75.8103609   0.4554120  23.8698792  76.3618040   0.0276916
  23.7235999  75.1207590   0.8817357   6.6288262  53.2010736  77.9075225
   6.7229348  52.8074445  78.7749501   5.8331090  52.8065767  77.5505336
  85.1533413  77.8909206   2.1629387  84.8950863  77.0323801   1.8276112
  86.1102676  77.8773642   2.1443644  44.9467564 108.9497185  30.1625490
  44.9653959 108.9768124  29.2059135  44.1778898 108.4195042  30.3722024
   7.3362380  43.7383832  73.7033577   8.1887704  43.3111943  73.6201067
   6.7629701  43.0610551  74.0622778 112.5630557  34.2177381  68.9902325
 112.1669876  35.0311841  68.6777015 112.0322334  33.9680471  69.7466155
 114.0797036  79.4334412  11.4015746 113.8676565  80.0754452  12.0791435
 114.8835250  79.7645807  11.0010147   4.8495561   0.8101834  79.9753793
   4.9995881   0.4191770  79.1146620   3.9248544   1.0573901  79.9682518
  71.9933891  68.7365055   3.3267516  71.2291670  69.1873693   3.6858079
  72.0978975  67.9634333   3.8814256 104.3519985  41.0858049  67.0952983
 104.4750010  40.3024282  66.5591712 105.0138294  41.0118188  67.7828594
 108.1402504  13.9691343  63.5947366 109.0571176  14.0079202  63.8669200
 107.6454365  14.0135946  64.4129153  12.9715711  43.7389268  76.0882409
  12.6778489  42.9492559  75.6339581  13.9253169  43.6610975  76.1115523
  12.8337318  31.6860475  90.7992692  11.9896251  32.0790471  91.0212253
  12.8212195  31.6148748  89.8448010 113.6835419  29.2508115  77.2155412
 113.0494463  29.2104043  76.4996346 114.5121156  28.9847459  76.8169089
 103.7122928  24.5585241  67.1000476 104.5814430  24.6379317  66.7069765
 103.6557471  25.2962674  67.7073093 112.0338308  34.9250879  57.4756475
 112.3661076  35.8225335  57.4553819 112.3175084  34.5837487  58.3237310
  35.4981166  14.9646415  85.4664679  35.8376103  15.8596124  85.4695459
  35.1416904  14.8406591  86.3461383  38.7543559  76.8886232  17.0179582
  38.3399034  77.7292871  16.8236828  38.9539003  76.9304180  17.9531956
  95.3605723  57.1083059  89.1061540  94.8746120  57.8983392  89.3426605
  95.8094489  56.8529596  89.9120923  30.9968042  52.8480864  26.1681032
  30.3015089  52.8352976  25.5103564  31.7307329  53.2813883  25.7324076
  14.1880828  11.5412845  74.7016736  14.8638183  11.2717189  75.3237291
  13.8076716  10.7199182  74.3904253  39.8739862  57.1391344  15.3541803
  39.7427988  56.2271214  15.0948501  39.3499351  57.6429605  14.7314739
  45.5606508  78.7170935   2.5043678  45.3850269  78.0448055   1.8460250
  46.4682007  78.9766026   2.3454931 104.7497451   5.5836095  90.2810987
 105.1231658   6.0989513  89.5661099 105.0252163   4.6853389  90.0981714
  50.6891060  88.0341434  26.3022280  50.6091833  88.9794159  26.1745024
  51.3695955  87.7657318  25.6848788  71.7889643  60.7575178  23.4815693
  71.9607973  60.5092812  24.3899107  70.8630466  60.9999847  23.4705973
  98.5677826  77.1635331  76.0821267  97.6615285  77.2782792  75.7961722
  99.0175020  76.8076028  75.3157754  45.9725475  65.2943325   1.6498999
  46.4926386  66.0529804   1.3849749  46.4703560  64.9011850   2.3667338
  95.5402123  29.0445222  82.5176020  95.8361887  29.7016229  81.8876381
  94.6258449  28.8839330  82.2844179  58.6244822  93.6666584   2.5206289
  58.9494276  92.7868557   2.7119219  59.2024231  93.9904785   1.8297203
  21.3423806  19.2776527  89.6749427  21.5513164  20.2024259  89.5431431
  20.5027038  19.1562833  89.2317201  58.0272961  85.1259804  25.6761527
  58.1134844  86.0668850  25.5228877  57.9002237  85.0479698  26.6216683
  25.0111246 108.3535194  12.4175966  25.5985522 107.5980663  12.3960972
  24.8657084 108.5173988  13.3493841  94.5464998  87.2588539   2.7565652
  93.9983826  86.7170429   3.3242306  94.7309356  88.0407238   3.2770410
 114.5679008  15.3014030  72.7136298 115.4389393  15.4714860  73.0722352
 113.9666187  15.5608739  73.4117456  33.4701663  17.5744094  69.4909640
  33.9227420  18.1702604  68.8939972  32.6525289  18.0241765  69.7040625
  52.9789543  95.0759029  23.8184309  52.9260397  94.6144772  22.9814577
  53.2489204  94.4047737  24.4452739 116.1534964  40.2940358  73.8483305
 116.8487489  39.8672475  74.3490358 116.5859448  41.0324086  73.4193488
  14.6133804  64.2276335  26.8157887  15.5390048  64.1390514  26.5886164
  14.2438912  63.3587837  26.6582584  47.1397232  86.3455034  76.4603515
  47.7116936  85.5783869  76.4355143  47.2142105  86.6708565  77.3574741
 107.3075568  45.7157983  36.6457983 107.8696858  46.2992181  36.1360260
 107.8243243  44.9170007  36.7511793  63.5928679  99.6290398  30.1617384
  64.2545414 100.0707245  29.6294403  62.7593565  99.8753071  29.7606897
  33.0167228  39.4900979  89.2559757  33.3706933  40.2350892  88.7702580
  33.7544852  38.8858976  89.3389048  17.1731883   0.7635822  85.1553758
  17.1856958   1.3938369  85.8756901  16.7338782  -0.0057374  85.5178566
   1.9515863  56.8058491  13.4382832   2.8559247  56.6828060  13.1497264
   1.4465670  56.8600273  12.6269555  13.7198043  72.8873062  17.4338889
  14.4290268  73.2570791  16.9080532  14.1633165  72.4516726  18.1617308
  44.9133187  63.0911340  84.5960136  45.6690293  62.7093209  85.0425036
  45.1292687  64.0197934  84.5111592   1.4086081  67.6071262  20.6679344
   1.7831461  67.4444580  19.8022020   1.9017056  67.0329666  21.2539601
  75.0745773  85.1600170  32.3066735  74.3074656  85.3888035  32.8314900
  75.1819086  84.2178822  32.4374342  24.3389487  94.1297817   4.0928826
  23.8897395  94.0719891   4.9361515  23.6570859  94.3958092   3.4760153
  34.0411979  14.1669883  51.7497726  33.7506085  13.5184135  52.3909708
  33.2926160  14.7546758  51.6474100 102.8046768  86.9157983  89.6441050
 102.6224964  85.9960342  89.4515528 103.7537496  86.9521476  89.7631551
  77.3456430  81.0739040  26.7972612  77.6619577  81.6771412  27.4697781
  76.6618681  80.5657959  27.2337365  52.3667519 109.7187281  67.1955080
  51.7758136 110.3234626  67.6441951  53.1987851 109.8078299  67.6602788
  17.6561481  12.8707971  76.0618265  17.6675349  12.6097335  76.9826682
  18.2913476  13.5847940  76.0074242  42.7447081  66.6432142  20.8252072
  42.1901846  67.4187946  20.9101033  43.2382441  66.6107750  21.6447186
  86.9523399  97.2662974  69.3313714  86.8596094  97.8840543  68.6061092
  86.6250437  96.4370061  68.9829607  76.3764048  65.8260870  34.2826772
  76.1480951  66.6352558  34.7402310  75.5335379  65.4298830  34.0617204
  34.9055576  84.1316986   0.2363564  34.0137935  84.3407154   0.5143916
  35.4445338  84.3088818   1.0072925  78.4132188 102.8159476  83.2776518
  77.9920714 102.7224160  82.4231823  78.3012240 103.7402106  83.4999855
 116.9356304 116.9356304 116.9356304 109.4712190 109.4712190 109.4712190
