
32528  0.0000000e+00
  45.3729916  30.8490729  44.8249054  44.9511242  30.5693984  43.9508820
  46.3433409  30.5696225  44.8456240  45.1785803  31.8400359  44.8421144
  44.6532393  30.0553846  45.8868265  43.5879993  30.2395892  45.7474232
  44.7666883  28.5338783  45.6719494  45.7094908  28.2088780  46.1119604
  43.9055872  28.0214596  46.1009312  44.8340702  28.0107522  44.2808151
  44.4209146  28.6979842  43.3477688  45.1871157  26.8246174  44.0938473
  44.9556684  30.6597328  47.2705746  46.0983038  30.6927705  47.6684952
  43.9216900  31.0951757  47.9689503  43.0194712  31.1464500  47.5178671
  44.0061522  31.5298891  49.3865871  44.9716473  31.1985350  49.7688437
  44.2199993  33.0770278  49.5749569  44.3189240  33.2634640  50.6443310
  45.4916620  33.5586214  48.8874531  45.4211426  33.3084941  47.8288841
  45.6578588  34.6257758  49.0346384  46.3323879  33.0871320  49.3963575
  43.1416416  33.8060713  49.0911674  43.0903387  33.9058280  48.1377459
  42.9152966  30.9488606  50.2896070  42.9137182  29.7879529  50.6570816
  41.9546175  31.7601752  50.6865931  41.9308758  32.6975131  50.3111839
  40.7931900  31.2696695  51.3964176  41.0860777  30.5613828  52.1714306
  40.1085520  32.4458742  52.0639038  40.7824993  32.9168224  52.7795172
  39.8354864  33.1559992  51.2833548  38.9987087  32.0560241  52.7771235
  38.6142898  32.8901100  53.0566263  39.7930694  30.4636431  50.5284357
  39.6222687  30.8708620  49.4101048  39.2051220  29.3760800  51.0736275
  39.1084385  29.3262124  52.0777512  38.3049631  28.5411954  50.3037786
  38.7865162  27.7366066  49.7480392  37.4278045  27.6222301  51.2863779
  38.1496978  26.9969153  51.8116903  36.9375038  28.2825518  52.0016956
  36.3618016  26.6765475  50.6295681  35.7218194  27.3210716  50.0269747
  36.9781947  25.5336547  49.7718048  36.4804864  24.5877981  49.9856806
  36.9556379  25.8551288  48.7305307  37.9784632  25.3431869  50.1607609
  35.4088664  26.0789990  51.7204332  35.9672713  25.3153014  52.2617769
  34.9914002  26.9060040  52.2947884  34.5934796  25.5813217  51.1954880
  37.3826838  29.3622136  49.3028164  37.2538066  28.9162040  48.1998205
  36.6941810  30.4524279  49.6331835  36.4085174  31.0235190  50.9747028
  37.1432757  31.8058896  51.1647797  36.4442706  30.3182125  51.8049812
  35.0189066  31.6709542  50.9969521  35.0898600  32.3270750  51.8644619
  34.2086005  30.9434533  51.0443115  35.0814414  32.3147035  49.6262360
  35.7887220  33.1428385  49.6715117  34.1193533  32.6273942  49.2203951
  35.6230569  31.0469365  48.7790823  34.8367357  30.2927923  48.7464380
  35.9454370  31.3742137  47.3022795  35.1249576  31.2562513  46.3633394
  37.2144890  31.7855310  47.1119213  37.8389502  31.6259551  47.8895426
  37.7530861  32.1001720  45.8176661  37.0857620  31.7978787  45.0105762
  38.0509734  33.6631298  45.6804895  39.0452170  33.8764453  46.0730267
  37.9756618  34.1363573  44.2475080  38.6444879  33.6688089  43.5248899
  36.9701385  33.8931608  43.9041758  38.1003213  35.2186894  44.2140198
  36.9845271  34.3444371  46.3309193  36.2633872  34.2840195  45.7001209
  39.0538120  31.2823606  45.4744196  39.7876620  31.6651678  44.5804119
  39.4361615  30.2291656  46.1893129  38.9156628  29.9818611  47.0187855
  40.5434084  29.3520427  45.7822371  41.4656019  29.9022055  45.5952072
  40.9013128  28.3689594  46.9556284  40.0565338  27.7941370  47.3351431
  41.5864706  27.6126170  46.5727377  41.6247559  29.0531659  47.9604387
  41.0486698  29.6593690  48.4318686  40.2719116  28.5549808  44.4881010
  41.2370920  27.9931831  43.9379263  38.9967966  28.5556865  43.9871120
  38.3355999  29.2368197  44.3320417  38.6272240  27.7510786  42.7826643
  37.5644255  27.7926469  42.5442743  39.3698621  28.2917953  41.5196466
  40.4370975  28.0711627  41.4989090  38.9296985  27.7986336  40.6529570
  39.1608191  29.8183084  41.3839293  37.8604078  30.3678870  41.1734867
  37.9516506  31.7460966  41.2090158  37.1872234  32.4975276  41.0771132
  39.2758799  32.0449257  41.3982439  39.7535372  32.9265428  41.5194702
  40.0265598  30.8913898  41.4303970  41.0813189  30.7667398  41.6262197
  38.9645672  26.2121248  42.9779100  39.6212292  25.6294489  42.0823240
  38.4705853  25.5983186  44.0651560  38.0814719  26.2291193  44.7512960
  38.6632061  24.1743779  44.4289398  39.6845269  23.7996483  44.4967270
  38.1548595  23.9839196  45.8568287  38.2191253  22.9370451  46.1535120
  38.9979148  24.6822929  46.9666481  39.9643254  24.1784596  46.9492626
  39.0950084  25.7474899  46.7568111  38.5638571  24.5494604  47.9576302
  36.9056845  24.5211244  45.9614754  37.0455861  25.4308724  46.2342358
  37.8325129  23.2365322  43.4448147  38.1451726  22.0974541  43.3250189
  37.0937610  23.8294411  42.5365257  36.7264199  24.7699261  42.5619936
  36.5156722  23.1255317  41.3202238  36.2688375  22.1108246  41.6325426
  35.2374363  23.7789345  40.7934427  34.9246716  23.1877589  39.9327540
  34.4483829  23.5331845  41.5041542  35.3609467  25.2560353  40.2921247
  35.3938460  26.3323498  41.2184238  35.5029583  26.1667037  42.2800541
  35.6072378  27.6491690  40.7570505  35.7507491  28.4591556  41.4568567
  35.7801604  27.9276252  39.3426633  36.0372734  29.2018390  38.9818287
  36.6493559  29.6121645  39.5971274  35.7333040  26.8528914  38.4071946
  35.7860494  27.0494151  37.3465323  35.4345441  25.5344605  38.8750648
  35.4639196  24.7121239  38.1755638  37.4975705  22.8487945  40.1536894
  37.3103476  21.9189596  39.4148254  38.6328268  23.6152625  40.2333069
  38.8074541  24.2910695  40.9633017  39.7361493  23.4959435  39.2808795
  39.4500470  22.8277278  38.4686351  40.0192928  24.8950076  38.6802959
  40.3502941  25.4556417  39.5544982  40.8157539  24.8997235  37.9361653
  38.7899208  25.6307149  38.0520296  38.0562210  25.9345627  38.7986636
  39.3444681  26.9556189  37.4240470  38.5223961  27.5744200  37.0643377
  39.9744940  27.5774908  38.0600047  39.9401617  26.6501451  36.5638518
  38.0549502  24.7879100  36.9394708  38.7861633  24.5956063  36.1543298
  37.7455854  23.8496590  37.3999953  37.1997714  25.3196287  36.5222788
  41.0083771  22.8422761  39.9629045  42.0554733  23.1233120  39.5118713
  40.9132290  22.0886421  41.0687447  39.9921012  22.0740604  41.4827585
  42.0604229  21.5401554  41.8324423  41.6849470  20.5652118  42.1432543
  42.9189682  21.4139318  41.1728477  42.4776125  22.4269485  43.0200195
  41.6756153  23.3094835  43.4540081  43.6545324  22.1304679  43.5770416
  44.3063402  21.4735913  43.1723642  44.2065382  22.6805425  44.8603535
  43.8792706  23.7186408  44.9182081  43.4613943  21.9929338  45.9649849
  42.3908758  22.1230459  45.8063698  43.7575769  20.9581995  46.1373186
  43.6810064  22.4587727  46.9256496  45.7694244  22.5687504  45.0610638
  46.3263607  22.5072312  46.1756849  46.5151072  22.3227739  43.9700699
  46.0173702  22.1161509  43.1158638  47.9402256  22.1951008  44.0179205
  48.2400608  22.6803184  44.9467707  48.3993244  20.7780170  44.0178394
  47.6514339  20.1782107  44.5364857  48.3822918  20.4539204  42.9772758
  49.7588730  20.5624294  44.6020460  50.2620697  19.4119811  44.5727968
  50.3756714  21.4924860  45.1970768  48.4729242  23.0295968  42.8255606
  47.8096914  23.2376099  41.8272257  49.6091270  23.5482931  43.1090689
  50.0674152  23.2186913  43.9465904  50.4255104  24.2419744  42.1689653
  49.7554922  24.9847555  41.7360163  51.6101408  24.9207807  42.8014374
  51.9910383  25.5953431  42.0346355  51.1986876  25.5347133  43.6026192
  52.7672911  24.0177512  43.2324505  52.4517727  23.3444881  44.0294838
  53.0258465  23.4086967  42.3662472  54.3031979  24.9010015  43.6739731
  53.7234402  26.0953307  44.8937798  54.5775652  26.6543770  45.2759314
  53.0138350  26.7294884  44.3623638  53.2953787  25.6553817  45.7945061
  50.9520864  23.2756472  41.0527229  51.2293911  22.1417665  41.2538004
  51.0031748  23.8218522  39.7966599  50.7688379  24.8009682  39.7158909
  51.8126249  23.2420349  38.7043786  51.6131258  22.1766353  38.8193989
  51.3069582  23.7562561  37.3354506  50.2184343  23.8126254  37.3418903
  51.4936018  24.8177052  37.1723914  51.8208790  22.8776789  36.2115741
  51.2935209  23.1189537  35.2886534  52.8497601  23.1951237  36.0420609
  51.6451263  21.4106584  36.5183830  50.4790115  20.9478712  36.6857791
  52.6809549  20.7481766  36.6183209  53.2859850  23.4871411  38.9389277
  53.7170887  24.3183827  39.6962214  54.1403818  22.7094150  38.1748962
  53.6509228  22.1169806  37.5194955  55.6115770  22.7591228  38.2899904
  55.8030701  23.2983971  39.2176819  56.0915661  21.2628722  38.4939599
  55.9836340  20.7565904  37.5347257  57.1663666  21.2148595  38.6689067
  55.4365015  20.3810620  39.5552516  54.3584156  20.3397703  39.3999386
  55.9455252  19.4372284  39.3598676  55.5993271  20.7454491  41.0317993
  56.6184950  21.4302325  41.3574457  54.7491693  20.3023291  41.8398190
  56.3667297  23.5808253  37.2012782  56.8000031  23.0708504  36.1508417
  56.3876104  24.9057150  37.4390984  56.0542345  25.2358603  38.3335042
  57.0762968  25.8168960  36.5606642  57.5100183  25.3999758  35.6517315
  56.1909199  26.9539928  35.9394288  55.9962273  27.6977515  36.7121005
  56.7358589  27.4798512  35.1554513  54.9163532  26.3989282  35.3940773
  54.9582672  25.6269646  34.2342424  55.8872843  25.3827238  33.7405992
  53.7667322  25.1102877  33.7541151  53.8382196  24.4325376  32.9162955
  52.5657368  25.5624890  34.2302704  51.6266203  25.2217531  33.8199520
  52.5484610  26.4810991  35.2949953  51.5955210  26.8589568  35.6348944
  53.7032747  26.7772269  35.9912777  53.6865711  27.4604702  36.8275213
  58.2175159  26.5073037  37.2509742  58.1298780  26.7776179  38.4954596
  59.3181038  26.7961836  36.5960431  59.3624020  26.6545749  35.5970001
  60.4438591  27.4443746  37.1839905  60.4648495  27.1195388  38.2242513
  61.7325640  27.0137620  36.4015222  61.8548107  25.9314489  36.4434195
  61.5670872  27.2579312  35.3521895  62.9548597  27.7203941  36.8850684
  63.4467506  27.8938818  38.1629014  64.4608545  28.7223411  38.1021976
  64.9994516  29.0643001  38.9736247  64.6940136  29.1707158  36.8812823
  65.4168129  29.8100305  36.5830541  63.7244558  28.5584831  36.1021328
  63.5848475  28.6511517  35.0352120  60.3019142  28.9686918  37.1029401
  59.9411297  29.5378733  36.0499001  60.5428171  29.6248651  38.2573819
  61.1074781  29.1866446  38.9709783  60.3996611  31.0496092  38.3881903
  60.6978559  31.3394856  39.3957376  61.1603594  31.5157461  37.7619696
  58.9651680  31.6493177  38.1254506  57.9300404  31.1080289  38.5833406
  58.9219236  32.8869557  37.5855803  59.8304605  33.2371712  37.3172379
  57.7781200  33.7820840  37.4400210  56.8199778  33.2720280  37.3405147
  57.6198626  34.6020675  38.7648726  57.4934912  33.8434052  39.5372438
  58.4949636  35.2252293  38.9491796  56.2949657  35.4093719  38.7903285
  56.1512566  35.9023809  37.8288770  55.5554724  34.6088672  38.8114524
  56.1876678  36.2942719  39.9809408  56.2067223  35.6481099  40.8585596
  57.1011686  36.8830419  40.0644016  55.0436211  37.2446799  39.8824024
  54.2232943  37.0786476  40.4477310  54.9990892  38.4112978  39.2943358
  54.0189409  39.1827273  39.5006824  53.4463167  39.1106486  40.3295374
  54.1226196  40.1181793  39.1342402  55.8333349  38.7494183  38.3829069
  56.6938734  38.2244635  38.3196831  55.5607653  39.5224285  37.7927709
  57.9376316  34.6836829  36.2033534  59.0763187  34.9931335  35.8398104
  56.8342495  34.8431182  35.4761553  56.0162544  34.4272184  35.8980656
  56.7023420  35.5535889  34.1150832  57.5206041  35.3498244  33.4244132
  55.4741764  35.0514627  33.3368444  54.6060228  35.0806403  33.9952922
  55.2114296  35.9355617  32.1412659  54.1564322  35.9151292  31.8680239
  55.2370787  37.0067620  32.3411846  55.7740545  35.6970954  31.2386656
  55.7895374  33.7460566  32.9030943  55.5986404  33.1215525  33.6067629
  56.7508268  37.0376134  34.2993951  55.9169245  37.6479650  34.9320078
  57.7638292  37.6458597  33.6500764  58.3285522  37.0562792  33.0554414
  58.0818844  39.0592170  33.6302519  57.1134758  39.5267940  33.4522986
  58.5785437  39.3671679  35.0249434  57.7292156  39.2449164  35.6970978
  59.3492794  38.6465287  35.2983475  59.1691256  40.7542658  35.3253007
  59.9203682  41.0326529  34.5862222  58.0990028  41.8188953  35.2903581
  57.2468424  41.5808010  35.9269381  58.5912371  42.7612448  35.5307460
  57.6068878  41.9197607  34.3230176  59.8099184  40.8558750  36.7285085
  60.4036617  39.9440026  36.7921925  60.4731607  41.7179441  36.6573811
  59.0583467  40.8974028  37.5168729  58.9967251  39.3552017  32.4136686
  59.8513412  38.5734892  32.0589876  58.8727331  40.6021070  31.9449329
  58.1843948  41.1819935  32.4032116  59.5893478  41.0206366  30.7553887
  60.3406906  40.3086329  30.4138732  58.6566353  41.0827160  29.6388960
  57.9506397  41.8873596  29.8443842  59.3350315  41.3668680  28.8344479
  57.8536367  39.8600554  29.2496157  58.2144022  38.9590597  28.2425332
  57.2753859  38.0384421  28.2075834  57.3054838  37.1859121  27.5452471
  56.3284683  38.2970643  29.1098905  55.4339600  37.8296280  29.1481352
  56.6257763  39.4969630  29.7624302  56.0437250  40.0323772  30.4979277
  60.2157736  42.4405575  30.8466768  59.5119572  43.3067608  31.3514328
  61.4471817  42.7130604  30.3283215  62.0772076  42.0249987  29.9413705
  61.7746019  44.1146612  29.9050164  61.7922068  44.7766352  30.7708001
  63.2069016  44.0998840  29.2308307  63.2273579  43.4405756  28.3630776
  63.4177685  45.0866652  28.8186526  64.3814039  43.8562965  30.1558709
  64.2022800  43.9658689  31.3732171  65.4949760  43.6019278  29.5550752
  60.7481289  44.6128607  28.9399314  60.3210974  43.9178753  28.0509639
  60.3124762  45.8372593  29.1709542  60.7488585  46.3387537  29.9313331
  59.3182945  46.5107965  28.3389497  58.5245562  45.7761097  28.2036018
  58.6262846  47.5747013  29.1818118  57.8764009  48.0589771  28.5563087
  58.1968164  47.1047544  30.0665760  59.5565367  48.6210394  29.5748544
  59.8633003  49.4484615  28.6673188  59.9685812  48.6914730  30.7966566
  59.8910904  47.0717621  27.0162797  61.0784626  47.4117327  26.9115615
  59.0118980  47.1083927  25.9928083  58.0891466  46.7191982  26.1238027
  59.2812204  47.4094868  24.5613527  58.3187199  47.7760649  24.2045426
  60.3122282  48.5499096  24.3719077  61.3393688  48.2837963  24.6214390
  60.4678297  48.7603664  23.3137989  59.9743080  49.8634243  25.1007605
  58.7412596  50.2457619  25.2575588  60.9091234  50.5475140  25.5900621
  59.6216202  46.0710573  23.8380313  59.6510410  46.0396767  22.5610828
  59.7087717  44.9568081  24.5725155  59.6456623  45.0880957  25.5719566
  59.8426723  43.5817146  24.0753508  60.7954979  43.4348154  23.5667777
  59.6922922  42.5569105  25.2078724  60.4974937  42.4948215  25.9399176
  58.8227558  42.8367233  25.8026171  59.4170141  41.2467098  24.7930217
  60.2442169  40.7970572  24.6055365  58.7111282  43.3065557  23.0951118
  57.6102734  43.7878942  23.3357096  58.9598846  42.4927044  22.1162415
  59.8732853  42.0616865  22.1115875  57.8985977  41.8492603  21.2871718
  56.9501734  42.3750162  21.3975501  58.3578825  41.9233990  19.7857141
  59.1256380  41.1499119  19.7665560  57.1866035  41.4593029  18.7919760
  56.6709328  40.5670357  19.1470075  56.3959885  42.1976137  18.9258683
  57.5882959  41.3313150  17.7868080  59.1484451  43.1298113  19.2937970
  59.9580145  43.2559204  20.0126791  59.5539999  43.0778265  18.2833898
  58.3074617  44.4283724  19.3449306  57.5606632  44.3657923  18.5534215
  57.8615141  44.5163107  20.3356409  58.9910841  45.2577353  19.1635048
  57.6230621  40.3622627  21.7192912  58.4892464  39.4793844  21.8025827
  56.3581181  40.0442076  21.9416714  55.6721354  40.7770777  21.8301797
  55.8863211  38.6381817  22.0285368  56.6938591  37.9545355  21.7665958
  55.3981543  38.3191943  23.4750032  54.5165396  38.9060593  23.7327719
  55.1279926  37.2656441  23.5467267  56.4086199  38.5698414  24.6341968
  56.7269707  39.6101975  24.7006512  55.9416437  38.2725549  25.5731630
  57.6523924  37.6927900  24.5399094  57.6108646  36.4394021  24.3624020
  58.8763571  38.2083464  24.7248054  59.6573973  37.5809383  24.5965886
  59.0256739  39.2071533  24.7385502  54.8126459  38.3042741  21.0180950
  54.1769600  39.2517662  20.5061078  54.5635033  37.0104122  20.8022571
  55.0997305  36.3608027  21.3595438  53.3751774  36.5109849  20.1742864
  52.6908350  37.3485351  20.0390410  53.7074184  35.9632015  18.7602806
  54.1782093  34.9914408  18.9090753  52.4078608  35.6612015  17.9998589
  51.7316723  36.5112305  17.9086387  52.5198650  35.2903104  16.9810367
  51.8367672  34.9174547  18.5555470  54.6502876  36.8534708  17.9234445
  55.5790377  37.0220089  18.4685314  54.9121189  36.4147949  16.9605768
  54.0285587  37.7313185  17.7475584  52.6527834  35.4088020  21.0532141
  53.3912945  34.5917916  21.5748572  51.3495302  35.6792045  21.3680840
  50.8464289  36.4348316  20.9253478  50.8198166  34.9094939  22.5581312
  51.3976955  33.9992213  22.7179933  50.8634758  35.9493446  23.7665725
  50.1095152  36.7169142  23.5919809  50.5042028  35.2729917  25.1307726
  49.4833612  34.8938870  25.0830817  51.3017321  34.5738292  25.3822064
  50.3470612  35.9891582  25.9373164  52.1753883  36.7044663  23.9916682
  53.0074406  36.0130239  23.8586473  52.1488762  37.4526453  23.1994414
  52.4164057  37.3227072  25.3870106  52.6308727  36.6856551  26.2450767
  53.4408617  37.6929951  25.3484941  51.6755629  38.0964470  25.5884385
  49.3779325  34.5028543  22.2429585  48.5806227  35.2546883  21.6935134
  48.9997339  33.1987596  22.5412941  49.8607540  32.0615077  22.8747559
  50.0257206  32.1319985  23.9498925  50.8109903  32.1383286  22.3463130
  49.0785122  30.7733274  22.6876402  49.3724871  29.8942661  23.2611632
  49.2272806  30.5208015  21.6377854  47.5913095  31.1897039  22.8725576
  47.3729944  31.0099530  23.9252353  46.9615602  30.6222057  22.1873856
  47.6004887  32.6928353  22.3980880  47.2404623  32.6327491  21.3710213
  46.5443325  33.4732127  23.2744741  46.7009735  33.5231304  24.5291638
  45.4903221  33.9775443  22.6696873  45.2788591  33.6941290  21.7236114
  44.4049358  34.7306442  23.2777500  44.7457170  35.2257442  24.1870594
  43.8250542  35.7071924  22.2661829  43.8912916  35.1212168  21.3494778
  42.4821186  36.3138819  22.4946165  42.5051737  36.8065119  23.4666681
  42.1413755  36.9491148  21.6770148  41.7829561  35.5026889  22.6976919
  44.7719765  36.9012642  22.0680094  44.4859838  37.4973059  21.2013817
  44.8405504  37.5477386  22.9429221  45.8053589  36.5867233  21.9220948
  43.2788515  33.7060928  23.7449241  42.9526329  32.7187324  23.0588531
  42.5983715  34.0090942  24.8501873  42.9240799  34.8371363  25.3280592
  41.3781452  33.4070063  25.3441834  41.1680889  32.4466348  24.8733711
  41.5162706  33.0533552  26.8515182  41.6925573  33.9424610  27.4569249
  40.5628157  32.6481771  27.1904135  42.7189064  32.1060729  27.0968771
  43.6707020  32.5181174  26.7616129  42.8471661  31.9164038  28.5831547
  42.8090143  32.8707886  29.1083074  42.0462847  31.2767911  28.9540887
  43.7839603  31.4221764  28.8405490  42.6164961  30.6999850  26.4786720
  42.9720974  29.9146771  27.1457076  41.5454197  30.5754590  26.3193321
  43.2601881  30.7114744  25.5991101  40.1379347  34.3372083  25.1039147
  39.8693442  35.1430726  25.9756112  39.3937087  34.1613960  23.9452004
  39.6453428  33.2661104  22.8359866  39.7422695  32.2229314  23.1367946
  40.4784155  33.6581445  22.2525477  38.4141517  33.3534265  22.0396614
  37.6350713  32.6842666  22.4048424  38.6511040  33.1212187  21.0013771
  37.9523349  34.7923923  22.2317123  36.8796515  34.9110365  22.0788169
  38.4956670  35.3984523  21.5067410  38.3199906  35.1169324  23.6729288
  38.6263323  36.1591744  23.7623143  37.1502972  34.9546504  24.6385431
  36.3732600  35.8599734  24.9803519  36.9958568  33.7248302  25.2500844
  37.6655293  32.9895759  25.0738811  35.9997654  33.5564137  26.2265372
  35.0245309  33.8530302  25.8404827  35.8032489  32.0792174  26.5638185
  36.7669773  31.7353582  26.9394350  35.0159264  31.9678330  27.3093486
  35.3723478  31.1644530  25.3946018  34.6105266  31.6948462  24.8232770
  36.1994743  30.7956839  24.7879982  34.5803380  29.9584627  25.9494472
  35.1819396  29.0415740  26.5563822  33.3188963  29.8599029  25.8196187
  32.8916121  29.0477896  26.2415314  32.8496885  30.6985664  25.5088329
  36.2478590  34.2405057  27.5751042  35.3783464  34.3083072  28.4474397
  37.4319863  34.8483706  27.7607822  38.1130052  34.8505759  27.0149207
  37.6504707  35.8363652  28.8151789  37.2152424  35.4523540  29.7377896
  39.1476345  35.9790063  29.1746426  39.6268702  36.3290811  28.2603788
  39.3077803  37.0628786  30.2053475  38.7882495  36.8405151  31.1374092
  40.3738451  37.1382332  30.4196644  38.9302897  37.9837108  29.7607493
  39.7234511  34.6664572  29.6660423  39.2305779  34.3725181  30.5927420
  39.7139144  33.8640308  28.9283991  40.7710743  34.9379206  29.7960091
  36.9304085  37.1439481  28.4278798  37.4192238  37.8712702  27.5176120
  35.8038712  37.4592948  29.0051794  35.3826666  36.8564773  29.6974921
  34.9275255  38.6113095  28.6002898  35.2404284  39.0436602  27.6498890
  33.5425115  38.0982900  28.3756614  33.2668924  37.3862624  29.1535830
  32.8645039  38.9440584  28.4900284  33.3425593  37.2505140  27.0907474
  33.5412884  37.8763556  26.2207294  34.1114926  36.4790154  27.0503879
  31.7939401  36.3440728  26.8211627  30.9298348  37.7197146  26.0520554
  31.5687299  38.0795479  25.2455616  29.9195457  37.4612951  25.7348228
  30.8178616  38.5500503  26.7492676  35.1067805  39.7088885  29.6310306
  34.1211176  40.3170061  30.1262093  36.3165975  39.9462986  30.0415707
  37.0187736  39.3623471  29.6102357  36.6835427  40.9472799  31.0033274
  35.8955932  41.6934586  30.9010696  36.7086005  40.3596973  32.4063730
  36.9476509  41.1842442  33.0779982  35.7143950  40.0512028  32.7296138
  37.5125909  39.0751076  32.5554991  37.0326900  38.3139300  31.9403577
  38.4875035  39.1853929  32.0806432  37.8248787  38.5587025  34.2359161
  38.7523389  39.9027848  34.9636412  39.4322085  39.4464993  35.6831455
  39.2688131  40.4865265  34.2016673  38.1024933  40.5764961  35.5221415
  38.0601621  41.5435457  30.7053614  38.9436102  40.9326410  30.1483750
  38.2543349  42.8042364  31.0080528  37.5032401  43.2724762  31.4945793
  39.4837427  43.5768986  30.9720659  40.0568295  43.3374214  30.0763416
  39.1524339  45.1310301  30.7469034  38.6140442  45.4610062  31.6353655
  40.4359055  45.8968830  30.6846857  40.8384705  45.9134340  31.6974878
  41.1648703  45.3383350  30.0975418  40.1999331  46.8719721  30.2585101
  38.2044697  45.2854204  29.4888997  38.8240194  45.2024174  28.5959435
  37.5344610  44.4280005  29.4254804  37.3106837  46.5461349  29.5900679
  36.7026854  46.5097332  28.6861205  36.7486286  46.6589355  30.5171442
  37.8165150  47.5067472  29.4928122  40.4029512  43.2283878  32.1894217
  40.2176285  43.9207077  33.1863809  41.2942934  42.1866035  31.9954014
  41.2051201  41.6381884  31.1519575  42.2165585  41.6656160  33.0328774
  41.6069317  41.3787937  33.8897252  42.9064274  40.4175711  32.4702072
  42.0983505  39.6992707  32.3317957  43.4017467  40.5367088  31.5065813
  43.8559246  39.7781920  33.4968567  44.4783068  40.5114031  34.0098286
  43.0624533  39.1178346  34.6083689  42.3415852  38.4413433  34.1492271
  43.8486528  38.6318493  35.1861262  42.5224257  39.8239827  35.2391028
  44.7130442  38.7292051  32.8449798  45.3972197  38.2320118  33.5325933
  44.1678047  37.9031968  32.3883319  45.3663683  39.2257333  32.1275353
  43.2059097  42.8063726  33.3806205  43.8301945  43.3771658  32.4831104
  43.2531357  43.0628729  34.6891451  42.5960588  42.5611687  35.2693510
  44.1962147  43.9317417  35.4026818  44.5345783  44.6511698  34.6570015
  43.4605598  44.6917963  36.5743756  43.1253195  43.9358568  37.2844934
  44.4030142  45.6901121  37.2327375  44.9220991  46.1085558  36.3704419
  43.8756084  46.5303278  37.6843882  45.0251436  45.1617813  37.9551792
  42.2401237  45.4665899  36.1568427  41.4202976  44.7564983  36.0484195
  41.9656277  46.2002277  36.9148207  42.4961853  46.0419226  35.2671671
  45.4621124  43.1207180  35.9478569  45.2948332  41.9981384  36.4343548
  46.6442680  43.7654924  36.0061741  47.1098995  44.9489260  35.3160691
  47.0246315  45.7951307  35.9978056  46.6590166  45.2199364  34.3614149
  48.5921144  44.6309280  35.0217986  49.2372036  45.4938745  34.8566008
  48.5311174  43.9220953  34.1960073  49.0355587  43.9655399  36.2961936
  49.2364359  44.7193384  37.0574689  49.8964739  43.3185101  36.1280680
  47.8229952  43.1015110  36.6600561  47.9198027  42.1342754  36.1669207
  47.6267385  42.9777384  38.1611228  47.1874905  43.8470984  38.8763857
  47.8094673  41.7148018  38.6217260  48.1980419  41.0257435  37.9937840
  47.4522305  41.1579514  39.9550629  48.2788134  40.5116367  40.2502537
  47.5446606  41.9858170  40.6580496  46.0781479  40.4160404  40.1261425
  45.8473253  39.8569179  41.1905432  45.2864790  40.3391457  39.0498424
  45.4885578  40.9107637  38.2420516  43.9460373  39.7762156  39.1826487
  43.6318684  39.7883272  40.2263212  43.0213261  40.5094862  38.2528830
  43.1397486  41.5552187  38.5366559  43.2811069  40.2706385  37.2215915
  41.5429354  40.0969696  38.3129668  41.3970423  39.2135477  37.6913714
  41.2830782  39.9342585  39.3589592  40.6160593  41.2091398  37.7085495
  41.0232782  41.9642591  36.7757225  39.5319009  41.5370321  38.2928038
  39.1141081  42.3190022  37.8089881  39.0592909  40.9222174  38.9399076
  44.0297270  38.2743979  38.9307117  44.5789003  37.8648281  37.8958917
  43.4913540  37.4139261  39.8405695  42.8889370  37.6914310  40.6022692
  43.3870459  35.9867024  39.4736123  44.3235731  35.5917048  39.0799236
  43.0143595  35.1641846  40.7090902  42.1335840  35.4789400  41.2687922
  42.9049063  33.6173558  40.6439734  42.0920515  33.3683944  39.9617815
  43.8470840  33.1894422  40.3014851  42.5721407  33.1963730  41.5927315
  44.1420841  35.2999163  41.5594339  44.0775919  36.1568689  41.9872999
  42.2300959  35.8428836  38.4181333  41.3158798  36.6544557  38.2294273
  42.4484825  34.7641230  37.6996088  43.3985710  34.4218159  37.7157021
  41.7176580  34.4307971  36.5106106  40.7790089  34.9756980  36.6112018
  42.4834871  35.0482941  35.3209782  42.5509167  36.1228299  35.4910517
  43.5237503  34.7235346  35.2990222  41.6191912  34.7943687  34.0179873
  41.4596128  33.7241435  33.8866258  40.2269983  35.5338049  34.0443850
  39.6192384  35.0944018  34.8353696  40.3387117  36.5978622  34.2527270
  39.5934415  35.3307676  33.1809735  42.4051619  35.2362132  32.8599691
  41.7340231  35.6218243  32.0925236  43.0727386  36.0547447  33.1291413
  43.0338383  34.3897676  32.5835633  41.5790415  32.8461051  36.2808156
  42.5559473  32.1815681  35.9083843  40.4021931  32.3205972  36.6341329
  39.2339802  32.9928637  37.0836234  38.8411212  33.6074543  36.2736583
  39.4410539  33.5486054  37.9981518  38.1999207  31.9010425  37.4721098
  37.4213266  31.8798923  36.7095900  37.7050138  32.1103120  38.4204602
  39.0702558  30.6125784  37.5384188  38.4682488  29.7289228  37.3266649
  39.5516062  30.4980731  38.5096526  40.1130629  30.9091234  36.4333391
  41.0233212  30.3557491  36.6642189  39.5871472  30.4395270  35.0422502
  39.0685296  31.2600207  34.3248439  39.8829031  29.2118001  34.5550990
  40.4217291  28.5529733  35.0988984  39.6864319  28.8203859  33.2052565
  38.8438988  29.3797612  32.7986407  41.0405445  29.1711164  32.4618721
  41.8328905  28.7588668  33.0866385  41.1328602  28.5003114  31.6077065
  41.4192009  30.6525564  32.2123647  41.3371086  31.2769938  33.1019950
  42.9008484  30.8455062  31.7532158  43.5193491  30.4638076  32.5655413
  43.1440830  30.3110147  30.8349252  43.0561209  31.9053531  31.5514374
  40.4844809  31.2305260  31.1323333  39.5032668  31.2318563  31.6070127
  40.7175398  32.2380662  30.7878757  40.3561831  30.7048106  30.1861501
  39.2902660  27.3278594  32.9689431  39.8186827  26.4640760  33.7048411
  38.4236288  26.9917917  31.9609618  38.0259228  27.7328491  31.4017057
  38.2786179  25.6264710  31.4968991  39.1726208  25.0042272  31.5377712
  37.2110271  24.9043393  32.3085570  37.0598388  23.8814950  31.9635391
  37.5805283  24.8435092  33.3322120  35.7988048  25.4847050  32.4651837
  35.8106947  26.3500738  33.1278276  35.4224563  25.9099674  31.5348005
  34.7414517  24.5087743  32.9297972  34.9996734  23.3127761  33.0040717
  33.5749984  25.0567651  33.3251333  32.8049898  24.4638157  33.6000872
  33.5217357  26.0652542  33.3399916  37.9378104  25.6349945  29.9873114
  37.1058917  26.3793278  29.4388437  38.5409784  24.6756840  29.2597437
  39.1811705  24.0560174  29.7354198  38.5933995  24.6055818  27.7991271
  37.8747702  25.3150177  27.3887944  39.9486566  25.0134611  27.3057652
  40.7626200  24.3549895  27.6090670  39.9623418  24.8956299  26.2222385
  40.2770472  26.5234518  27.6272798  39.4468808  27.1304631  27.9884768
  41.4010668  26.5197420  28.7937951  40.9545183  25.9519768  29.6100903
  42.2906113  26.0042334  28.4317780  41.5896940  27.5433111  29.1175652
  40.8820200  27.1720958  26.3942432  40.1287889  27.3232937  25.6210136
  41.2996912  28.1147766  26.7478108  41.7324543  26.5873957  26.0435510
  38.1790757  23.2242322  27.2308040  38.5005045  22.2318935  27.9142499
  37.3244238  23.1226540  26.2203002  37.2673917  23.9349341  25.6227612
  36.5836573  21.8881059  25.8882236  36.8705916  21.1763883  26.6623211
  35.0690627  22.1621466  26.0549402  34.5731401  22.6620436  25.2229166
  34.6225309  21.1787724  25.9076810  34.5554614  22.7240562  27.3701000
  33.8986683  21.8952584  28.3226967  33.9025068  20.8176422  28.2510829
  33.5214019  22.3160696  29.5622683  33.1559205  21.6433263  30.3240013
  33.5325956  23.7124515  29.7538280  33.1684208  24.1988873  30.6466651
  34.0996242  24.5695305  28.7860894  34.1258836  25.6375957  28.9440441
  34.5646310  24.1139817  27.5760508  34.9103379  24.8271751  26.8423986
  36.9228196  21.3916278  24.4808793  36.7038465  20.2157950  24.1316485
  37.3416376  22.2903633  23.5980892  37.2091937  23.2301497  23.9435697
  37.5235772  21.9943738  22.1932960  36.7666841  21.2852144  21.8581724
  37.3742580  23.2658148  21.4601088  36.4243674  23.7721372  21.6317058
  38.1230783  23.9856935  21.7904949  37.5480652  23.0993724  20.0082779
  38.6336684  22.8882170  19.2627847  38.3012342  22.7726078  17.9694140
  38.9232469  22.5034785  17.1285379  37.0052075  22.9475594  17.8652453
  36.5097857  23.0023050  16.9868016  36.5215135  23.2862759  19.1393232
  35.5070162  23.6077285  19.3233538  38.8261032  21.1523056  21.9264603
  39.8426580  21.4916492  22.5195384  38.8990426  20.1138186  21.0884333
  37.8857708  19.7076392  20.1601863  37.4036574  20.5300927  19.6317589
  37.2287345  19.0563679  20.7365966  38.7276411  18.8308585  19.2056310
  39.2578602  19.4780588  18.5069871  37.9935169  18.1670499  18.7489915
  39.7447515  18.1408644  20.0900078  40.5691099  17.7183914  19.5155084
  39.3181324  17.4047565  20.7713604  40.1103258  19.2821217  21.0341239
  40.4129314  18.8363981  21.9816804  41.3209629  20.0672603  20.5549502
  42.4623299  19.7306371  20.9249187  41.0642576  21.0008168  19.5616376
  40.1037693  21.2557125  19.3810868  42.1628332  21.8502951  18.8642466
  43.0733061  21.2724113  18.7055326  41.8103170  22.3367596  17.4085307
  41.0083628  23.0682564  17.5078976  42.7599049  22.7558064  17.0756948
  41.3602114  21.1213112  16.6189039  40.3226757  20.8868361  16.8569076
  41.2621689  21.4247274  15.5765843  42.2387266  19.8498404  16.7284036
  41.7458344  18.7673414  17.0747149  43.4249067  19.9329150  16.2596714
  44.0304852  19.1248477  16.2797081  43.7347794  20.7340693  15.7284188
  42.6220322  22.9505658  19.7787833  43.8193655  23.2208896  19.8026776
  41.7674875  23.6191487  20.5784845  40.8032990  23.3285046  20.5012560
  42.0382452  24.5376039  21.6788888  42.7579355  25.2363920  21.2524605
  40.7636261  25.1926136  22.1486831  40.1865292  24.3497157  22.5289249
  41.0098028  25.7609129  23.0456471  40.0351381  25.9617805  21.0553813
  40.8563232  26.6047478  20.7386017  39.8241448  25.3224277  20.1981711
  38.7265635  26.6104150  21.5264440  38.5907102  26.9389224  22.6957464
  37.9864669  26.9256163  20.6209922  42.7489424  23.8929057  22.8912401
  43.8109446  24.3009424  23.3206367  42.3153448  22.7333522  23.3136916
  41.5443611  22.2636032  22.8609037  42.9641867  22.0394182  24.4371915
  43.0341148  22.6761007  25.3191471  42.0842743  20.9269714  25.0236487
  41.5721273  20.3228831  24.2747211  42.9116440  19.9075401  25.7897305
  43.5293388  20.4759717  26.4850283  42.2028828  19.3947160  26.4399385
  43.4448528  19.2756569  25.0794387  41.0386848  21.6767716  25.8982277
  41.5093040  22.1717095  26.7477298  40.5641937  22.4093509  25.2453184
  40.2859974  20.9784627  26.2641883  44.4246674  21.6073251  24.0661073
  45.3320074  21.7583704  24.9169207  44.6378231  21.2962484  22.7881026
  43.7990284  21.2750840  22.2258973  46.0056162  20.9806490  22.1904016
  46.4109564  20.2057076  22.8409910  45.8283806  20.0708294  20.9534407
  45.2738953  20.6868362  20.2455020  46.7430973  19.7853684  20.4339170
  45.0670958  18.9643180  21.2247992  44.1592360  19.2377532  21.0743737
  46.9583654  22.1472812  21.9527173  48.0590153  21.8466473  21.5541553
  46.3965607  23.3620930  22.0605540  45.4577398  23.4030080  22.4307489
  47.2125292  24.5463943  22.3759866  48.1210423  24.4329095  21.7845297
  46.5515423  25.8131695  21.8302035  46.6532469  25.6856465  20.7524753
  45.5125332  25.7711411  22.1569920  47.1820545  27.1996713  22.1405911
  48.2713842  27.1613765  22.1393514  46.8355656  27.9863739  21.4704037
  46.7286539  27.7592349  23.7478185  45.0804853  28.4479117  23.3656549
  44.5347548  28.7701559  24.2524672  45.0405836  29.1604686  22.5417757
  44.5938969  27.5568628  22.9689574  47.5820637  24.6852398  23.8454819
  48.8279581  24.7366428  24.1188335  46.7052031  24.5146585  24.8403382
  45.7211542  24.3757653  24.6601701  47.1035480  24.7977185  26.2468624
  47.6016331  25.7657981  26.3000894  45.7822180  24.9998474  27.0693350
  45.1872349  24.0903473  26.9862199  45.8578396  25.2466464  28.5474968
  46.3680220  24.4087839  29.0226817  46.5081501  26.1114097  28.6793351
  44.9052763  25.2642632  29.0770364  44.9623632  26.2070155  26.5089345
  45.4627228  27.1300411  26.8017864  44.8925972  26.2353086  25.4215384
  43.9669132  26.2579370  26.9500613  48.1319427  23.8191199  26.7760873
  49.0844107  24.2253065  27.4057794  47.9595900  22.5257373  26.5095949
  47.2195530  22.2241545  25.8919430  48.9727497  21.5308738  26.7665005
  49.0953350  21.4242744  27.8443289  48.5316706  20.1800537  26.0989642
  48.1159592  20.3246260  25.1017785  49.3554258  19.4788885  25.9652162
  47.3758650  19.6626127  27.0202208  47.5611210  19.8533356  28.0772948
  46.4767170  20.1581454  26.6540456  47.2269726  18.1974995  26.8823123
  47.1870279  18.0091703  25.8094478  48.1494331  17.7088952  27.1960521
  45.9877872  17.6797974  27.5987387  46.0240650  17.6726770  28.6080623
  44.8687935  17.1652150  27.1360087  44.6667480  17.0189250  25.8286977
  45.4309464  17.3111808  25.2364993  43.7846756  16.7565215  25.4125381
  43.8498545  16.8125689  27.9153800  43.9454412  16.8909574  28.9177871
  42.9243374  16.5955365  27.5741792  50.3141546  21.9278073  26.1698985
  51.4033604  21.9396019  26.7762804  50.3591871  22.3877954  24.9020696
  49.5425987  22.3261023  24.3109035  51.6580057  22.6541853  24.2641330
  52.3600101  21.8714142  24.5514822  51.3986349  22.6295185  22.7418399
  50.9723186  21.6494370  22.5278521  50.5865002  23.3353400  22.5676179
  52.6061153  23.0047870  21.9724154  52.7712727  24.1892958  21.5978837
  53.4274769  22.0375037  21.6634011  54.3315840  22.2949052  21.2940359
  53.2620001  21.1433291  22.1029019  52.1872663  24.0403152  24.7266459
  53.4078503  24.1810012  24.9047661  51.3386154  24.9795198  25.2297521
  50.3655338  24.8240209  25.0083065  51.7360640  26.2479925  25.8108830
  52.4317026  26.6296744  25.0635505  50.4927731  27.1878529  25.9461141
  50.0409126  27.1872354  24.9541855  49.6748543  26.7202830  26.4942813
  50.6186724  28.5683179  26.6150570  50.7716990  28.4814048  27.6907587
  51.7476940  29.4113779  25.9690022  52.6771736  29.3937683  26.5380907
  52.1151495  29.1947889  24.9659228  51.4188147  30.4505658  25.9636450
  49.2893934  29.2819524  26.4609432  49.1692209  30.0772858  27.1965408
  49.3635082  29.7997451  25.5046463  48.4630442  28.5717177  26.4894557
  52.4173594  26.0286093  27.1223378  53.4448767  26.6322923  27.3431754
  51.9090033  25.2527785  28.0166364  51.1826277  24.6239161  27.7051640
  52.6161432  24.7971892  29.1891456  52.7863312  25.6660795  29.8248839
  51.7400885  23.7902236  29.9332690  51.1502981  23.2479787  29.1942048
  52.3767710  22.6032472  30.7310104  53.0155563  23.0324411  31.5029216
  51.5472078  22.0371938  31.1546946  53.0077600  21.9218469  30.1603556
  50.7868147  24.6331096  30.8127666  51.4322138  25.0949121  31.5599632
  50.3575516  25.4304504  30.2060723  49.5461798  23.8064480  31.4388418
  49.8816442  23.0231810  32.1185875  48.8607502  24.4783878  31.9553518
  49.0157175  23.2767272  30.6475759  54.0395069  24.1956043  28.9616537
  54.8812962  24.5186377  29.7685361  54.2500305  23.5441494  27.8404784
  53.5509586  23.5903192  27.1129656  55.5702019  23.0479145  27.3922896
  56.1667252  22.6229286  28.1995392  55.3202057  21.9986463  26.3275528
  54.5412445  22.2288418  25.6006908  56.2376881  21.8353891  25.7621551
  54.8842192  20.6147242  26.8582726  55.6100988  20.2692485  27.5943732
  53.9589787  20.7906771  27.4069691  54.6427202  19.5296621  25.8805227
  54.2911053  19.7448683  24.7327375  54.7669744  18.2972097  26.2737179
  54.7160769  17.5919104  25.5525637  55.3153801  18.0908382  27.0963717
  56.4810991  24.1450644  26.8478918  57.6092815  23.8734889  26.3858318
  55.9844971  25.3754425  26.8573403  55.0941849  25.4588342  27.3269153
  56.5465593  26.5756154  26.1840034  57.6067829  26.3280106  26.1318707
  55.8618069  26.6726780  24.7939610  54.7743940  26.6060352  24.8284817
  55.9112310  27.6311326  24.2772198  56.5045452  25.6427383  23.9536119
  57.6071644  25.7464337  23.5622311  55.7841349  24.5555210  23.8142228
  56.2029982  23.7026262  23.4718347  54.9875879  24.6852612  24.4214916
  56.4620972  27.7726936  27.0236301  57.0811653  27.8037381  28.0660248
  55.8613539  28.8627052  26.5813351  55.5388498  28.8663411  25.6242132
  55.7704639  30.2577877  27.2462416  56.7625141  30.6267095  27.5066853
  55.2262259  31.2364626  26.1745167  54.3048334  30.7479382  25.8575368
  55.0342894  32.2352695  26.5664959  56.2652445  31.4414763  25.0634623
  55.8701706  31.8497968  23.9294648  57.5514603  31.4017034  25.2645969
  54.8562765  30.3467846  28.5444140  54.8035669  31.3776398  29.2433310
  54.0327692  29.3181396  28.7165642  54.2370081  28.5649562  28.0753899
  53.0626059  29.0765929  29.8172283  52.4808598  28.1708407  29.6460915
  53.7490845  28.5600328  31.1215806  53.0728960  28.0014062  31.7687321
  54.3715191  27.7526712  30.7357788  54.6295214  29.5532870  31.8100047
  55.5464125  29.7120786  31.2423730  54.0955019  30.4829144  32.0067549
  55.1483345  28.9522433  33.0936170  54.4231462  28.3667183  33.6587381
  55.8247519  28.1219912  32.8905416  55.9029007  29.9694347  33.9609599
  55.3148222  30.6423593  34.4315314  57.1778202  30.1633382  34.1654944
  58.0270672  29.3590450  33.6564732  57.7693367  28.5130668  33.1686258
  59.0156937  29.4473314  33.8433766  57.6168299  31.1494350  34.8635483
  56.9545174  31.7882872  35.2798533  58.6219931  31.2398529  34.9032855
  52.0434761  30.2357864  30.1130986  51.3768673  30.2469897  31.2182641
  51.7545319  31.0706210  29.1179609  52.0802546  30.8496475  28.1878138
  51.1287975  32.4086785  29.4088101  50.5647087  32.3470855  30.3394628
  52.2707939  33.4422660  29.4489050  52.8628159  33.2687831  28.5502815
  51.7561722  34.8440146  29.5091391  52.6236248  35.4783273  29.6915817
  51.2355566  35.1343966  28.5965943  50.9874105  35.0451493  30.2552247
  52.9915810  33.2879734  30.6595492  53.4367323  32.4494219  30.5171633
  50.1751995  32.8029060  28.2830310  50.4445457  32.6297998  27.1093845
  49.0464497  33.4603262  28.6284423  48.7929678  33.6180925  29.5933080
  47.9924345  34.0114927  27.7317619  47.9567528  33.5825229  26.7303562
  46.5954542  33.6131406  28.3010745  46.4839172  34.1496444  29.2433190
  45.7231951  33.9299011  27.7292991  46.4239407  32.1319938  28.4877563
  46.4274263  31.2805200  27.3306179  46.7121792  31.6305709  26.3494039
  46.1693192  29.9069166  27.4381757  46.0843563  29.3204856  26.5352488
  45.8359575  29.3939090  28.7656760  45.3815174  28.4170270  28.8404465
  46.1105394  30.1829910  29.9338317  46.1449480  29.6986437  30.8985233
  46.2578201  31.5686131  29.7164893  46.3916016  32.1551061  30.6134439
  47.9196310  35.5161667  27.6335764  48.4206295  36.2700319  28.4185410
  47.4299097  35.9787798  26.4587712  47.3076868  35.2290297  25.7931542
  47.1537352  37.3509598  26.1746693  47.6283646  37.9940772  26.9157720
  47.6757717  37.7232456  24.7528124  46.9956589  38.5022950  24.4083834
  48.7440109  37.9399014  24.7478247  47.5441074  36.9511414  23.9947748
  45.6579113  37.5576258  26.2885213  44.8644352  37.1484900  25.4739118
  45.3434467  38.2480526  27.3884416  46.0426140  38.5471439  28.0531263
  43.9145184  38.6961913  27.5135517  43.3587599  37.9680443  26.9227600
  43.4003115  38.7189317  28.9758110  43.9529181  39.4831848  29.5222926
  41.8879652  39.0338516  29.1105151  41.3204622  38.2908916  28.5501122
  41.4373827  39.0690327  30.1024032  41.7860460  40.0475216  28.7229729
  43.4695053  37.3245406  29.6309400  42.9649115  36.6392040  28.9499116
  44.4946289  36.9542074  29.6221399  43.0576277  37.3249602  30.6401253
  43.7379360  40.1063728  26.9476891  44.3262911  41.0461092  27.4002051
  43.0790091  40.2271414  25.8330870  42.7501011  39.3587637  25.4357958
  42.7472734  41.4709902  25.1674724  43.6759520  42.0139694  24.9918985
  42.1123171  41.1786604  23.8218975  41.1548662  40.7058525  24.0406299
  41.8783188  42.1605778  23.4105754  42.8339624  40.4135942  22.6857162
  43.2632637  39.4889140  23.0714369  41.8074369  40.0966549  21.5464044
  40.9844160  39.4371200  21.8216443  41.5668344  41.0808992  21.1445665
  42.3341131  39.6397400  20.7085824  44.0394306  41.2161732  22.1630168
  43.7972116  42.2314119  21.8488145  44.8603106  41.2260246  22.8800726
  44.3453121  40.6780291  21.2658334  41.8411303  42.2983408  26.1032915
  40.9711218  41.7977476  26.8394661  42.1176958  43.6118126  26.1937881
  42.8739357  44.0785503  25.7138300  41.2802124  44.4962645  26.9673014
  40.7371807  44.0381908  27.7939820  42.2055769  45.5262566  27.5859928
  43.0095482  45.0579596  28.1538177  42.7291870  46.1313009  26.8458200
  41.6921759  46.2928391  28.1663990  40.3139639  45.1345873  25.9693670
  40.6606102  46.1331654  25.2684402  39.0765309  44.6371126  26.0013223
  38.9598370  43.8245249  26.5896988  38.0661488  44.8922777  24.9002910
  38.4727502  44.5597649  23.9451933  36.8022776  44.0969515  25.1664901
  36.3406038  44.2537880  26.1413550  36.0176229  44.3931007  24.4702792
  37.0611095  42.5822830  25.1739168  37.1755338  41.9020224  23.9147568
  37.1123815  42.4193430  22.9688239  37.5852609  40.5610085  23.8805914
  37.6342916  40.0388050  22.9365015  37.8931141  39.9338746  25.0885797
  38.2958078  38.6548448  25.1341701  37.9879045  38.1001139  25.8546352
  37.8372693  40.6811285  26.2962461  38.3185172  40.3108215  27.1893740
  37.3281264  41.9814825  26.3516998  37.3612237  42.4975061  27.2998738
  37.7534533  46.4137840  24.8547912  37.0993948  46.8623972  25.7830739
  38.1193185  47.2398949  23.8614297  38.7753868  46.8403959  23.2056308
  37.5995064  48.5635948  23.4834933  37.8741241  49.2946959  24.2438698
  38.3519983  48.9755154  22.2097588  38.4435773  48.0909729  21.5794420
  37.7658272  49.7587729  21.7291284  39.6257973  49.4000483  22.6224566
  40.1087141  49.6358585  21.8269753  36.0631585  48.5243988  23.2195377
  35.3950334  49.5343399  23.3691931  35.5697584  47.3522139  22.8552556
  36.2405801  46.6078520  22.7286792  34.1585231  46.9758844  22.7259779
  33.5534382  47.2702217  23.5834980  33.5759568  47.5503683  21.3905430
  33.5156274  48.6381435  21.3557410  34.2435479  47.2075796  20.6000280
  32.1668911  47.0513344  20.8784699  31.5860558  46.0989571  21.4183640
  31.6187572  47.7637863  19.8978245  30.6772709  47.5088692  19.6356750
  32.1429086  48.5399008  19.5196557  34.0822315  45.4377365  22.6431918
  34.6576333  44.8372793  21.7755914  33.4569168  44.7544861  23.6323643
  33.2415128  45.3406334  24.4261718  33.5123992  43.3046436  23.7375450
  34.5323586  43.0168581  23.4826684  33.2953835  42.7574253  25.1844478
  34.0356922  43.2590866  25.8076501  31.9249916  42.9862165  25.7906651
  31.7398620  44.0467119  25.6198549  31.2121463  42.3975563  25.2132297
  31.8501496  42.8019428  26.8623662  33.4881210  41.2653589  25.2276397
  32.5991154  40.7412195  24.8768449  34.3662262  40.9715128  24.6525884
  33.6152744  40.9925222  26.2752533  32.6309419  42.6033497  22.7118421
  32.9752159  41.4349890  22.3739767  31.5588999  43.2368851  22.2688031
  31.3753533  44.1832113  22.5702691  30.7859993  42.6646376  21.0693693
  30.3974581  41.6855669  21.3496518  29.6072483  43.6114597  20.7148075
  29.9227118  44.5717955  20.3069663  28.9587021  43.1326628  19.9811554
  28.7664437  43.7426949  22.0066071  29.1295052  44.4214630  22.7783394
  27.8120685  44.1513872  21.6745877  28.3954287  42.3988247  22.6291323
  27.7629805  41.5380716  21.9947624  28.7240744  42.2165728  23.9518690
  28.5010338  41.3786983  24.4698620  29.0574574  42.9935455  24.5043802
  31.7078185  42.5462484  19.7765601  31.9416571  41.4548588  19.3667042
  32.2345376  43.6759758  19.2675853  32.0273948  44.5215416  19.7796500
  33.0169010  43.7299442  18.0078876  32.5630236  43.0589914  17.2785580
  33.1299019  45.1633978  17.5394666  33.5596037  45.7263851  18.3680224
  33.8817072  45.2624464  16.7564702  31.7915964  45.7522774  16.9097614
  30.9660912  45.6384611  17.6123929  31.9971657  46.8108034  16.7504895
  31.4876080  45.3256941  15.4912543  31.9198585  44.1793633  15.1327157
  30.7158375  46.0485125  14.7939909  34.4201779  43.0831575  18.2986212
  35.1511383  42.8342772  17.3907006  34.8053956  42.9070091  19.5809567
  34.1733885  43.0148506  20.3613663  36.0986876  42.3376322  20.0852156
  36.0289550  42.2604465  21.1702394  36.4069963  40.8752489  19.5576072
  36.5401506  40.9545422  18.4786808  37.3846269  40.4890680  19.8460531
  35.3776288  39.7913289  19.9140954  35.3427005  39.6791172  20.9977412
  34.4821477  40.2088070  19.4537354  35.7025981  38.4243679  19.3288398
  35.9283638  38.4792781  18.2638872  36.5232491  38.0900502  19.9635553
  34.5514274  37.5415564  19.5505774  33.7291265  38.0915213  19.7542059
  34.4043899  36.2797999  19.8716700  35.4247379  35.4636097  19.8809409
  36.3191724  35.8518267  19.6175551  35.1982665  34.4795609  19.9023890
  33.2676959  35.7625294  20.0781012  32.4114490  36.2977362  20.0557971
  33.2043362  34.7667933  20.2349210  37.2741365  43.3222055  19.9797499
  38.3361077  43.0090523  20.4733062  37.0641971  44.4571877  19.3013287
  36.2694383  44.6415138  18.7059450  38.0778337  45.4894924  19.0830767
  38.7495470  45.0675344  18.3355129  37.3970127  46.7954302  18.6555660
  36.7945981  46.5713501  17.7752304  36.7431402  47.1331787  19.4596028
  38.2461929  48.0783558  18.2792819  37.6083279  48.7720346  17.7315295
  38.4966350  48.6454678  19.1758096  39.5736814  47.7887630  17.5207663
  39.4083714  47.3271894  16.3660038  40.6912422  47.8342724  18.0598831
  38.8906956  45.8060074  20.4193521  38.2235575  45.7567883  21.4903712
  40.1928949  46.0706139  20.3578663  40.5739498  46.1671162  19.4274962
  41.1054134  46.3584805  21.5137649  40.7125092  47.0645285  22.2453570
  41.3304186  44.9781370  22.2088170  40.5266762  44.8567629  22.9350185
  41.2798691  44.1731548  21.4756346  42.2665501  45.0577450  22.7614665
  42.4454832  47.0083618  20.9666133  42.8685331  46.7133713  19.8256040
  43.1496716  47.6940536  21.8638945  42.5652122  48.0109215  22.6242280
  44.5336866  48.1302404  21.7137384  44.9244595  47.8419256  20.7378960
  44.6521187  49.6109104  21.7450643  43.8888168  50.0768518  21.1218715
  44.3738031  49.8642445  22.7680302  45.9158087  50.4222202  21.4972925
  45.9612226  51.3701391  22.0334744  46.6867304  49.8188066  21.9765353
  46.3259983  50.5733442  20.0642395  46.3316631  49.6361542  19.2889929
  46.7610502  51.6848803  19.7621584  45.4488754  47.4263382  22.7977633
  46.5829706  47.0737600  22.4984241  45.0456572  47.3666382  24.0597415
  44.1367197  47.6875877  24.3612814  45.8803177  46.9491959  25.2372646
  46.8532467  46.5860415  24.9061489  45.9798336  48.1424952  26.2606931
  45.1207161  48.2864475  26.9159007  46.7278099  47.7794695  26.9655609
  46.4495516  49.4721079  25.7331038  45.4770327  50.3384209  25.1317501
  44.4653511  49.9945498  24.9747300  45.8425665  51.6758156  24.8462462
  45.1370764  52.3606968  24.3994474  47.1418619  52.2112083  25.1407433
  47.4302673  53.1660461  24.7266126  48.1025600  51.2338734  25.5912423
  49.1498852  51.4746380  25.6987023  47.7314758  49.9138784  25.9094095
  48.4994030  49.2729282  26.3166857  45.4158783  45.6888199  25.9022903
  44.3990707  45.1501274  25.4555917  46.0578251  45.2395153  26.9606328
  47.0081043  45.5460072  27.1127677  45.6954193  44.0096998  27.6699948
  44.7596884  43.8726616  28.2119584  45.7449484  43.3088923  26.8366122
  46.7812014  43.6201906  28.6486816  47.7853823  44.3188286  28.7659478
  46.6899920  42.4770737  29.3369913  45.8981848  41.8884230  29.1210556
  47.6449108  42.0296764  30.3290081  48.6033487  42.5381279  30.2242231
  47.0427895  42.1192122  31.7936325  46.0165262  41.7630863  31.7038751
  47.8125620  41.4043951  32.9328132  47.6684475  40.3301620  32.8172112
  48.8746214  41.6433573  32.8777885  47.3573112  41.6443491  33.8936830
  46.9949818  43.5282326  32.0460844  46.3896179  43.9238167  31.4146996
  47.8541470  40.5516720  30.0191784  46.9486570  39.8455048  29.5300603
  49.0972376  40.1130772  30.3039360  49.8118496  40.7456732  30.6344891
  49.4671822  38.6812472  30.1083660  48.8488102  38.3046985  29.2935467
  50.9048796  38.3851194  29.6749425  51.0265207  37.3424816  29.3813157
  51.4847422  39.2108941  28.6259174  52.4046135  38.6737037  28.3949232
  50.8524513  39.2667842  27.7398086  51.6947746  40.2097845  29.0082788
  51.7684650  38.5160780  30.7463193  51.2602758  38.2077479  31.5001607
  49.0706587  37.9240966  31.3855720  49.5946836  38.2695055  32.4304295
  48.2145023  36.9023728  31.2932348  47.8402758  36.7100382  30.3750515
  47.9464865  35.9280324  32.3332477  48.0736351  36.5022922  33.2509398
  46.4618778  35.5840492  32.2913432  45.8198023  36.4223480  32.0209932
  46.3085699  34.8396921  31.5099788  46.1677170  35.1287079  33.2369781
  48.8745928  34.6948600  32.3902559  48.9388514  33.9426231  31.4429903
  49.6706247  34.5049167  33.4347701  49.5536470  35.0850677  34.2532086
  50.6126070  33.3256674  33.5924649  50.8825779  33.0091786  32.5849676
  51.9050169  33.6653423  34.2932725  52.4232864  34.1088367  33.4430909
  51.6545820  34.3832254  35.0743103  52.7147293  32.4712396  34.9337888
  52.1764374  31.9082284  35.6962562  52.9482317  31.8308926  34.0831804
  54.0609741  32.9386234  35.5528283  54.0506029  33.6599779  36.5748334
  55.0766325  32.3850560  35.0704598  49.7633600  32.2561789  34.2813230
  49.2257404  32.5017142  35.3944683  49.7516775  31.0513020  33.6526036
  50.3450298  30.8736944  32.8548002  49.2413425  29.8386455  34.3344712
  48.2523346  30.1691270  34.6518826  49.3437958  28.6076164  33.3172536
  50.3585196  28.4576964  32.9485154  48.8455009  27.3260403  34.0446520
  48.6467934  26.5491581  33.3063626  49.5556402  26.9513440  34.7818160
  47.8694439  27.4876475  34.5021439  48.4473562  28.8425350  32.1021748
  47.4539900  28.6412692  32.5031996  48.4928322  29.8743224  31.7536712
  48.6847019  27.9352617  30.8739424  49.6981573  28.1213260  30.5184150
  48.6011267  26.8808675  31.1373281  48.0000257  28.2055616  30.0700426
  49.9852657  29.4514585  35.5989718  51.2243843  29.5116878  35.5346584
  49.3276644  29.0539932  36.7141604  48.3235645  29.1326404  36.7896199
  49.9363947  28.3571720  37.9025555  50.9397554  28.0281568  37.6321435
  50.1519442  29.3694997  39.0255308  50.8722687  29.0198040  39.7650886
  50.6143093  30.2787161  38.6412907  48.8410997  29.7438455  39.7238541
  48.3525944  28.9298987  40.7663536  48.9380550  28.0543041  41.0050344
  47.0289469  29.1343093  41.1600447  46.5602350  28.4773302  41.8777418
  46.2254572  30.2267504  40.6953430  44.9209929  30.2775812  41.0584736
  44.6266508  29.6226025  41.6956282  46.8023634  31.1401176  39.7976279
  46.2661457  31.9511342  39.3273878  48.0852985  30.8504510  39.2846918
  48.5395956  31.3533759  38.4438038  49.2692041  27.0916152  38.4707546
  49.8863840  26.4372039  39.3122149  48.0966330  26.7391324  37.9628801
  47.6086521  27.2976518  37.2772884  47.5780201  25.4303861  38.1980371
  48.2807350  24.6651173  38.5276771  46.4561892  25.5542612  39.2311907
  45.7513094  26.2187648  38.7315106  45.9439421  24.5969796  39.3277144
  46.6862679  26.0975337  40.1477194  46.8984890  24.9171376  36.8646407
  46.4675665  25.7241344  35.9853935  46.8963289  23.5931182  36.7372799
  47.1140099  23.0397940  37.5537014  46.5067768  22.8092408  35.5094886
  45.6738329  23.2995582  35.0056028  47.7642155  22.8193974  34.6319509
  48.0114174  23.8264036  34.2958951  48.5705614  22.5364184  35.3085780
  47.8631067  21.8013644  33.5487366  46.7484951  21.3556647  32.8629684
  45.8216858  21.8992114  32.9724121  46.8864727  20.4209709  31.8977332
  46.1069775  20.1037550  31.2208581  48.1429195  19.7844112  31.6421509
  48.2818556  18.9234316  30.5575156  47.4938822  18.4259629  30.3268099
  49.3234205  20.1630735  32.3743367  50.3317881  19.7951138  32.2551656
  49.1430140  21.1230206  33.3662844  49.9496365  21.4376712  34.0118504
  46.1925173  21.3488507  35.9023118  46.8717766  20.7038641  36.6682100
  45.0922203  20.8189797  35.3537345  44.5100403  21.4403296  34.8105097
  44.6755600  19.4067144  35.3510857  45.5334949  18.7694573  35.5654335
  43.5759592  19.1502762  36.4162517  42.8340673  19.9481308  36.3826251
  43.1586742  18.1806362  36.1446238  44.0141392  19.0610838  37.8703570
  44.5395374  18.1254005  38.0615401  44.6459866  19.9236345  38.0821991
  42.7890682  19.1687858  38.7556887  43.0655146  19.2574942  39.8063111
  42.2875452  20.1314664  38.6565828  41.7202854  18.2299101  38.4096169
  40.9243202  18.6165202  37.9227114  41.5095186  16.9541240  38.6507273
  40.3288174  16.3611555  38.3619142  39.6603823  16.9358349  37.8689241
  40.2475929  15.3596616  38.4644485  42.3321199  16.2262332  39.3276358
  43.0378866  16.6774476  39.8919034  42.2044897  15.2293110  39.4274068
  43.9888477  19.0822387  33.9675045  43.5052776  19.9582326  33.2769251
  43.8359022  17.8153419  33.5733581  43.4446049  17.7443802  32.6449442
  44.2637873  16.5747797  34.2557096  44.9085712  16.8635404  35.0857568
  45.0211573  15.5587649  33.3144283  45.6121969  14.9106646  33.9615297
  44.2981482  15.0014627  32.7187991  46.0002518  16.2018561  32.3294330
  46.6413164  16.9398499  32.8116226  46.7420387  15.4582083  32.0381570
  45.4737234  16.7896557  31.0297155  46.1707640  17.5285017  30.3469777
  44.2640877  16.5344942  30.6744361  43.0203581  15.8318472  34.8597670
  43.1306171  14.9663663  35.6970596  41.8194008  16.1491954  34.3509293
  41.7738199  16.6871309  33.4973168  40.5643988  15.5225205  34.7127438
  40.4468346  15.3725266  35.7859540  39.3276930  16.3262367  34.2119479
  39.2633581  16.1803174  33.1336761  38.3917308  15.9699416  34.6422100
  39.4301796  17.8050339  34.4570160  40.3495312  18.2206297  34.0444946
  38.5988259  18.1876266  33.8649225  39.2463660  18.1871092  35.9067631
  39.9006009  19.1484916  36.2724590  38.4896302  17.5798142  36.7062736
  40.3991222  14.0671599  34.2432046  39.8215461  13.2350230  34.9116921
  40.8473587  13.7599194  33.0414510  41.2607050  14.5154274  32.5137591
  40.6261063  12.4736536  32.3383498  40.3797245  11.8015587  33.1603551
  39.2861080  12.5184262  31.5846109  39.0939093  11.4948690  31.2629056
  38.5000300  12.8640091  32.2559929  39.2603874  13.5688627  30.4816175
  38.2553363  13.6136091  30.0621295  39.2738771  14.5806909  30.8867383
  40.2449846  13.3213031  29.3833327  40.3815126  12.2968590  28.6792803
  41.0505342  14.3323469  29.1382813  41.7975378  14.2385447  28.4650135
  41.0655069  15.1079369  29.7850704  41.8310404  11.8191767  31.5319610
  42.8449059  12.3901784  31.3950801  41.7218304  10.5262208  31.1182952
  40.8823347  10.0512135  31.4178252  42.5533342   9.7935212  30.1527381
  42.8594446  10.5747259  29.4569540  43.6908817   8.8733613  30.7408285
  43.2209778   8.2607555  31.5102482  44.0044260   8.0614018  30.0846934
  44.8837709   9.7065890  31.1072874  45.4706049  10.4162538  30.2478337
  45.1333332   9.7563297  32.3128819  41.5887785   8.9202994  29.3437743
  40.8737278   8.1364095  29.9796486  41.4819098   9.1610581  28.0492878
  42.0506191   9.8940003  27.6499557  40.6406736   8.4246290  27.1038365
  40.8338928   8.8130909  26.1039042  40.9527636   6.9384140  27.1050358
  40.2237892   6.5075845  27.7913904  40.6304359   6.5624273  26.1340380
  42.3546314   6.4967632  27.6088595  42.5578594   5.6434762  28.6859965
  41.6628933   5.4324234  29.2524743  43.8538980   5.0989932  29.0356445
  43.9943314   4.4218975  29.8652339  44.9346113   5.4470325  28.2468009
  45.9140921   5.0521010  28.4727597  44.7152424   6.1438000  27.0788670
  45.5887842   6.3267726  26.4707208  43.4995794   6.6877902  26.7685962
  43.3249426   7.2646803  25.8724380  39.1842532   8.8611132  27.1524286
  38.3869290   8.3609551  26.3647962  38.8403821   9.8097551  28.0088067
  39.5641279  10.4026747  28.3892584  37.5207639  10.4626596  28.1830835
  36.7404938   9.7025937  28.1433702  37.4761009  10.9715939  29.1459441
  37.2258234  11.4580619  27.0980310  38.0255985  11.8035817  26.1978984
  36.0167074  11.9959819  27.1373487  35.3921032  11.7714834  27.8986430
  35.6885600  13.2124209  26.3436961  35.8994484  12.9562867  25.3054142
  34.1955256  13.5570633  26.5875411  33.8977098  13.7217546  27.6230526
  33.9760518  14.9775267  25.9612703  34.3359423  15.7664466  26.6217208
  34.5644069  15.1008236  25.0520158  32.9936051  15.2536476  25.5783129
  33.1784701  12.5464892  25.9580040  33.2460070  12.6586199  24.8758912
  33.3477378  11.5099180  26.2494993  31.7413712  12.8806973  26.3511467
  31.6998959  13.2067871  27.3903990  31.2876368  13.5976136  25.6668520
  31.1036110  11.9969130  26.3341928  36.6263437  14.3888664  26.8006158
  36.5459871  14.7705531  27.9590797  37.4365234  14.9085927  25.8659267
  37.1818137  14.6663129  24.9190784  38.4760189  15.8570778  26.1665773
  39.3130159  15.3465617  26.6429234  39.0236115  16.2707400  24.7624803
  39.4019127  15.3590810  24.3000197  38.1292224  16.6113126  24.2407751
  40.1564646  17.3773694  24.7453856  40.3778601  17.7505612  23.7454772
  39.8510027  18.2788658  25.2765107  41.4065409  16.7980254  25.2879214
  41.5427780  16.5327919  26.4716077  42.2723532  16.2968326  24.4764733
  38.1223655  17.1030331  27.0008469  37.0168185  17.6255178  26.9482255
  39.0601325  17.5172985  27.8357625  40.0214958  17.2350442  27.7083898
  38.8345408  18.6852360  28.7846756  38.5575962  19.5693588  28.2104540
  37.6834989  18.3549893  29.8395872  36.6982555  18.3185053  29.3747568
  37.7824378  16.9805384  30.5214715  36.9516492  16.8619609  31.2170506
  37.6956344  16.2217700  29.7437572  38.6494827  16.8447232  31.1679173
  37.4851441  19.4103706  30.9862852  36.6466260  19.0399444  31.5760088
  38.3308744  19.4575977  31.6722941  37.1985269  20.8254027  30.5003786
  36.4939046  20.8169270  29.6687889  36.9571638  21.5420890  31.2853646
  38.1264114  21.2141132  30.0808144  40.1189232  19.0186834  29.6275783
  40.7835627  18.1810915  30.2536964  40.4643965  20.3166437  29.7069693
  39.8512411  21.0356498  29.3503594  41.6324425  20.8094144  30.4248905
  41.9280243  20.1046801  31.2021184  42.8234720  21.1188221  29.5179892
  42.3812723  21.4031577  28.5631514  43.7641430  22.2040343  29.9542475
  44.6529675  22.2420144  29.3244386  43.3585453  23.2086921  29.8348641
  44.0597773  21.9975924  30.9828806  43.7554836  19.9062908  29.2546082
  44.5171785  20.1880836  28.5276175  44.1739464  19.4540060  30.1537371
  43.0664015  19.1658342  28.8484144  41.2042999  22.0455623  31.2113309
  40.5436897  22.9466152  30.6885815  41.5856314  22.0295668  32.4890041
  42.3820734  21.4376235  32.6771140  41.0471678  22.9477978  33.6044025
  40.4553986  23.7204528  33.1135678  40.1330900  22.2218013  34.6149349
  40.6753445  21.3271499  34.9209809  39.9174953  22.8342128  35.4904747
  38.8341713  21.7616892  33.9434505  38.4510398  22.4584866  33.1979489
  39.0272355  20.7762623  33.5194707  37.7562499  21.4428830  34.9546647
  38.1877995  21.0037971  35.8541465  37.3804832  22.3887825  35.3447604
  36.6748190  20.5648398  34.3965316  36.7746091  20.4048800  33.3229589
  36.8237114  19.5623171  34.7976279  35.3138304  21.0550237  34.7657943
  34.6401763  20.4429603  34.3279934  35.1599741  21.0251069  35.7635593
  35.2080917  21.9883370  34.3945122  42.1978807  23.6103368  34.3850422
  43.0798006  22.8824401  34.8367810  42.2241306  24.9857640  34.4131994
  41.4046001  25.5453897  34.2253566  43.4977293  25.8383417  34.5344186
  44.1729641  25.2167964  35.1225066  44.0946627  26.1485529  33.1007409
  43.2171011  26.3128781  32.4754572  45.1426888  27.2684288  32.8479218
  46.0915041  27.1050072  33.3589506  45.3203011  27.3433065  31.7750978
  44.6847534  28.1398988  33.3158255  44.8449373  24.8797297  32.7338219
  45.2864647  24.8889351  31.7372918  45.6553650  24.7520256  33.4514570
  44.2568779  23.9620686  32.7474761  43.2438135  27.0956588  35.4048777
  42.0983982  27.5393510  35.4320478  44.2498541  27.5230503  36.2298155
  45.1646233  27.1116948  36.1111403  44.2103577  28.8354135  36.8942595
  43.3729982  29.4196153  36.5126276  44.1116238  28.6044669  38.3734608
  45.1358938  28.4366798  38.7063551  43.8160276  29.5173502  38.8905501
  43.1618834  27.5538492  38.9884377  42.1722507  27.8115010  38.6111426
  43.4021187  26.6092396  38.5004830  43.2733059  27.5297761  40.5227232
  44.3246555  27.4125791  40.7854605  42.8491020  28.4245062  40.9783649
  42.6026583  26.2312007  41.0106802  41.5427113  26.2734127  40.7600164
  42.9052353  25.3844309  40.3946257  42.8375721  26.0845995  42.4815559
  43.7904549  26.3216376  42.7180338  42.3676157  26.8476343  42.9474115
  42.4544191  25.2043247  42.7952719  45.4575682  29.6270514  36.5578198
  46.4717770  29.0576220  36.2092924  45.3487253  30.9400058  36.6680408
  44.4290400  31.2524533  36.9449186  46.1947966  31.9290709  36.0858941
  47.2335529  31.6150045  36.1880612  45.8507824  32.0804381  34.6366763
  46.5967464  32.6635575  34.0966773  45.9030485  31.1119723  34.1392398
  44.8448420  32.4944949  34.5678496  46.0136509  33.2821608  36.7755556
  45.0127125  33.5156560  37.4775338  46.9153976  34.2457914  36.5156102
  47.7013254  34.0093231  35.9269691  46.9519997  35.5391407  37.1870756
  45.9213543  35.8379865  37.3782897  47.6725435  35.4412794  38.5583711
  47.0115852  34.9736142  39.2881155  48.9284801  34.5887613  38.5315990
  49.6198606  35.1401162  37.8943348  49.3845272  34.6913028  39.5162868
  48.7332439  33.5582423  38.2349229  47.8918552  36.8589330  39.1216516
  48.4837198  37.4527001  38.4250617  46.9142675  37.3384333  39.1716337
  48.4953117  37.0925570  40.4990387  49.5379686  36.8287945  40.3218317
  48.4068632  38.1447101  40.7696915  47.9644346  36.4876962  41.2341642
  47.7589893  36.5058589  36.1999369  48.7357283  36.2203479  35.5130863
  47.1760941  37.7176428  35.9977174  46.4078474  37.9738688  36.6012430
  47.7590466  38.9024520  35.3503895  47.6988220  38.8245773  34.2648458
  47.0853710  39.7211432  35.6033802  49.1175365  39.4182515  35.9192276
  49.1771460  39.7404790  37.1227217  50.0758171  39.5149231  34.9940133
  49.9233484  39.3521762  34.0089417  51.5312767  39.7626519  35.3192568
  51.6004848  39.7542191  36.4070249  52.4227095  38.6088109  34.7437835
  52.2315407  38.5095406  33.6752796  53.4881783  38.8376570  34.7211075
  52.3688555  37.1764684  35.3654361  51.4806938  36.6887426  34.9636984
  53.2612896  36.6324520  35.0560832  52.3098087  37.1723723  36.8793750
  53.0870962  37.8568816  37.2190380  51.3125992  37.5720501  37.0635986
  52.5273466  35.8833814  37.4485087  52.8870773  35.0927043  36.9332218
  52.5151205  35.5530596  38.7806702  52.2081184  36.4108729  39.7067499
  51.7741394  37.2831345  39.4404316  52.1365547  35.9758377  40.6154442
  52.8961897  34.3613672  39.1492152  53.2441759  33.6309886  38.5446048
  53.3570194  34.3413973  40.0477362  52.0211887  41.1050320  34.8734283
  52.7610302  41.7455149  35.6636167  51.8557549  41.5021658  33.6371946
  51.2796879  40.8971405  33.0695724  52.4759674  42.6094437  32.9458785
  52.7212477  43.4405327  33.6071110  53.9067221  42.1807766  32.5308323
  54.3043232  41.7705059  33.4591031  53.8355684  41.4365625  31.7376232
  54.5759773  43.4733629  32.2517586  54.1479349  43.8972425  31.3433504
  54.4276476  44.2358351  33.0164361  56.1066675  43.3927011  32.0384693
  56.7358780  42.3337555  31.9599748  56.7204523  44.4687271  31.8260145
  57.6478720  44.4289446  31.4279985  56.1657619  45.3018665  31.6907620
  51.5525007  43.0944395  31.7869186  50.9112215  42.2811460  31.0837340
  51.4318991  44.3997478  31.6307306  51.9516659  45.0043917  32.2506905
  50.6881905  45.0533438  30.5557013  49.6929932  44.6130037  30.4942012
  50.5097055  46.5590143  30.8188868  51.5486097  46.8841839  30.8740377
  50.0559092  47.0097876  29.9362946  49.6334934  46.7953825  32.0666647
  48.5801935  46.8342209  31.7889118  49.7901964  46.0894012  32.8822231
  50.1325893  48.1320810  32.6385784  49.4416094  48.3786345  33.4447193
  51.1132193  47.9543066  33.0800104  49.9558258  49.1655445  31.6429210
  49.0088272  49.2682362  31.3071394  50.9365988  50.0541592  31.3074136
  52.1233368  49.9894428  31.7890596  52.5122690  49.2365026  32.3385310
  52.6527452  50.7950497  31.4876938  50.7050037  50.9179926  30.4025292
  49.7726488  51.0026646  30.0235200  51.5269613  51.4316797  30.1185989
  51.3187742  44.7663450  29.1726947  52.5118971  44.5598793  29.0230060
  50.4956722  44.9652863  28.1737018  49.5159006  45.0171566  28.4134173
  50.9171534  45.0158691  26.7439342  51.9529533  45.3465700  26.6674209
  50.8795929  43.6085081  26.1693072  51.3475657  43.7034321  25.1894641
  51.6596699  43.1060362  26.7412329  49.5705271  42.8284693  26.2266994
  48.5635900  43.0421829  25.2699614  48.5182238  43.9625978  24.7067738
  47.5282097  42.0991850  25.1735115  46.6434669  42.1701193  24.5582032
  47.4653244  40.9501410  25.9752679  46.6631079  40.2433777  25.8224797
  48.4847403  40.8048391  26.9715214  48.4763432  39.8994613  27.5602674
  49.5371771  41.7522287  27.1454740  50.2641487  41.6546965  27.9381871
  50.0860643  46.0082436  25.9231639  48.9187098  46.2569523  26.2897658
  50.6399965  46.3758230  24.7676325  51.6193962  46.1732960  24.6267033
  49.9385405  47.0759392  23.7170506  48.9004946  47.1964216  24.0269542
  50.5362654  48.4938383  23.5628867  50.5852079  49.0912867  24.4732523
  51.4358044  48.4188747  22.9518938  49.6403503  49.3382549  22.6500463
  49.4337606  49.0037632  21.6334128  48.6078787  49.4729424  22.9724884
  50.2181959  50.7959795  22.4246883  49.9860430  51.3798523  23.3153582
  51.2922192  50.7553053  22.2432518  49.5196390  51.5383863  21.3042355
  49.7307777  51.0438395  20.3561091  48.4421062  51.5504646  21.4681935
  50.0529671  52.9106903  21.1914253  50.0941420  53.3267641  22.1108198
  51.0065937  52.7843761  20.8836269  49.5092344  53.4109211  20.5027819
  50.0525045  46.1260891  22.4676514  51.1202431  45.8046865  22.0612669
  48.9018917  45.8070660  21.9019270  48.0592918  46.0842276  22.3849487
  48.7578964  44.8726463  20.7356000  49.1657257  43.9094591  21.0422635
  47.2084808  44.6268988  20.5060101  46.7195797  45.5585289  20.2211428
  47.0939589  43.6234760  19.3685305  47.5482988  42.6468325  19.5353770
  46.0290051  43.5026979  19.1700578  47.4528742  43.9933348  18.4080696
  46.4658833  44.0540504  21.6983986  45.4322243  43.8331079  21.4322376
  46.9485188  43.1258726  22.0044112  46.4015198  44.7765636  22.5119901
  49.2900038  45.4459620  19.3968749  49.1510630  46.6193295  19.0502083
  49.9966860  44.5946503  18.6440790  50.1268482  43.7127018  19.1187608
  50.5445147  44.8413038  17.2880971  50.5696487  45.9196472  17.1310890
  51.9372416  44.2225027  17.2392154  51.7358112  43.1718445  17.4481261
  52.3102236  44.2605448  16.2157226  52.9898930  44.7845554  18.2369041
  52.5357103  44.7864962  19.2277706  54.1904545  43.8234711  18.3104253
  53.9483643  42.9334021  18.8911748  54.5327616  43.6172628  17.2963214
  55.0631714  44.3037605  18.7529147  53.3749294  46.2230396  17.8720045
  53.8541222  46.6489220  18.7535334  54.0590715  46.2304163  17.0234764
  52.4838829  46.7572308  17.5421822  49.7052193  44.2649698  16.1995935
  49.4593143  44.9565458  15.1942539  49.1758299  43.0489969  16.3575161
  49.4111204  42.5776482  17.2192478  48.4860373  42.3056412  15.2005398
  47.6990604  42.9941797  14.8928499  49.4361448  41.9632626  14.0401042
  49.7082043  42.9211187  13.5967076  50.3144693  41.4384556  14.4159079
  48.7314272  41.1426210  12.8940284  48.4088755  40.1410961  13.1786418
  47.8537321  41.7699146  12.7382767  49.6163702  41.0278368  11.6269422
  50.3335142  39.9967909  11.5318632  49.5877409  41.9265175  10.7815552
  47.8345966  41.1094666  15.8267248  48.3547831  40.3998804  16.6285634
  46.5730047  40.9187937  15.5709767  46.1148548  41.4121199  14.8180938
  45.8283043  39.7113395  15.9967601  46.3043785  39.1785431  16.8199182
  44.3433905  40.0447273  16.3714671  43.7113094  40.1109028  15.4859197
  43.9947987  39.0992308  16.7869353  44.1041374  41.1462450  17.4073470
  44.7273636  40.9417439  18.2779074  44.2464733  42.5883245  16.9685447
  43.6959219  42.7606678  16.0437214  43.8837099  43.2793236  17.7294815
  45.2889776  42.8085899  16.7388451  42.7116871  41.0042286  17.8719020
  42.0777893  41.1344051  16.9947910  42.5665140  39.9839067  18.2268226
  42.4644566  41.7226791  18.6534429  45.7397032  38.7177515  14.7808111
  45.7545900  39.1741514  13.6315691  45.5559587  37.4175406  15.0372005
  45.5335808  37.1773744  16.0179806  45.4263544  36.2819386  14.0159714
  44.8000431  36.6176581  13.1894529  46.7630577  35.8426738  13.3055413
  47.3065662  35.3982663  14.1393316  46.5297747  34.9997020  12.6550961
  47.5998020  36.9036579  12.5677633  46.9714355  37.5596833  11.9653630
  48.0544949  37.5202060  13.3431542  48.6860418  36.2909961  11.7454779
  49.3046379  35.6501198  12.3737454  48.0933380  35.7636762  10.9979904
  49.4780922  37.3052740  11.0948813  49.4974995  38.2452393  11.4639223
  50.1388979  37.1782136   9.9755263  50.6471872  38.1757951   9.3541950
  50.5473614  39.0730762   9.8069918  51.1431646  38.0073547   8.4906375
  50.2307177  36.0676050   9.4072026  49.7151709  35.2955604   9.8050255
  50.7801676  36.1003518   8.5603660  44.6273565  35.1673555  14.6650171
  44.6930122  34.9428058  15.8734334  44.1098404  34.3142295  13.8279867
  44.1373014  34.4626069  12.8293216  43.6924791  32.9535079  14.2636502
  43.0522108  32.9338408  15.1455617  43.0125761  32.2388196  13.0775094
  42.5401258  31.3148165  13.4108460  42.0231438  33.1127739  12.2943306
  41.3263083  33.6574149  12.9314172  42.6244593  33.8776374  11.8028939
  41.3822365  32.4823689  11.6779470  43.9782524  31.8735194  12.0997393
  44.0668821  30.9176826  12.1107590  44.8834991  32.1787333  14.6837080
  46.0950947  32.5672078  14.4453037  44.5130682  31.0251307  15.2552509
  43.5500813  30.9669328  15.5541956  45.4040241  29.9888301  15.7294667
  46.3339710  29.9897695  15.1608706  45.7162189  30.3329015  17.1659374
  45.8061028  31.3884640  17.4224722  44.8156691  30.0901437  17.7300119
  46.9272375  29.4957209  17.6406729  46.8912411  28.4534574  17.3236692
  47.8545284  29.9543738  17.2973502  47.0178699  29.4157434  19.1387808
  46.0946846  29.4946885  19.8790753  48.2264328  29.3343735  19.6195018
  48.3589792  29.4415927  20.6150103  49.0375710  29.2724156  19.0209055
  44.8865414  28.5893679  15.6780899  43.7964821  28.2999825  16.1385143
  45.5792761  27.7287149  14.9414778  46.4862156  27.9911852  14.5827723
  45.1777411  26.2793088  15.0767481  44.7348213  26.0325694  16.0416532
  44.0559340  25.8419967  14.0479672  43.2469273  26.5713167  14.0892553
  44.5337296  25.7937336  13.0694568  43.5055828  24.6112323  14.5541286
  42.6120281  24.4698238  14.2329383  46.4410973  25.4547262  14.9029171
  47.0869017  25.6754112  13.8604546  46.7821360  24.4909024  15.7275987
  47.6030159  23.9963984  15.4086542  46.2011766  24.1060400  17.0759225
  45.1858425  23.7325644  16.9428313  46.9897032  22.9970932  17.8159142
  48.0327129  23.2953238  17.9221618  46.5967655  22.8573847  18.8229859
  46.8575811  21.6157055  17.1134937  47.2136354  20.5913162  17.7239764
  46.2316132  21.5538096  16.0382998  46.0447407  25.3878856  17.9420614
  46.9803286  26.1612153  18.1483412  44.8062038  25.6075478  18.4199643
  44.1131496  24.8757505  18.3547986  44.3546200  26.7077088  19.2210150
  44.1164398  26.2741399  20.1922965  45.2298594  27.3094511  19.4658840
  43.1460142  27.4860597  18.7819886  42.2870159  26.8658590  18.2199860
  43.0626345  28.7543440  19.1147709  43.8225412  29.2544842  19.5535243
  41.8888044  29.5341468  18.6976683  41.3540220  29.0480447  17.8816891
  41.0026026  29.6473503  19.9934864  40.7887125  28.6340952  20.3335786
  41.7726135  30.3517318  21.1475110  42.6969671  29.8268390  21.3886642
  41.9440079  31.4102507  20.9518933  41.1787510  30.3079963  22.0604849
  39.7113729  30.4628134  19.7663605  39.2277956  30.3736067  20.7391381
  39.8672962  31.5408039  19.7248161  38.7510729  29.9121308  18.7288165
  39.1922188  29.9169946  17.7320874  38.6912799  28.8548422  18.9870179
  37.7308798  30.2754259  18.8526118  42.1749306  30.9341741  18.0888903
  41.6550875  31.3396621  17.0227551  43.0623150  31.6661191  18.7414813
  43.4113979  31.3285804  19.6270943  43.5251141  33.0006194  18.3618927
  43.7153339  32.9594040  17.2894108  42.4759674  34.0900111  18.6062622
  41.4958906  33.7333536  18.2894886  42.3756933  34.2381930  19.6814775
  42.6024532  35.5199003  18.0846560  43.5126877  36.0346413  18.3922493
  42.5724554  35.5652022  16.9960117  41.5033817  36.4660501  18.4900928
  40.6983948  36.2534332  19.3332267  41.3967800  37.6442957  17.8491437
  40.6604528  38.2678318  18.1476843  41.8511677  37.7926350  16.9594073
  44.9003983  33.1604576  19.0376687  45.0473356  32.8089714  20.2031374
  45.5989122  34.1637158  18.5864055  45.3063440  34.6262598  17.7375484
  46.7827177  34.7685504  19.1980851  46.7507648  34.5219564  20.2593470
  48.0265045  34.0745044  18.5896790  48.9079428  34.5113015  19.0591228
  48.0018663  33.0311751  18.9042509  48.1659603  34.2726374  17.0418453
  47.5319958  33.5659361  16.5063441  47.8176022  35.2434778  16.6894007
  49.5742369  34.0357375  16.4667714  50.0637102  32.9676080  16.5925741
  50.1645327  34.9424505  15.7814658  51.0698318  34.7901154  15.3603554
  49.6268368  35.7700396  15.5668116  46.8164158  36.3014030  18.9502108
  46.0987806  36.8126583  18.0289912  47.5189114  37.0492697  19.8022985
  47.9206991  36.6204500  20.6237507  47.9168558  38.3993530  19.4496489
  47.5793982  38.6219287  18.4373820  47.3285389  39.4243217  20.3870487
  47.6745987  39.3598342  21.4186454  47.5450802  40.4303217  20.0276375
  46.2511778  39.2653370  20.3410840  49.4255495  38.4482574  19.5447314
  50.0569725  37.8855038  20.4488873  50.0015354  39.0844345  18.5252190
  49.3941355  39.5663762  17.8779960  51.4052057  39.6020055  18.4921360
  52.0794678  38.9874840  19.0886557  51.9059229  39.6893358  17.0808601
  51.9500208  38.7143779  16.5954578  51.2396860  40.2137804  16.3958895
  53.2825422  40.4662609  16.9941568  53.1232071  41.4813232  17.3579776
  54.0574360  40.0592518  17.6437581  53.9516020  40.5749846  15.5582237
  53.2505894  41.0740185  14.8891604  54.8787117  41.1459923  15.5080307
  54.2030811  39.2071700  14.8710001  54.8244905  38.5346961  15.4623830
  53.2138109  38.7827396  14.6998096  54.9561405  39.4067550  13.5687268
  54.4571304  40.1094055  13.0420578  55.8853292  39.8015451  13.5979736
  54.8517132  38.5720229  13.0097842  51.3902569  40.9379816  19.2116117
  50.5087090  41.7334080  18.9885819  52.2831202  41.2349939  20.1977229
  52.9488277  40.5120039  20.4305768  52.0740128  42.3111916  21.1797738
  51.4848375  43.0966806  20.7065058  51.3213205  41.7953348  22.4396467
  51.2111568  42.7034998  23.0322766  49.8399925  41.3752985  22.1751642
  49.7917223  40.3339386  21.8568063  49.1864777  41.4075851  23.0469346
  49.3588018  42.0172644  21.4373040  52.0476866  40.7599640  23.2540607
  52.2518587  39.8767042  22.6488614  53.0365467  41.1495209  23.4959412
  51.4810610  40.5008936  24.1484451  53.3512640  42.9303122  21.6663122
  54.4298029  42.2804832  21.5743351  53.3640909  44.1679621  22.2410607
  52.5308657  44.7321796  22.3276186  54.5042419  44.8852873  22.7325702
  55.3995514  44.2898846  22.5536323  54.6004534  46.3071871  22.1359968
  54.6552181  46.0948324  21.0682845  53.6481380  46.8142366  22.2912097
  55.8467865  47.0773792  22.6550627  55.5966568  47.6876926  23.5228467
  56.6185379  46.4122820  23.0425596  56.4484787  47.8440046  21.5070176
  56.6267061  47.3744059  20.4093361  56.9472170  49.0299511  21.7876458
  57.5076771  49.5401621  21.1200571  56.7833900  49.5113516  22.6602912
  54.3796253  45.0245142  24.2354965  53.3577204  45.5689907  24.7328019
  55.2005100  44.2483568  24.9807954  55.9195280  43.6948919  24.5371819
  55.1130152  44.3227768  26.4470315  54.0812397  44.1105413  26.7272067
  55.8569908  43.1179714  27.1433139  56.9256878  43.3130550  27.2323394
  55.4087257  43.0207491  28.6814666  55.9306765  42.3372555  29.3511724
  55.6673717  43.9386225  29.2093968  54.3410635  42.8420877  28.8090372
  55.5910397  41.7616796  26.4565825  56.0107803  41.7148972  25.4517269
  56.1604548  40.9726954  26.9478774  54.0996265  41.3776398  26.4266014
  53.9662361  40.4094648  25.9439635  53.6244392  41.4514399  27.4047899
  53.6095190  42.0333242  25.7068920  55.3248215  45.7804585  26.9672394
  56.2768984  46.4793730  26.5371847  54.5840406  46.0495281  28.0126882
  53.8731289  45.3639317  28.2240224  54.7008085  47.3794842  28.6882186
  55.4243183  48.0377007  28.2071948  53.2863045  48.0577278  28.6169863
  52.6452303  47.2154665  28.8772082  53.2720900  48.8855743  29.3259096
  52.7007818  48.4229565  27.2579837  52.4623251  47.4832535  26.7597914
  51.3211107  49.0768003  27.6180172  50.7432175  48.5521650  28.3788753
  51.5694571  50.0698090  27.9926682  50.6363773  49.2302942  26.7839456
  53.6063719  49.2654848  26.3749504  54.5798922  48.7760592  26.4034915
  53.2491589  49.2853403  25.3453350  53.6740875  50.3140640  26.6647768
  55.1432991  47.3706722  30.1205564  55.0648594  46.2625933  30.6950021
  55.5896950  48.5203791  30.6393218  55.6187010  49.8458338  30.0360060
  54.5920420  50.1831865  30.1783776  55.9148455  49.9054289  28.9887023
  56.5456772  50.6585312  30.8635473  56.2800503  51.7156649  30.8676028
  57.5396013  50.5080748  30.4421496  56.3830328  50.1036930  32.2811174
  55.4569530  50.5478001  32.6461577  57.2418356  50.2151108  32.9430413
  56.0963631  48.5496855  32.0386219  56.9860840  47.9206753  32.0675755
  55.1740265  48.0647802  33.1076956  55.6461859  47.4364471  34.0911388
  53.9461994  48.3995819  33.1226230  46.7275286  64.0477037  54.9606657
  46.1929798  64.2744732  54.1342688  47.7012587  64.3142319  54.9304819
  46.3590240  64.5388556  55.7625866  46.7534351  62.5610542  55.1818228
  47.2818756  62.3132849  56.1023998  45.3112125  61.9758558  55.3066397
  45.3302336  60.9074640  55.5217600  44.7310877  62.4024057  56.1249352
  44.4109917  62.2189903  54.0828753  44.4784021  63.2817984  53.8505125
  44.8467016  61.7257404  53.2139874  43.0091858  61.6187716  54.1179466
  42.1389437  61.9457912  53.2172298  42.8034163  60.7326412  54.9020529
  47.4926758  61.9394636  54.0048885  48.3750772  62.6562262  53.4865522
  47.3668480  60.6348133  53.6686707  46.6798067  60.0794125  54.1581678
  48.1429052  60.0428057  52.5800753  48.6148834  60.7601070  51.9086504
  49.2996168  59.1892385  53.1405115  49.6543884  58.7055206  52.2304296
  50.4145193  59.9187851  53.7914038  50.8549261  59.3265104  54.5934916
  51.1554718  60.1556253  53.0278635  49.9620628  60.7984114  54.2492628
  48.8610888  58.0936241  53.9522171  48.7617922  58.2693577  54.8907566
  47.3554850  59.0549326  51.6724777  46.3283920  58.5845232  52.1411896
  47.8552008  58.7245417  50.4993343  48.7740421  59.0539885  50.2399206
  47.4290180  57.5986147  49.7818279  46.4494944  57.7484894  49.3277502
  48.3397102  57.3414087  48.5532236  48.8167810  58.2738733  48.2515287
  49.1135550  56.6853046  48.9517069  47.5085258  56.8421698  47.3739243
  46.7672968  56.1135626  47.7022648  46.9200373  58.0357599  46.4990807
  46.2948418  57.7251005  45.6619883  46.3197994  58.6615515  47.1595335
  47.6779175  58.7299871  46.1360788  48.5505533  56.1236858  46.5036249
  49.4279861  56.7556810  46.3664770  48.7913179  55.1060486  46.8111086
  48.0013895  56.0677385  45.5637360  47.3908091  56.3282537  50.6580400
  46.3070536  55.7082129  50.7134962  48.4864759  55.8326340  51.3033772
  49.3776608  56.3077688  51.2916565  48.4964705  54.5331097  51.9222832
  48.3019447  53.8169241  51.1239433  49.9112797  54.3028831  52.3697329
  50.5975628  54.1535568  51.5361786  50.2557755  55.1739264  52.9271460
  50.1162243  53.0346346  53.2805538  51.1270618  52.9845238  53.6852741
  49.5233202  53.2256889  54.1750145  49.4637918  51.3862705  52.6062155
  50.7099962  51.2650013  51.2375593  50.7729626  52.2956085  50.8882952
  51.6365051  50.8444214  51.6284561  50.2734804  50.6931019  50.4187298
  47.3898029  54.3569469  53.0377483  46.6761923  53.3736134  53.2469082
  47.1379471  55.4353380  53.7663174  47.7588129  56.1999083  53.5425901
  46.0536385  55.5801916  54.6998644  46.0490417  54.6946001  55.3353262
  46.2273979  56.8902349  55.5433035  46.2644386  57.8282022  54.9892855
  45.3453636  56.9906998  56.1757803  47.4425840  56.7821121  56.4772701
  47.8368521  55.7126951  57.0508671  48.0591822  57.8686476  56.5795755
  44.7186613  55.6083441  54.0143633  43.8392687  54.9036932  54.4747353
  44.4617701  56.3543558  52.9189444  45.1374102  57.0150471  52.5624275
  43.3221865  56.1458063  52.0236588  42.4733353  56.4670467  52.6272774
  43.3048534  57.0618725  50.7609510  44.2374706  56.9587374  50.2062559
  42.5074387  56.6971445  50.1134968  43.0941868  58.5689402  51.1046314
  42.1023130  58.8027811  51.4914274  43.7804508  58.8270903  51.9111633
  43.2844973  59.5394802  49.9501753  42.9271555  60.5331469  50.2204132
  44.3249893  59.5752287  49.6273756  42.5500774  59.2426300  48.7093782
  41.8010855  58.5773230  48.8377428  42.4602890  59.9525642  47.5514746
  43.1445074  61.0285711  47.4196434  43.6370707  61.3349628  48.2464504
  43.0404282  61.5627813  46.5688324  41.5182066  59.6867752  46.6515207
  40.8177710  58.9609718  46.7035818  41.6420555  60.1975441  45.7890368
  43.0778837  54.6642256  51.5969753  42.0067978  54.1098166  51.7575550
  44.1606426  53.9750147  51.1273336  45.0411654  54.4518566  50.9953642
  44.0942669  52.5453424  50.7258511  43.3085394  52.4713755  49.9740076
  45.4447460  52.1831989  49.9845362  46.3115215  52.3596716  50.6214476
  45.3839731  50.7280493  49.6478796  46.3562107  50.5103636  49.2057657
  45.3182697  50.2025366  50.6005764  44.6604061  50.3289652  48.9370441
  45.6255245  52.9823542  48.6011505  45.0086021  52.5921583  47.7916718
  45.2914190  54.0100765  48.7434864  47.0482969  52.9860830  48.0007076
  47.2539330  53.6215782  47.1393394  47.7071190  53.1801510  48.8471079
  47.3363018  52.0145798  47.5990438  43.7018681  51.6961432  51.9707489
  42.8291464  50.8568811  51.8129301  44.3383980  51.8667221  53.1071711
  45.1271343  52.4835682  53.2394552  43.9644003  50.9510565  54.2820835
  44.1519785  49.9171352  53.9924002  44.8412037  51.2560940  55.5252695
  45.0167847  52.3157167  55.7109308  44.3392944  50.9008598  56.4252663
  46.2812042  50.5999613  55.4478121  46.1675406  49.5185232  55.3725100
  46.8324280  50.9999084  54.5967579  47.0644903  50.9683228  56.7148066
  46.5063953  50.7564688  57.6268101  47.9522324  50.3518009  56.5736771
  47.4375820  52.4608803  56.6215992  47.8547955  52.6876736  55.6404734
  46.5050173  52.9957724  56.8013477  48.4406042  52.9295874  57.6172256
  49.2994833  52.5209427  57.2774696  48.4060717  53.9264250  57.4583864
  48.3109140  52.5145054  58.5288095  42.4647474  50.9537792  54.6092606
  41.8212414  49.8820639  54.7339773  41.8585348  52.1564817  54.6695232
  42.4489355  52.9216623  54.3762016  40.4297066  52.4405003  54.8224497
  40.2389097  51.9714403  55.7876825  40.1123190  53.9491034  54.8546982
  40.7498789  54.4839096  55.5586815  40.2671146  54.3995619  53.8742733
  38.6799955  54.1118574  55.2944994  37.9970264  54.1551256  54.4461012
  38.4760475  53.2699585  55.9560966  38.4065366  55.4441166  56.0131168
  39.1905928  55.5692244  56.7599154  38.5359716  56.2518835  55.2927876
  37.1154809  55.7224274  56.7038345  37.1799564  56.7889452  56.9194508
  36.1665916  55.5402851  56.1993217  37.0946550  54.9471092  58.0367184
  36.3460255  55.2486944  58.6439228  36.9753981  53.9540911  57.8959990
  37.9521847  55.0597763  58.5583067  39.5719266  51.7034626  53.7401199
  38.6184096  51.0139227  54.1361952  40.0185013  51.9054270  52.5046158
  40.8573008  52.4513960  52.3688221  39.3160200  51.3208771  51.3979244
  38.2915425  51.6928291  51.4121580  39.9406934  51.7859936  50.0683451
  39.9091029  52.8755283  50.0729609  40.9837008  51.4866352  49.9653101
  39.2930245  51.2331390  48.7883711  39.8440051  51.6796970  47.9606628
  39.3315864  50.1448917  48.8366556  37.8258896  51.7384338  48.6498451
  37.5559211  52.8334570  48.1369162  36.8762207  51.1048412  49.2784643
  35.9267640  51.4472246  49.3159151  37.0660496  50.2075386  49.7014523
  39.1870856  49.7800446  51.5581369  38.0322599  49.2637348  51.6791773
  40.2709961  49.0430784  51.6573811  41.1506271  49.4950819  51.4523268
  40.2857780  47.6316404  52.0224810  39.7328186  47.1725798  51.2029696
  41.6745615  46.9669008  52.0074081  42.1366024  47.5054455  52.8348064
  41.5386057  45.9035969  52.2049141  42.6439047  47.3213100  50.8348417
  42.5682163  48.3632231  50.5237293  44.0862894  47.0153332  51.1580706
  44.3427849  45.9911919  51.4290810  44.7419739  47.2120762  50.3098536
  44.3277740  47.6034927  52.0434237  42.1953058  46.4975071  49.6216488
  43.0858183  46.3288116  49.0161419  41.8550634  45.4792070  49.8098135
  41.3812590  46.9927883  49.0923834  39.5350099  47.1424437  53.2919693
  38.8147712  46.1592627  53.1767559  39.6406245  47.8577185  54.4221210
  40.2633667  48.6518908  54.4619036  39.0850878  47.3910236  55.7152510
  39.2206526  46.3109064  55.7706261  39.7850966  47.9587698  56.8902111
  39.4689679  47.3122263  57.7088308  40.8703470  47.9133272  56.7992830
  39.3575048  49.3199730  57.2994041  39.4045377  49.9566126  56.4158964
  38.3293009  49.3664408  57.6581955  40.3909874  49.9251032  58.2882404
  41.3955259  49.7290945  57.9133081  40.3215218  51.0060930  58.1668282
  40.2065706  49.4798517  59.7359562  39.6016932  48.6762619  59.8279476
  40.8655930  49.9848366  60.7094526  41.0206032  49.2882776  61.7388630
  40.4771805  48.4376860  61.7028856  41.5105104  49.5849037  62.5707912
  41.5310383  51.0879803  60.6161165  41.6557074  51.4060783  59.6656609
  42.2402859  51.3753033  61.2752962  37.5804353  47.5809717  55.7236719
  36.9400215  46.9800854  56.5977192  37.0208573  48.2667065  54.7644472
  37.5873756  48.7239933  54.0644121  35.5780268  48.2356930  54.6001768
  35.1130176  48.3079481  55.5833578  35.0236964  49.3014574  53.6038733
  35.6865096  50.1608229  53.7052011  35.0188828  48.9764214  52.5634718
  33.5888195  49.5888281  53.8800430  32.8500915  48.8956451  53.4777069
  33.5715389  49.6728849  54.9666643  33.2530570  50.9798002  53.3984852
  33.5909200  51.3094521  52.2052097  32.6907492  51.8279648  54.1247940
  35.1756549  46.8391848  53.9326143  34.0727472  46.3815546  54.2781115
  35.9794521  46.2844276  53.0250788  36.7723179  46.7660999  52.6257563
  35.7728243  44.9958229  52.4052191  34.7068739  44.9819040  52.1779490
  36.5178609  44.8343611  51.0352278  37.5320601  44.5028400  51.2579346
  35.9184361  44.0539026  50.5665350  36.5752172  46.0525227  50.1783466
  35.6683111  47.0993328  50.1843929  34.7535801  47.0986080  50.7585621
  35.9215593  47.9659176  49.0825558  35.2924633  48.7067223  48.8076878
  36.9768858  47.4941730  48.3887577  37.6927972  48.0764484  47.3298883
  37.3950434  49.0449429  46.9560528  38.8469982  47.4898624  46.7949390
  39.4810915  47.9628658  46.0596800  39.3451095  46.3362360  47.4581814
  40.3392553  46.0113096  47.1889257  38.7255716  45.8302259  48.6246061
  39.1662765  44.9694920  49.1055536  37.5444722  46.3837385  49.1336393
  36.0216546  43.7750006  53.3205366  35.2331209  42.7933455  53.1979227
  37.0390534  43.8390255  54.1461563  37.6083541  44.6658516  54.0349770
  37.3263240  42.9110384  55.2091789  36.4289331  42.5815630  55.7328558
  37.8775382  41.6518450  54.5394087  37.0319843  41.1538029  54.0649700
  38.4838653  41.8912172  53.6658096  38.7167549  40.7066154  55.3997803
  38.3980227  40.6980944  56.6310549  39.4613791  39.8847985  54.8074341
  38.3210015  43.5501242  56.2171125  39.3815184  44.0243912  55.7559824
  38.0884671  43.5303831  57.5274324  37.2501802  43.1082821  57.9005384
  38.9380932  44.0728474  58.5309219  39.0334988  45.1320362  58.2919359
  38.2090688  44.0562773  59.8979568  37.2446823  44.5631361  59.8640299
  38.0470872  43.0118370  60.1644659  38.9402390  44.7631168  61.0846663
  38.2634759  44.8547554  61.9341898  39.8782420  44.2725325  61.3446236
  39.3343329  46.2635279  60.8504438  40.4520130  46.6572189  61.2722874
  38.5496283  47.0670128  60.2644444  40.3737926  43.5070515  58.6053228
  41.3311911  44.3139219  58.8121605  40.5537128  42.2828722  58.1980276
  39.7505260  41.8327427  57.7828455  41.8284941  41.6261959  58.1071711
  42.5541401  42.0799732  58.7821722  41.5521002  40.1592207  58.5787868
  40.8498430  39.6852517  57.8930044  42.5421476  39.7066760  58.5230398
  41.1383247  40.0173044  60.0310946  41.7511225  40.5506086  60.8606720
  40.0783539  39.2725587  60.2379227  39.7447848  39.3518543  61.1879492
  39.3658543  39.0217733  59.5674372  42.4512911  41.7000723  56.7117548
  43.5521221  41.0881948  56.5277815  41.9001341  42.3522949  55.7205820
  40.9898901  42.7450991  55.9136057  42.4972200  42.4524879  54.3512058
  42.9596710  41.4854288  54.1536140  41.3667440  42.6810741  53.2693291
  40.7169390  41.8074703  53.3210325  40.7587099  43.5404968  53.5517979
  41.7058992  42.7561522  51.7274141  42.2891235  43.6628008  51.5663528
  42.6444244  41.6276312  51.2663221  43.4908533  41.4206266  51.9211531
  42.1714497  40.6477833  51.2007618  42.9823112  41.8849039  50.2624559
  40.4218960  42.7304983  50.9043694  39.6684885  43.4428740  51.2405109
  40.7522345  42.8830814  49.8768997  39.8730803  41.7980385  51.0363770
  43.6173344  43.5328436  54.2287016  44.4647837  43.3305264  53.3708429
  43.7222195  44.5339537  55.1578999  43.1050348  44.4962311  55.9564972
  44.7921944  45.4693747  55.1871014  44.8350477  45.8573246  54.1693783
  44.3417740  46.6314936  56.0773754  45.0338221  47.4627829  55.9427261
  43.4441471  47.1129799  55.6893873  44.0908480  46.2168837  57.5580454
  43.2674980  45.5066013  57.4825621  44.9468613  45.6638765  57.9447269
  43.6887121  47.3155212  58.5245132  44.3265200  48.1673384  58.2884789
  42.6630545  47.6745272  58.4394455  44.0211010  46.8794632  59.9472809
  45.0478554  46.5173054  59.8952150  43.9648914  47.7318478  60.6243181
  43.1218815  45.8425570  60.3982258  42.1824360  46.1909151  60.5254745
  42.9588175  45.0582695  59.7830820  43.3457661  45.4204941  61.2880802
  46.0885286  44.7683668  55.5471182  46.0526943  44.0918350  56.4879560
  47.2094011  44.8932076  54.8402834  47.2858906  45.6114388  54.1343069
  48.3524323  43.9841032  55.0082350  48.5524893  43.7004042  56.0414791
  48.1278419  42.6155424  54.2384768  47.1392918  42.1784210  54.3791771
  48.3653498  42.9658079  53.2339811  49.1445827  41.5270901  54.4972515
  48.9803600  40.3908825  54.0569592  50.1640654  41.8238258  55.1713514
  49.6762753  44.6126842  54.4606209  49.6500587  45.0649595  53.3001423
  50.7468700  44.6970844  55.3224516  50.6919146  44.2663383  56.2343407
  52.0567274  45.2007771  54.8611498  51.9314957  45.5881691  53.8500404
  52.5262499  46.3218260  55.7846165  53.4717035  46.7284250  55.4255962
  51.7856264  47.1091700  55.6443834  52.6945257  46.0625172  57.3401928
  52.9476309  47.0018625  58.0785131  52.4739599  44.8665476  57.8029346
  53.1085777  44.1478300  54.7280169  54.3166685  44.4052696  54.6439314
  52.7027082  42.8384542  54.8034096  51.7261076  42.6431561  54.9713755
  53.5868597  41.6408205  54.6901464  54.5852804  41.9197512  55.0269747
  53.1080723  40.6288052  55.6421423  53.8665438  39.8471308  55.6847239
  53.0149698  41.0414791  56.6466951  51.9831419  39.8793626  55.1064301
  51.2095833  40.4209995  55.2791548  53.6581945  41.1038589  53.2409477
  54.3945360  40.1627684  52.9914188  52.9423237  41.7031860  52.2776747
  52.4896049  42.5811815  52.4880886  52.9594469  41.1768961  50.8912945
  52.7296591  40.1138926  50.9642267  51.9769144  41.9087696  50.0022745
  52.3024035  42.9486227  50.0317097  52.0882845  41.6524458  48.9487123
  50.4592705  41.8564844  50.4333353  50.3358746  41.8179321  51.5156412
  49.7665691  43.1848574  50.0035429  48.7486649  43.1844330  50.3933859
  50.3117180  44.1014385  50.2289152  49.7804165  43.2588720  48.9161444
  49.7613573  40.6954098  49.7171068  49.9808788  39.8051548  50.3064775
  48.6928749  40.9109163  49.7196579  50.1445913  40.5930805  48.7018394
  54.3582630  41.3484383  50.2797318  54.9535418  42.4083519  50.3581429
  54.9258566  40.2964544  49.5764732  54.3601990  39.0039682  49.4630480
  53.3949566  39.0008616  48.9566851  54.2507029  38.5548854  50.4501820
  55.4005241  38.1216025  48.7184095  55.1170301  38.0610418  47.6676607
  55.4028893  37.1405363  49.1933823  56.7458677  38.9641023  48.8316202
  57.3204565  38.7693763  47.9260683  57.2610617  38.6914778  49.7526836
  56.2234211  40.3878450  48.9760685  56.8970299  40.9972048  49.5785904
  56.2706852  41.1512566  47.5886774  57.3486996  41.5477705  47.1254444
  55.0744009  41.4239645  47.0576143  54.2857838  41.3127518  47.6787519
  54.8177671  42.2687674  45.9283590  55.2833986  41.6641045  45.1501131
  53.3651114  42.3478270  45.5099154  53.3484125  43.0554771  44.6810293
  53.0114269  41.3551617  45.2313185  52.5525141  42.7358198  46.5241241
  51.6692352  42.4927378  46.2371922  55.4011726  43.6694956  45.9087610
  55.4541016  44.4271803  46.9027472  55.9304714  44.0392160  44.7419786
  55.7759857  43.4205294  43.9587402  56.5324306  45.3103113  44.3523550
  57.3756504  45.4269266  45.0331450  57.0276785  45.2608728  42.8704834
  57.5200748  44.3330479  42.5792980  56.1171293  45.1873827  42.2758341
  57.7718687  46.5069771  42.3988104  57.1935272  47.5801706  42.2731066
  58.9518452  46.3117552  41.8393517  59.4488001  47.0831156  41.4172745
  59.3943357  45.4043150  41.8685818  55.4366493  46.4189339  44.6121216
  54.2849064  46.2233639  44.1941881  55.7963324  47.5821733  45.2248716
  57.1296787  48.0292702  45.5876303  57.9289722  47.6613808  44.9442959
  57.3372650  47.5813580  46.5594244  57.0908022  49.5199347  45.7206678
  57.3392534  49.9895382  44.7689104  57.6785994  49.8809958  46.5646076
  55.6445837  49.8817444  45.9115839  55.2469873  50.8382368  45.5722523
  55.4908466  49.9352598  46.9893599  54.8638391  48.7329340  45.2916527
  54.0687895  48.4018707  45.9597826  54.2320108  49.1982269  43.9359903
  53.0475378  49.5152044  43.8957787  55.0373268  49.2847347  42.8190279
  56.0133457  49.0306664  42.8732967  54.4944525  49.6061611  41.4854479
  54.2072868  50.6574392  41.4640045  55.6186438  49.5236540  40.3668880
  56.0179329  48.5316181  40.1558399  55.0341845  49.9123335  38.9314651
  55.8764458  49.9078083  38.2396054  54.2286348  49.2799187  38.5583019
  54.7104168  50.9523106  38.9730358  56.7723370  50.4870033  40.7034016
  57.2557211  50.2742243  41.6569042  57.5127602  50.3925228  39.9090815
  56.4659786  52.0702076  40.8173370  56.1542368  52.4609995  39.8487329
  55.7064867  52.1889019  41.5901184  57.3696566  52.6225662  41.0749626
  53.3385277  48.5872269  41.1514568  52.1487236  48.9295864  40.8370018
  53.6423206  47.2712040  41.2395668  54.6111155  47.0518064  41.4223480
  52.7229595  46.2055254  40.8798933  52.4741220  46.5524483  39.8769855
  53.3699036  44.8314476  40.8822060  53.6798859  44.5957947  41.9002819
  52.5559044  44.1224384  40.7311630  54.5459747  44.6127081  39.8561168
  55.5359554  43.9530516  40.2676010  54.4209051  45.0894356  38.7003541
  51.5195608  46.1639643  41.8617964  50.4208994  45.8183765  41.4342642
  51.6954851  46.5533590  43.1198406  52.5954056  46.9107342  43.4071159
  50.5880404  46.6825962  44.1204309  50.0574970  45.7304621  44.1120911
  51.2855196  46.8927145  45.4905748  51.7980862  45.9531927  45.6971407
  52.0260000  47.6925707  45.4950333  50.2174997  47.1070910  46.6374111
  49.9844790  48.4333658  47.1703529  50.7372570  49.0957594  46.7691469
  48.9965487  48.6776066  48.1645727  48.8854122  49.6990585  48.4972715
  48.2465076  47.5723934  48.6169291  47.4350214  47.6739407  49.3223286
  48.4655428  46.2655163  48.0893135  47.9601908  45.4431343  48.5737848
  49.4187737  46.0054064  47.0839500  49.5208931  45.0117064  46.6734219
  49.5336771  47.6874828  43.7311792  48.3577394  47.4716949  43.8272047
  49.9741459  48.8600349  43.2402849  50.9407473  49.0178823  43.4870148
  49.1222239  49.9730968  42.7506685  48.4700012  50.2706623  43.5717440
  49.9240112  51.1859560  42.3445702  49.2907763  52.0700836  42.2709036
  50.6896496  51.3953829  43.0916023  50.5645370  51.0000658  41.1335373
  51.2037134  50.2944231  41.2564993  48.0970812  49.4798422  41.6963911
  47.0342493  50.0654364  41.5236187  48.4467316  48.3685160  40.9435797
  49.3034077  47.8711271  41.1405659  47.5312281  47.6909971  39.9589396
  46.9208050  48.4350729  39.4472432  48.3824587  46.9680500  38.8496065
  49.1296721  46.2919235  39.2650819  47.7219439  46.3605690  38.2309103
  49.0436792  47.9173756  37.8937483  50.4148817  48.2718039  38.0675840
  50.9196806  47.7047253  38.8356996  51.0129213  49.1919136  37.1967530
  52.0045900  49.5888567  37.3562360  50.2314949  49.7515965  36.1135101
  50.8598423  50.6573534  35.2885032  51.8101978  50.5807018  35.1764584
  48.8450766  49.3784380  36.0101485  48.3057880  49.7615528  35.1564550
  48.3098507  48.3981895  36.8236208  47.2851849  48.1026840  36.6529155
  46.5148973  46.6989756  40.5571079  45.2529001  46.8085241  40.4275608
  46.9499063  45.8717632  41.5594196  47.9452085  45.7850885  41.7076159
  46.0121059  45.0514889  42.3659945  45.4813576  44.4827127  41.6025066
  46.7988491  44.2255878  43.3947468  47.3668909  43.5299492  42.7770758
  47.5338554  44.8421383  43.9121723  46.0402298  43.3490133  44.3566847
  45.3745890  42.2262812  44.0223551  45.3875446  41.7455387  43.0553341
  44.5471048  41.7704391  45.0493383  43.8894558  41.0038996  45.0541735
  44.6722746  42.6581001  46.1168432  44.0819407  42.8064728  47.3527718
  43.3616829  42.0449781  47.6130867  44.4673824  43.7912750  48.2762003
  43.9894295  43.8494587  49.2429352  45.4091263  44.7341251  47.9315805
  45.8154011  45.4526377  48.6280584  46.0398102  44.6837568  46.6317177
  46.7398500  45.4508162  46.3351297  45.6297827  43.6674261  45.7237053
  44.9540615  45.8653259  43.1864738  43.7612820  45.5431032  43.2089949
  45.3551722  46.9972086  43.7717199  46.3221931  47.2705460  43.8730001
  44.3649340  47.9632521  44.3497419  43.8492727  47.4120045  45.1360750
  45.0779104  49.1868687  45.0325298  45.5748224  49.8913908  44.3655729
  43.9929199  50.1155186  45.6832552  44.4167089  50.9706020  46.2098789
  43.4273767  50.5786371  44.8746872  43.2912588  49.5282412  46.2756014
  46.0915089  48.7773657  46.1237860  46.4040279  49.7578764  46.4830065
  45.5937910  48.2400322  46.9310331  46.9158792  48.2352734  45.6604719
  43.2952929  48.4222555  43.3110332  42.1228170  48.2561970  43.4722471
  43.8171387  48.8554192  42.1091032  44.7947073  48.7700415  41.8700075
  42.9529762  49.2132425  40.9615088  42.1705675  49.8590136  41.3601685
  43.6750650  50.1166153  39.9650264  44.4594383  49.5459700  39.4678116
  42.9983091  50.5206060  39.2121053  44.0858173  50.9907866  40.4702139
  42.1669102  48.0896807  40.3457689  41.0270834  48.3421898  39.8860621
  42.5821877  46.8357515  40.4966164  43.5431528  46.6722298  40.7610083
  41.7760801  45.6488657  40.1034117  41.3898802  45.8277798  39.0999508
  42.5611496  44.2877340  40.0668955  43.4927940  44.3738985  39.5076847
  42.7246332  44.0889406  41.1260700  41.9014359  43.5505867  39.6091866
  40.5886793  45.5360842  41.0243559  39.4664001  45.3466797  40.5672121
  40.8221960  45.5877876  42.3480654  41.7720938  45.7426262  42.6543665
  39.6955276  45.4441309  43.2061052  39.1533375  44.6136141  42.7540207
  40.1074219  44.8983526  44.5518923  40.9179878  45.4418612  45.0373697
  39.2449975  44.9708271  45.2145147  40.5222654  43.4533548  44.4398737
  39.7530317  42.5578022  44.0317011  41.7134190  43.1297398  44.7318745
  42.0363665  42.1786261  44.6261024  42.5328779  43.7104034  44.8387098
  38.8075781  46.6772699  43.4134293  37.8224277  46.6227627  44.0948486
  39.1224360  47.8178930  42.7507019  40.0180769  47.8698301  42.2867632
  38.1854701  48.9988232  42.6813698  37.7394223  49.0642405  43.6737728
  38.9986825  50.2526712  42.3868561  39.6444321  50.0505543  41.5322971
  38.3537817  51.0944605  42.1346807  39.8770905  50.7409430  43.5532475
  40.5604506  49.9361277  43.8241529  40.7115936  51.9796991  43.1670618
  39.9458361  52.7355719  42.9927635  41.5501404  52.1237278  43.8483810
  41.2005138  51.8748236  42.1985245  39.1434860  51.1060333  44.8772573
  38.5522795  50.3034878  45.3182697  39.8342156  51.4122152  45.6629086
  38.3624649  51.8278885  44.6384478  37.0573664  48.6465740  41.6208696
  37.3723578  48.1307936  40.5485249  35.8999562  49.2909813  41.7747593
  35.5259871  50.0344706  42.9609537  36.1570668  50.9137535  43.0901623
  35.5152202  49.4543552  43.8837004  34.0885091  50.4266644  42.7292204
  34.0709186  51.3613796  42.1687746  33.5146332  50.5556011  43.6469030
  33.5702753  49.2935896  41.8510866  32.6603341  49.4871521  41.2830734
  33.3747244  48.4388733  42.4986362  34.7218513  48.9959097  40.9623480
  34.7554874  47.9165554  40.8141422  34.6973491  49.7268248  39.5864725
  33.6410642  50.0082397  39.1259074  35.8369184  50.2104092  39.0076399
  36.6812944  50.0185394  39.5275593  35.9374237  51.1638021  37.8980422
  35.4173923  52.0881319  38.1496000  37.4326086  51.5648079  37.5874496
  38.0076361  50.7316017  37.1834612  37.5441980  52.6615858  36.5055466
  36.9958186  53.5528135  36.8106627  38.5663676  53.0298996  36.4182639
  37.0298624  52.4839306  35.5610895  38.1662703  51.9644737  38.8528109
  38.2075310  51.1735344  39.6016884  39.2118025  51.9446421  38.5452914
  37.8011751  53.3067226  39.5082736  38.2823563  54.0626860  38.8877225
  36.7227435  53.4621668  39.5386887  38.2463121  53.3036709  40.5032349
  35.1871586  50.6282282  36.6021490  35.2704430  49.4642782  36.3071704
  34.5523357  51.5066385  35.8359194  34.6654129  52.4596596  36.1506629
  33.8522744  51.2396574  34.5381856  33.0660963  50.5143309  34.7477603
  33.1455183  52.5117397  34.1833854  32.4939728  52.7698612  35.0182295
  33.8527894  53.3160734  33.9811087  32.2641230  52.3256207  32.9162788
  32.2954917  53.1920290  32.0135307  31.6726780  51.2254477  32.7580333
  34.7538614  50.7709551  33.3675051  35.9033442  51.1715746  33.2281375
  34.1756320  49.9462318  32.5022817  33.1843853  49.8093796  32.6394129
  34.8427749  49.4073057  31.3240767  35.6799102  48.8031769  31.6738367
  33.8331461  48.5365152  30.4132080  32.9095101  49.0763521  30.2044678
  34.2200232  48.4054518  29.4026399  33.4710884  47.1797895  31.0474563
  33.8591480  46.9904995  32.1814537  32.9707789  46.2584400  30.3260827
  35.4514313  50.3877306  30.4040122  36.5032983  50.0749207  29.8622513
  34.9267530  51.6367865  30.3387952  34.0406847  51.7978907  30.7959914
  35.4323506  52.7246189  29.5009255  35.5143905  52.3923731  28.4660411
  34.7003603  54.0712976  29.6468520  35.4049778  54.8356771  29.3192244
  33.7475109  54.0807199  29.1176152  34.4805026  54.3134356  30.9682822
  33.6739135  53.8516903  31.2087107  36.9056320  52.9306364  30.0294685
  37.8683925  52.8636456  29.2135215  37.0494461  53.2021379  31.3327622
  36.1816192  53.3473253  31.8286395  38.3029675  53.6219072  32.0110655
  38.9183164  54.2266226  31.3449073  37.9263878  54.4627905  33.2291770
  37.3362422  53.9085817  33.9590287  38.8780046  54.8089075  33.6325765
  37.3045731  55.8056021  32.8411269  36.4443326  55.5670691  32.2156739
  36.6989565  56.5018320  33.9936090  37.4951601  56.7106152  34.7081518
  36.1677313  57.4310064  33.7873626  35.9749651  55.9235954  34.5676994
  38.0661178  56.8046284  32.0147753  38.9043427  57.0978975  32.6468086
  38.5378981  56.3282633  31.1553574  37.5164580  57.7160501  31.7796564
  39.1723871  52.4635077  32.4552536  40.3564835  52.6481819  32.7367830
  38.6347246  51.1837101  32.4242973  37.6539421  51.0201502  32.2470546
  39.5141888  50.0076628  32.5030875  40.0387287  49.8847818  33.4506416
  38.6180043  48.7061596  32.5188088  37.6954269  48.9373970  31.9863915
  39.1202569  47.9314804  31.9393992  38.0894017  48.1013489  33.8305187
  37.7645206  48.9189625  34.4739938  37.2010851  47.4928236  33.6611366
  39.1911793  47.3691130  34.6449423  39.6009064  46.5741062  34.0218902
  39.9394393  48.0719185  35.0113726  38.5961366  46.7202282  35.7747912
  38.1763315  45.8138561  35.6252575  38.7593389  47.0819473  37.0249033
  39.2941880  48.1779337  37.3621130  39.5627689  48.8618231  36.6690969
  39.4289398  48.4557104  38.3237672  38.3947158  46.2719107  37.9624510
  37.9127812  45.4354143  37.6656127  38.5029626  46.3560820  38.9630985
  40.6419992  49.9346781  31.4379811  41.6478252  49.3514252  31.6948247
  40.4737759  50.5934525  30.2523160  39.5840693  51.0476875  30.1033306
  41.5257072  50.7513428  29.2315221  41.9214249  49.7703552  28.9685082
  40.9281492  51.3876486  27.9173851  40.7101440  52.4547338  27.9611254
  42.1281815  51.2683630  26.8175697  41.7660475  51.5811872  25.8382320
  42.9662228  51.9309092  27.0339441  42.4768448  50.2407169  26.7152262
  39.6847820  50.6445408  27.4254847  38.8164592  50.7831717  28.0696130
  39.4209385  51.1158991  26.4787412  39.7332072  49.1583443  27.1407413
  40.7333422  48.8848162  26.8045640  39.5519471  48.6718321  28.0991530
  38.9946604  48.9119387  26.3778973  42.5056267  51.7743301  29.7208548
  43.7136078  51.5431595  29.5337701  42.0944452  52.9641962  30.2632594
  41.1106825  53.1071520  30.4418039  42.9948902  53.9727259  30.9370637
  43.7071562  54.3087530  30.1834989  42.1701241  55.1541662  31.4619303
  41.4207363  55.4462528  30.7262659  41.7210531  54.8222876  32.3980331
  43.1565332  56.3244438  31.6548395  42.7068138  57.0316458  32.3517728
  44.1342783  56.0007048  32.0116520  43.3273363  57.0543957  30.3621697
  42.9082012  56.6728020  29.2905354  43.9684963  58.1509924  30.3962660
  44.1318941  58.6062145  29.5095992  44.2133522  58.6048079  31.2647176
  43.9053154  53.3512163  32.0570254  45.1344585  53.5582161  32.0684552
  43.3823109  52.4972630  32.8942251  42.3744678  52.4867487  32.9594016
  44.1277981  51.7030191  33.8107109  44.5977354  52.3379946  34.5617557
  43.1092215  50.7539225  34.5037556  42.1793985  51.2665033  34.7503042
  42.7814388  50.0117302  33.7758756  43.4291601  50.1127481  35.8070636
  43.9441824  50.7931328  36.4852428  42.1440268  49.5088768  36.4343643
  41.4592934  50.3107023  36.7106080  41.6947937  48.9063931  35.6448650
  42.4463892  48.9897251  37.3438454  44.5057011  49.0397978  35.6092811
  45.5087709  49.4566441  35.5188036  44.5101261  48.2974052  36.4073658
  44.2799425  48.3440399  34.8011589  45.2505684  50.9331465  33.1472945
  46.3165474  50.9080696  33.7001467  45.0401497  50.3576660  31.9595265
  44.1473103  50.4739952  31.5019083  46.0674667  49.6536207  31.1301494
  46.7801809  49.2390156  31.8430614  45.5383492  48.5282707  30.1713943
  44.9672270  49.0018034  29.3728399  46.4073801  48.0737972  29.6956515
  44.7417498  47.4702406  30.9360242  43.7284899  47.8710318  30.9639096
  44.5773315  46.2310219  30.0766110  45.5212736  45.6861687  30.0913143
  43.7944651  45.5040979  30.2929330  44.3561935  46.5028715  29.0444756
  45.3095770  46.9896317  32.2927189  44.9351311  47.7398205  32.9892087
  44.9854946  45.9647989  32.4738097  46.3964748  47.0251036  32.2185397
  46.9668102  50.5659580  30.2117419  48.0557919  50.1302004  29.7368574
  46.5085316  51.8230867  30.0186229  45.6644678  52.1200037  30.4871273
  47.1994925  52.7006578  29.1021562  47.6718664  52.1490669  28.2893109
  46.1542177  53.6734009  28.6052585  45.3957510  53.0377150  28.1483841
  45.7518101  54.1112995  29.5187187  46.5562010  54.7746086  27.5859857
  47.2337389  55.4949856  28.0443525  47.0986366  54.4287777  26.7060566
  45.2826118  55.5402184  27.1985245  44.8467255  56.2254477  27.9255509
  45.5808258  56.3374376  26.5176392  44.1365004  54.8030329  26.5681648
  44.3907261  54.5626688  25.5358386  43.9624500  53.8552332  27.0775604
  42.8647423  55.5881357  26.5823364  42.9810667  56.5650940  26.3540006
  42.2202206  55.1038504  25.9739327  42.4595737  55.5840349  27.5074983
  48.3625460  53.4530973  29.7957087  49.3093395  53.8782072  29.1221786
  48.2864141  53.6153650  31.1311769  47.5020885  53.2133961  31.6245008
  49.0513325  54.7376585  31.7888045  49.4757271  55.3549433  30.9970021
  48.0782461  55.5721426  32.6234365  47.6126051  54.8434544  33.2869816
  48.8391113  56.5882730  33.5094762  49.4912958  57.2644234  32.9566813
  48.1553984  57.2568130  34.0326357  49.4333220  56.0346699  34.2364788
  47.0274591  56.2871456  31.7765284  46.3442230  55.6091166  31.2650871
  46.3588667  56.6879177  32.5384116  47.4751186  57.3915815  30.8324838
  46.7003107  57.9210377  30.2780056  48.1571436  58.0655432  31.3508749
  48.1311560  56.9216442  30.0997639  50.1866436  54.0847635  32.6132607
  49.9243689  53.3341885  33.5844874  51.4455605  54.2562342  32.2638822
  51.5362120  54.8184252  31.4297223  52.6684475  53.6851215  32.9371858
  52.4204302  52.6378298  33.1097364  53.8981628  53.8551617  32.0740128
  54.2316628  54.8914623  32.1283913  54.7152662  53.2100344  32.3968911
  53.5926962  53.5216141  30.6043649  53.7951756  54.4751263  29.7609401
  53.0315828  52.4374247  30.2877259  52.9309416  54.2974281  34.3482399
  53.8247681  53.7589979  34.9954081  52.2871256  55.3637600  34.7343516
  51.6242170  55.7177353  34.0595508  52.4513388  56.1400938  35.9438920
  53.5268831  56.1533165  36.1203074  52.0823574  57.6224804  35.6718707
  51.0147667  57.6920223  35.4632449  52.3255157  58.2005739  36.5633750
  52.8858900  58.2322693  34.7568464  52.8026247  59.1709805  34.9398685
  51.6812515  55.5894566  37.1071768  50.8175707  56.2099123  37.6994991
  52.0249557  54.4489431  37.5472951  52.8255558  53.9917040  37.1349025
  51.1994267  53.5944462  38.3847809  50.3732967  53.3264828  37.7261376
  51.9525862  52.2740412  38.5578036  51.2135363  51.5149212  38.8140178
  52.5530958  51.9625998  37.7031136  52.6044655  52.4058533  39.4213891
  50.5644083  54.0979958  39.6833301  49.3714952  53.9941978  39.8348427
  51.3838768  54.5898962  40.6027317  52.3767328  54.5176935  40.4320669
  50.8891535  55.2307892  41.8407440  50.2015877  54.4668007  42.2036219
  52.0636559  55.5178356  42.8424883  52.7393341  56.3147593  42.5318670
  51.4592695  56.0210371  44.2188931  52.1242809  56.4441252  44.9717855
  50.8508539  56.8994617  44.0037203  50.8507681  55.2378082  44.6709776
  52.8974915  54.2012787  43.1032610  52.1716118  53.4890699  43.4956408
  53.4685326  53.8778687  42.2329664  53.8747358  54.2629671  44.2821407
  54.5942450  53.4479618  44.2035723  54.4854307  55.1545858  44.1401243
  53.4148121  54.2617464  45.2703571  50.0876284  56.5513849  41.5047932
  49.0420818  56.6756535  42.1022224  50.5225801  57.3536253  40.4930735
  51.3691425  57.0655012  40.0235891  49.8486233  58.5877895  40.2058935
  49.5670652  59.1479540  41.0975456  50.8031464  59.3297720  39.2704630
  51.7018843  59.6704388  39.7845769  51.2704277  58.6037970  38.6051011
  50.2296352  60.5421114  38.4123588  51.0920763  60.9804583  37.9102206
  49.6081066  60.0861597  37.6417017  49.4857597  61.5608263  39.1236043
  49.3202162  61.6466379  40.3315973  48.9380455  62.4501801  38.4030652
  48.4275150  63.2354307  38.7810016  49.0176010  62.3907518  37.3979592
  48.5330915  58.2860613  39.4797873  47.5074387  58.8599157  39.7200608
  48.5591984  57.2759485  38.6191154  49.4810200  56.9270802  38.3985806
  47.3880529  56.5996265  37.9358912  46.9127798  57.4280691  37.4106336
  47.8981447  55.5426264  36.9991183  48.7371969  55.9316015  36.4222407
  48.3331871  54.7602081  37.6209402  46.7676830  54.8814774  36.1647248
  45.8217287  55.1641417  36.6266441  46.5990686  55.2785730  35.1637316
  46.8183517  53.3620739  36.0295820  46.1660862  53.0413055  35.2173257
  47.8605890  53.0521154  35.9536195  46.3250065  52.7854919  37.3155808
  45.3863382  53.0941916  37.5246406  46.9016266  52.0041180  38.2232022
  48.0994177  51.5321827  38.1931162  48.7840176  51.7571449  37.4854350
  48.4418535  51.0996103  39.0391183  46.2272215  51.8479776  39.3307209
  45.3275824  52.3048925  39.2862034  46.3547897  51.0329437  39.9134254
  46.4098883  56.0536098  38.9754748  45.1848364  56.3267946  38.9652824
  46.9202328  55.3673077  40.0151491  47.9098940  55.1842594  39.9305248
  46.1049080  54.9632978  41.1559820  45.2814531  54.4535065  40.6558418
  46.8577099  53.9664316  42.1644020  47.1177769  53.0713558  41.5993309
  47.7703285  54.5219469  42.3803282  46.0733652  53.7169933  43.4479046
  45.8569336  54.6312332  44.0005541  44.8723125  52.8758717  43.0974579
  45.1711512  51.9038916  42.7049732  44.2737579  52.7588701  44.0008688
  44.1977262  53.3826351  42.4073696  46.9237995  52.8532982  44.2685986
  47.7782011  53.3045816  44.7730255  46.2990379  52.4477386  45.0643969
  47.3272800  51.9900370  43.7393713  45.4380035  56.1600065  41.8950415
  44.2807293  56.1107302  42.2935343  46.2497711  57.2601509  42.0833826
  47.2446489  57.1593857  41.9413662  45.8649683  58.4972715  42.6332569
  45.4427862  58.3742523  43.6306190  47.1188450  59.4239521  42.8036547
  48.0521297  58.8797235  42.9481745  47.2403145  59.9387455  41.8505907
  46.9448233  60.6160069  43.8359165  46.0395479  60.5032682  44.4324636
  47.6875591  60.5154848  44.6273375  47.0502090  62.0654821  43.1358528
  47.2641563  62.7848911  43.9262772  47.9344130  62.0244074  42.4997711
  45.8380747  62.3827839  42.4916172  45.0931501  62.7539492  43.0638266
  45.6529474  62.6465559  41.1930418  46.6362810  62.5689840  40.3301764
  47.5753164  62.3451424  40.6271887  46.4640570  62.7980328  39.3616867
  44.5174217  63.0858803  40.7930231  43.8779020  63.0042982  41.5704966
  44.3527699  63.2113743  39.8044682  44.6991634  59.0915728  41.8358183
  43.7140083  59.5567513  42.4639845  44.7657585  59.0103197  40.5041409
  45.6421280  58.6418152  40.1631403  43.7251663  59.4931269  39.6240473
  43.5218334  60.5369329  39.8632479  44.2049646  59.4989014  38.1045890
  44.5399618  58.5170412  37.7701807  43.3464813  59.7257757  37.4724150
  45.5270576  60.6606579  37.9173255  46.5509892  59.8734379  38.2590127
  42.3949480  58.7336683  39.6990609  41.3141489  59.3012190  39.4351840
  42.3950863  57.4625874  40.0900126  43.3058310  57.1379614  40.3820086
  41.2793493  56.4871025  40.1863623  40.4892349  56.8880796  39.5515084
  41.7572451  55.0882959  39.7714972  42.6822567  55.0252438  40.3446245
  41.0937071  54.2810726  40.0816727  42.0307589  54.9511099  38.2960224
  41.1106586  54.5792913  37.8451681  42.2091627  55.9320545  37.8555393
  43.2160187  54.0277958  37.8287864  43.8113546  53.3058786  38.6607075
  43.5573244  53.9152718  36.6419864  40.6928587  56.5776062  41.5736389
  39.4869447  56.5873337  41.6488743  41.5444469  56.4952946  42.6012564
  42.5211334  56.5614986  42.3526669  41.0642052  56.7526293  43.9552736
  40.3723812  55.9986210  44.3307018  42.2445583  56.8668938  44.8467112
  43.0462837  57.5019884  44.4699049  41.8734360  57.4514198  45.6885529
  42.7720833  55.5120087  45.3521204  43.0792427  55.0027323  44.4386673
  44.0253496  55.7021809  46.1570263  43.7530756  56.1742640  47.1010160
  44.4516468  54.7605419  46.5029860  44.7969007  56.2805843  45.6488419
  41.7799139  54.6723986  46.1348963  41.3291359  55.2653599  46.9306993
  41.0214186  54.2110109  45.5025101  42.3482943  53.8746786  46.6131020
  40.2949381  58.0395269  43.9998150  39.2426848  58.1171942  44.6397972
  40.7528591  59.1403913  43.2815647  41.5963697  58.9217710  42.7708817
  40.0537729  60.4284620  43.1618118  39.8234701  60.7765150  44.1687536
  40.9966230  61.5959167  42.5804615  41.2604237  61.1827517  41.6069078
  40.3051281  62.4383116  42.5628138  42.1777534  61.9756126  43.4710503
  42.1522856  61.5037632  44.5770693  43.0156565  62.8907108  43.1434822
  38.6179399  60.3252888  42.5472307  37.7669358  61.2016821  42.8605080
  38.3153582  59.3578148  41.6640663  39.0301371  58.7033415  41.3797235
  36.9768071  59.0620947  41.1795092  36.4290667  59.9570847  40.8844328
  37.0554018  58.2592678  39.7913146  37.6909399  57.3963690  39.9903059
  35.6726170  57.6007462  39.5335960  34.9290752  58.3949280  39.6008277
  35.5406952  57.1692944  38.5413551  35.5386853  56.8163967  40.2785587
  37.4701691  59.0732527  38.6049438  36.6706085  59.7794437  38.3811164
  38.4317040  59.5471001  38.8024902  37.6594162  58.2887316  37.2716308
  38.2864094  58.8787603  36.6031671  37.9965520  57.2747517  37.4867988
  36.6338706  58.1748104  36.9203758  36.2213182  58.2977295  42.2779799
  35.0935626  58.6840105  42.6811981  36.7929626  57.2264099  42.8622723
  37.7377152  56.9524240  42.6332045  36.1458826  56.4247799  43.9355755
  35.2375031  55.9603214  43.5518742  37.0136547  55.2209711  44.3691587
  37.3781157  54.5954895  43.5542727  37.8270793  55.6855536  44.9264812
  36.4561892  54.2504311  45.4561329  37.2276521  53.5486698  45.7731152
  36.2526083  54.7475290  46.4045763  35.0381637  53.4114742  44.8823309
  34.7802639  52.3606491  46.2834740  35.6755686  51.7599726  46.4438295
  34.4150853  52.8582096  47.1819067  34.0037751  51.6829014  45.9287596
  35.6567979  57.3219204  45.0641584  34.6573544  56.9886446  45.7155752
  36.3719296  58.4384203  45.2628851  37.2163916  58.7225866  44.7872448
  36.0661292  59.4239140  46.3420773  35.6901288  58.9575958  47.2527218
  37.4101400  59.9905300  46.6346025  38.1427312  59.2097473  46.8390274
  37.6618671  60.5890179  45.7590723  37.3890042  60.8146191  47.9624462
  37.4333286  60.2391577  49.0508270  37.4525833  62.1482658  47.7728081
  37.3103905  62.8251982  48.5087776  37.3348927  62.5124454  46.8381310
  34.9403644  60.4088688  46.0325384  34.0975404  60.8150387  46.8159056
  34.8952508  60.7973909  44.7566652  35.5673647  60.4276609  44.0996552
  33.8031530  61.5605545  44.1007280  33.6220598  62.5198412  44.5855761
  34.1806388  61.8707037  42.6332760  35.1855922  62.2901011  42.6809978
  34.0518379  60.9347486  42.0896816  33.3132887  62.8945684  41.9026661
  32.2849441  62.5391388  41.9680977  33.3886409  63.8727665  42.3775864
  33.5932469  63.0755329  40.4679155  34.6499848  63.3013058  40.3249741
  33.4177899  62.1111298  39.9912190  32.7783513  64.2056131  39.8209453
  31.7292118  63.9102077  39.8330259  32.8640866  65.1454163  40.3664112
  33.1559396  64.5726633  38.3868265  32.8787422  63.8499975  37.7379656
  32.8644538  65.4718637  38.0310440  34.1505170  64.5935678  38.2122445
  32.4811196  60.8465147  44.1006804  31.4628720  61.3388920  44.6145868
  32.4057341  59.6082735  43.6616659  33.2993770  59.1936207  43.4390259
  31.3112593  58.6579895  43.5988045  30.5097246  59.0668058  42.9835701
  31.6525960  57.4018717  42.8221416  32.5562167  57.0023537  43.2825279
  30.8337569  56.6837406  42.7787066  32.1034098  58.0428219  41.2420797
  31.0294175  58.7617397  40.9035730  30.6540418  58.4484529  44.9910021
  31.3379717  58.4379768  46.0113859  29.3695927  58.1261587  45.0788975
  28.8407850  58.2183552  44.2233515  28.7098885  57.4449110  46.3009167
  29.4227791  57.2867155  47.1101522  27.7057838  58.4418440  46.8708611
  27.1076393  58.7888956  46.0283136  26.7828298  57.9262924  47.9100132
  26.2266326  58.7558699  48.3465242  26.0515428  57.2974682  47.4021816
  27.2803521  57.3270226  48.6725426  28.3405328  59.6653318  47.3289394
  28.6660290  59.5955420  48.2293749  28.0565190  56.0978174  45.9304905
  28.2612467  54.9945164  46.4460707  27.1272874  56.1200762  44.9300528
  27.0785642  56.9215107  44.3173265  26.2925363  54.9754620  44.5181942
  26.1302900  54.3482304  45.3947544  24.8784709  55.5566788  44.1480732
  24.1719246  54.7613096  43.9108324  24.5024061  56.2185907  44.9281693
  25.0064945  56.3975954  43.0537319  25.8059955  56.9271612  43.0094671
  26.9475102  54.1160345  43.4971714  27.9823661  54.4366693  42.9411030
  26.2690234  53.0237341  43.2628250  25.4747248  52.7560902  43.8263464
  26.5047836  52.0641184  42.2175026  27.2000456  52.5192118  41.5120888
  27.1580696  50.7492113  42.6378107  26.6442180  50.3646851  43.5188293
  27.0204568  49.9454021  41.9145870  28.5863805  50.9460735  43.0976105
  28.7265253  51.8997335  43.6065388  29.0052772  49.8084164  43.9884281
  29.9525332  50.0133610  44.4872284  28.3020377  49.7865677  44.8209429
  29.0748048  48.8794565  43.4224796  29.4678998  50.9104300  41.8421173
  30.4977846  51.1411524  42.1145201  29.4104075  49.9304485  41.3683653
  29.0540075  51.7005730  41.2156439  25.1718998  51.9212866  41.5129423
  24.1075611  51.7746782  42.1540451  25.1349735  52.0982218  40.2132893
  25.9517765  52.2813702  39.6481442  23.8497829  52.3273373  39.5024443
  22.9804206  52.0144844  40.0807524  23.7372446  53.7929869  39.1554403
  24.7437668  54.1365767  38.9167809  23.0285501  53.9702082  38.3464622
  23.1770158  54.6908188  40.6772614  24.3761206  54.8542452  41.2432432
  23.8922668  51.3777590  38.2194424  25.0191545  51.0933924  37.6668978
  22.7299356  50.8701897  37.7227354  21.8870759  50.9619761  38.2716107
  22.6101613  50.1897907  36.3959765  23.1670308  49.2646170  36.5444493
  21.1632133  49.9633360  36.1156583  20.6318331  50.8944130  35.9186029
  20.7169414  49.5033789  36.9973516  21.1159873  48.7980175  34.6924782
  23.4470201  50.9667921  35.3042769  23.1959796  52.1504736  35.1417208
  24.3792796  50.3527927  34.5855975  24.6610522  49.3953943  34.7408032
  24.8202705  50.9345102  33.3007479  25.2887487  51.8751669  33.5902286
  26.0912538  50.1213264  32.7278781  25.9715128  49.0710068  32.9935622
  26.1605954  50.2668524  31.6498613  27.2971702  50.6761503  33.3127451
  27.3796916  51.6736650  32.8811646  27.1251297  50.6249285  34.3878603
  28.5250974  49.8389053  32.9873037  29.2408109  50.4124832  33.5762572
  28.3873582  48.8658667  33.4588242  28.9816642  49.7111940  31.5763760
  29.5659089  48.8029337  31.4286613  28.2035804  49.4491482  30.8594275
  29.5640087  50.8865738  30.9061217  30.4674363  51.0085297  31.3409162
  29.5978999  50.7703638  29.9034023  29.0137029  51.7164946  31.0749054
  23.7893438  51.1892605  32.2245264  23.7112617  52.2950125  31.6859365
  23.0871010  50.0823593  31.8092895  23.4206200  49.1733265  32.0965743
  22.3242474  50.1169300  30.5278778  22.9976106  50.4993153  29.7607636
  21.8548536  48.7019968  30.1881981  22.7255464  48.0763292  29.9918914
  21.2857032  48.2191896  30.9825945  20.8929229  48.5756636  28.9948750
  19.9992013  49.1892433  29.1083789  21.3495421  49.0628052  28.1333065
  20.7198095  47.0910740  28.7016439  21.3580036  46.5237904  27.8477287
  19.6850801  46.4645195  29.1403484  19.5212042  45.5382586  28.7725377
  19.0795588  46.9538784  29.7837591  21.2254810  51.1643934  30.5672574
  21.0524225  51.7730188  29.5340085  20.5902481  51.3521862  31.7328286
  20.6555009  50.8264542  32.5927424  19.6845150  52.5518227  31.9538975
  19.5650315  52.8998661  30.9278870  18.3420539  52.0160294  32.4302554
  18.0508912  51.2443924  31.7175841  17.6236951  52.8348017  32.3893404
  18.2277513  51.4642096  34.1858220  20.3351355  53.7169695  32.7288485
  20.4973006  54.7945499  32.2283459  20.7361507  53.4610081  33.9541221
  20.6125474  52.4994516  34.2373776  21.1791015  54.3526936  34.9778032
  21.6217661  53.7772083  35.7908010  22.3386550  55.3545427  34.5357871
  21.9108939  56.2009192  33.9984179  22.7666235  55.7412434  35.4606700
  23.4629488  54.7535849  33.6793017  24.0692282  54.3061209  34.4668961
  23.1162286  54.1532803  32.8381586  24.2865205  55.7507849  33.0122733
  24.3936348  55.7998610  31.7654705  25.0507259  56.4645147  33.7964058
  25.5530047  57.2419882  33.3922386  24.8757148  56.5286732  34.7890568
  19.9057078  55.0645924  35.6148672  20.0799799  55.7979774  36.5523791
  18.6695778  54.6000576  35.2687502  18.5679209  53.7839222  34.6825004
  17.4466622  55.0216484  35.9766173  17.4444234  56.1107492  35.9324074
  16.1388683  54.6067286  35.1439118  16.1633217  55.0872517  34.1658545
  16.1893463  53.5387802  34.9316764  14.7043800  54.7842503  35.7137656
  13.9389861  54.3613672  35.0630379  14.5672572  54.3534756  36.7055988
  14.3361676  56.2792063  35.7560682  14.9136305  57.1313620  34.9760580
  13.5618174  56.7056608  36.6231942  17.2187769  54.6724319  37.4181604
  16.5536869  55.3156710  38.2134914  17.8286910  53.5794067  37.8345799
  18.3212578  53.0663300  37.1174788  17.9384983  53.0704880  39.2019629
  17.5699604  53.8109636  39.9118733  17.2849834  51.7743158  39.3225694
  16.2997890  51.9490862  38.8901854  17.8036928  50.4846430  38.6188555
  18.8890815  50.3851318  38.6298394  17.2941136  49.5981312  38.9963794
  17.5747597  50.5598402  37.5558257  17.1532202  51.4383221  40.6856060
  17.9568517  51.0135317  40.9943628  19.3641186  52.9082870  39.7663903
  20.2531695  52.5363398  38.9910316  19.5780385  53.2489061  41.0505629
  18.8122952  53.7898588  41.4262152  20.5895209  52.6613140  41.9204330
  21.5424252  52.8349018  41.4204884  20.7488585  53.5603952  43.1512928
  21.7023468  53.1679630  43.5047817  21.0384321  54.5982027  42.9863644
  19.6270502  53.5400915  44.2537642  19.4446886  52.4829531  44.4469023
  19.9817884  53.9899492  45.1810694  18.2456720  54.2525244  43.9126348
  18.1131256  54.9415922  42.8952026  17.2655129  54.0210295  44.6443272
  20.3935909  51.1559248  42.1401644  19.2444193  50.6801844  42.1645832
  21.4778638  50.4456139  42.2459555  22.4053693  50.8447361  42.2227716
  21.3533330  48.9994764  42.6591349  20.2941012  48.7431955  42.6804781
  22.0588255  48.1245375  41.6571856  23.0970168  48.4309149  41.5291643
  22.2902799  46.6689253  42.1433640  22.8839779  46.5215540  43.0455303
  21.3035536  46.2060308  42.1576500  22.9373312  46.2013340  41.4012194
  21.3812757  48.1630707  40.2810621  21.5194368  49.1422367  39.8225522
  21.8702197  47.4905872  39.5762181  19.8633969  47.8310680  40.2204895
  19.2686582  48.6759472  40.5677128  19.6578276  47.7923489  39.1507459
  19.5320928  46.9097614  40.6995821  21.9119191  48.7946081  44.1006184
  21.3049126  48.1004953  44.9440002  23.0761075  49.4306803  44.4503403
  23.4730697  50.1111794  43.8183260  23.6277771  49.5185566  45.8311319
  22.8213525  49.4882250  46.5638351  24.5087075  48.2453585  46.1617565
  23.8027883  47.4234104  46.0426998  25.7789683  48.0301523  45.4602957
  26.4704776  47.4567318  46.0776281  25.6083941  47.4359131  44.5625830
  26.1503553  48.9794874  45.0743723  24.8402143  48.2914734  47.5195694
  24.7646689  47.4178696  47.9103565  24.4460297  50.8350611  45.9974957
  24.3509364  51.7753887  45.2059174  25.2057815  50.9460878  47.0864296
  25.0988984  50.1626205  47.7148008  26.2006617  52.0454931  47.4138832
  26.2452579  52.6172924  46.4869738  25.6694770  52.9741859  48.5401249
  24.7336912  53.3906984  48.1673956  25.3989387  52.2995138  49.8826122
  24.9088454  52.9363155  50.6190825  24.6850276  51.4916945  49.7217894
  26.3469076  52.0114136  50.3369856  26.5711355  54.0133572  48.8217258
  26.1420846  54.6195793  49.4300127  27.5707555  51.4328003  47.7588367
  27.6049995  50.2640104  48.2121086  28.6655021  52.2071505  47.6532841
  28.4428000  53.1872082  47.7532530  30.0704837  51.7627096  47.5908995
  30.0804543  50.9875393  46.8246555  30.9603620  52.8915691  47.1208334
  31.9832015  52.5968409  46.8862152  30.5438232  53.2523918  46.1804104
  30.9725046  54.1487122  48.0496740  29.9540281  54.5357418  48.0178499
  31.0845423  53.9894342  49.1221380  32.0108175  55.2343130  47.6002407
  33.0647421  54.9566793  47.6164484  31.7483521  55.5791235  46.6000795
  31.9827175  56.4274073  48.5306025  30.9743261  56.8381500  48.5809469
  32.2837114  56.2133694  49.5561266  32.7925801  57.5549269  47.9810905
  32.6522374  58.3730698  48.5564566  33.7293100  57.1915627  47.8780937
  32.3787165  57.7382278  47.0781946  30.5531120  51.1299896  48.9143705
  31.5560961  50.4032326  49.0314150  29.8743725  51.4721537  49.9836206
  29.1779137  52.1997643  49.9085999  30.1282215  50.9537029  51.3150454
  31.1947322  51.0395575  51.5231180  29.2687416  51.8335867  52.2170305
  28.2340884  51.7778063  51.8786812  29.1469502  51.4131880  53.2152939
  29.7629571  53.2688665  52.2914505  29.2282033  54.2115307  51.6728830
  30.8867836  53.5229540  52.8879070  31.2784529  54.4524765  52.8361034
  31.4102864  52.6922750  53.1245899  29.6819353  49.4598532  51.4662457
  30.2465272  48.6669731  52.2333765  28.7226343  48.9029455  50.6446600
  28.2575059  49.3902445  49.8921347  28.3540273  47.4842787  50.5939674
  28.3175445  47.0664310  51.6000366  26.9372344  47.3654699  50.0765419
  26.9486952  47.6587915  49.0268135  26.7141795  46.3000441  50.0198126
  25.8545780  48.0298328  50.8513069  25.9430194  49.1138983  50.7800007
  24.9482226  47.8410339  50.2760029  25.6718731  47.6752758  52.3093557
  26.1488581  46.5849447  52.7232933  25.0428653  48.4976816  53.0799389
  29.2867517  46.4800119  49.8273706  29.1237998  45.2939510  50.0302601
  30.2915239  46.9662857  49.1094398  30.3059912  47.9523659  48.8914251
  31.3219094  46.0192823  48.5828924  30.7627010  45.3326750  47.9473114
  32.3429179  46.7544127  47.7071190  32.9737639  47.3275280  48.3865881
  33.3994508  45.8304405  47.0791435  34.1467857  45.4652119  47.7835560
  32.8220820  45.0351143  46.6077566  33.9665866  46.4133644  46.3534212
  31.8202043  47.7950859  46.6182566  31.3883209  47.2561121  45.7749939
  31.0941505  48.4235001  47.1340466  32.8882074  48.8038158  46.1672783
  32.2791910  49.3658161  45.4592133  33.1569910  49.3421650  47.0761442
  33.7613535  48.3262873  45.7226658  32.1490049  45.1865625  49.7166586
  32.3946476  45.6917715  50.8185482  32.3867416  43.9535666  49.3773651
  32.1308708  43.7356520  48.4249210  32.5810313  42.8704166  50.3866434
  32.9350114  43.1660318  51.3742733  31.1619115  42.3416996  50.7514715
  30.5854750  43.2315493  51.0044336  30.7604265  41.9770050  49.8060083
  30.9748435  41.1772680  51.6899586  30.7058120  39.8444533  51.2831688
  30.5502605  39.5507026  50.2555895  30.6953359  38.7226486  52.2371626
  30.3430820  37.7459955  51.9397163  30.8167195  39.0234065  53.6150837
  30.7541299  38.2981277  54.4128656  31.1442924  40.3258610  53.9792776
  31.4012098  40.5052137  55.0128317  31.2711978  41.3522482  53.0604362
  31.5426588  42.3265314  53.4392262  33.4642243  41.7544031  49.9147415
  33.1248593  41.0851574  48.9544010  34.5523500  41.4324379  50.6783962
  34.6688843  41.9485903  51.5386915  35.5267167  40.4273510  50.2640772
  35.4184794  40.1248121  49.2225122  37.0192027  40.9534645  50.3924084
  36.9616079  41.9489050  49.9520922  37.3201990  40.8563566  51.4355135
  37.8468108  40.1764250  49.5957994  38.4495068  39.6849418  50.1586485
  35.3260207  39.0975475  51.0147715  35.1201820  39.0314054  52.2295666
  35.4555702  37.9109216  50.3176117  35.5593538  37.9358149  49.3132639
  35.2665257  36.5631747  50.8834648  35.0687671  36.5970707  51.9548416
  34.2546272  35.8943176  49.9739504  34.6898890  35.6617904  49.0020609
  34.1278934  34.8815060  50.3563833  32.7898026  36.5183902  49.9157381
  32.8239298  37.2888708  50.6859922  32.5675321  37.1917200  48.5704184
  31.5984726  37.6901817  48.5941076  33.3025908  37.9316068  48.2536221
  32.5718141  36.4428711  47.7783918  31.7095590  35.5553770  50.1866055
  31.5658689  34.9445868  49.2953205  31.7121863  35.0660324  51.1605883
  30.8984184  36.2826681  50.1519775  36.5752387  35.8536386  50.8889055
  36.7153502  34.7582698  51.4737940  37.5611115  36.4160943  50.2067089
  37.3963952  37.3713732  49.9231434  38.8732529  35.7667112  50.0607824
  39.1033959  35.1494884  50.9292126  38.7422180  34.8188853  48.9114237
  37.8060079  34.2686129  49.0053082  38.7629175  35.4998064  48.0605268
  39.9318385  34.0042305  49.0064955  40.5565882  34.4557071  48.4342527
  39.9328518  36.8120670  49.8565483  39.6185589  38.0093074  49.5508862
  41.1561346  36.4161277  50.2132988  41.3774014  35.4380703  50.0926924
  42.2166729  37.4116015  50.4827595  41.9421101  38.1926870  51.1917210
  43.3264256  36.6378212  51.1695576  42.8202868  36.0718369  51.9515944
  43.8738346  36.0481167  50.4342365  44.3887997  37.4692130  51.8321037
  43.9884472  38.4554553  52.0669270  44.6435595  37.0400000  52.8011084
  45.7095337  37.5859809  51.0462523  46.3254261  36.6914439  50.9536314
  45.3241634  37.7556562  50.0408602  46.5718985  38.6941385  51.4741468
  47.1243334  38.5422730  52.3059273  46.4126158  39.9490714  51.1095715
  47.1330214  40.8395243  51.7311287  47.6162052  40.6644297  52.6005983
  46.9182396  41.8061304  51.5320110  45.6446314  40.4060221  50.1724911
  44.8424053  39.8751092  49.8648214  45.5758619  41.4011574  50.0141382
  42.6616001  38.2050824  49.1479683  43.2374668  39.2267537  49.2520237
  42.4679899  37.6762009  47.9791069  41.9425392  36.8162918  47.9116392
  42.5949764  38.3453703  46.7196321  43.6506796  38.5497379  46.5412140
  42.0260954  37.3862481  45.6085300  40.9583807  37.1909380  45.7082462
  42.0890713  37.8938270  44.6459818  42.8464651  36.0808897  45.4650736
  42.7915621  35.7002616  44.4451666  43.8792753  36.3620424  45.6708908
  42.3866272  34.9600101  46.4372635  41.4971447  35.0995159  47.2676992
  43.0016994  33.9306951  46.4419317  41.8396235  39.6723676  46.6376448
  42.2618103  40.4098511  45.7705450  40.7510948  39.8674512  47.3878622
  40.4499578  39.0590358  47.9131031  39.8604274  41.0585165  47.2451448
  39.5275187  41.4490938  48.2067680  40.3818369  41.8427420  46.6963100
  38.5875654  40.7750320  46.4582586  38.4778547  39.8028326  45.7569551
  37.6280046  41.7596626  46.3779497  37.7597141  43.0724430  46.9465017
  38.5998464  43.6675596  46.5885735  37.9116511  42.9808187  48.0219650
  36.4681172  43.7922907  46.6553020  36.5313029  44.2378759  45.6625462
  36.2494111  44.5873785  47.3681164  35.3854203  42.6716661  46.6282320
  34.5479774  42.9417229  45.9849167  35.1764369  42.4717760  47.6791716
  36.2214851  41.5137434  46.0226774  35.8348036  40.5671120  46.4001274
  35.9256387  41.5628910  44.5380306  34.8346877  41.2918472  44.1605234
  36.9731998  41.6693544  43.7076998  37.9148602  41.8779755  44.0074682
  36.9060779  41.5838146  42.2405148  35.8896923  41.7373371  41.8778896
  37.7136683  42.6910019  41.6036510  37.5179267  43.6048508  42.1646023
  38.7988305  42.5889301  41.5929079  37.3053169  43.0044127  40.1504660
  38.0265045  43.7185955  39.7530603  37.3693824  42.0318699  39.6624517
  35.5925846  43.7696934  40.0144768  35.8179569  45.2807856  41.0238981
  35.8603215  44.9443054  42.0597982  36.7173958  45.8421373  40.7709217
  34.9860024  45.9694767  40.8767414  37.3405361  40.2324677  41.8198347
  38.3099818  40.0492191  41.0895395  36.5748596  39.2355776  42.2134113
  35.7691741  39.5853734  42.7120256  36.7835450  37.7947593  41.9225979
  37.8515673  37.5777388  41.9407749  36.1689425  36.8804097  42.9892206
  35.2344537  37.2102714  43.4431267  36.0094380  35.8662653  42.6229286
  36.8660378  36.8859076  43.8271570  36.2589025  37.3830390  40.4958677
  35.0805712  37.3787260  40.2256298  37.2156858  37.1298766  39.6163273
  38.1751108  37.3597026  39.8326182  36.7889476  36.5583181  38.3131695
  35.9268355  37.1136069  37.9436827  37.9223704  36.6210938  37.3234153
  37.5574851  36.2579179  36.3626552  38.2108068  37.6572466  37.1465111
  38.7952399  36.0267591  37.5935435  36.3503265  35.1244879  38.5876513
  37.0240188  34.5640731  39.4043446  35.2982354  34.5255852  38.0060029
  34.7017980  35.0731373  37.4022198  34.8888183  33.1146216  38.1112456
  35.6608200  32.4853086  38.5540533  33.6574554  33.0663371  38.9751124
  32.8680825  33.7465549  38.6552787  33.1991100  32.1045327  38.7449694
  33.8290811  33.0888891  40.4908323  34.4320083  32.0289445  41.2207079
  34.7604227  31.2736845  40.5220413  34.5592785  32.1397233  42.6245832
  35.1010203  31.3719773  43.1570148  34.2675900  33.3376861  43.3369684
  34.5467925  33.3870435  44.6441936  34.4005036  32.5294566  45.0500774
  33.8124824  34.3777156  42.5634527  33.6506128  35.2970266  43.1066561
  33.5374904  34.2900801  41.1719227  33.2151985  35.1584029  40.6164503
  34.5794082  32.5809479  36.7068315  34.1501975  33.3129859  35.8255672
  34.8899388  31.3104630  36.3806438  35.2880859  30.7329988  37.1073580
  34.4275832  30.6305790  35.0944042  34.1174269  31.4392424  34.4326115
  35.6628633  29.9359846  34.5104074  36.3911319  30.7469630  34.5166540
  36.1839676  28.7467813  35.3428960  37.0691395  28.2861638  34.9042678
  36.4395928  29.1099477  36.3383174  35.5060506  27.8934503  35.3614616
  35.3526974  29.3761730  33.1224155  35.0117278  30.1849341  32.4760795
  36.2533903  28.9800239  32.6534581  34.5455122  28.6486268  33.2074451
  33.1556177  29.7255063  35.1509356  33.0466413  28.9147353  36.0546112
  32.3132420  29.8329210  34.1359377  32.5799513  30.4445815  33.3777571
  31.0681295  29.0761065  34.0094137  30.8746910  28.8272572  35.0528479
  30.0280809  30.1594496  33.5526013  29.0638185  29.9442601  34.0130258
  30.3946280  31.1808991  33.6545229  29.7268248  30.0897074  32.0307875
  30.5355048  29.6258330  31.2189293  28.5309625  30.5141544  31.6052151
  28.3654547  30.6540608  30.6187415  28.0143452  31.0418463  32.2942352
  31.1282063  27.7126813  33.1719756  32.2709799  27.4577546  32.6505136
  30.0983548  26.8877053  33.0766773  28.9047098  26.9927168  33.8089800
  28.1935334  27.3643613  33.0712771  29.0169692  27.6958346  34.6342850
  28.5186696  25.5815911  34.2868829  27.4924755  25.3017449  34.5250297
  29.1185117  25.4408455  35.1860380  29.1477895  24.7379231  33.2312799
  28.3479309  24.4818854  32.5364614  29.5278716  23.7990308  33.6339211
  30.2077150  25.5341482  32.5039005  31.1430049  25.0581932  32.7985311
  30.0568533  25.5183887  30.9924126  29.8708463  24.4819641  30.3840327
  30.2474093  26.6690469  30.3504276  30.3918219  27.4764848  30.9397411
  30.3641582  26.8134594  28.8892961  30.4785061  25.8664298  28.3618879
  29.1409969  27.5639486  28.3716273  29.1587782  28.5600543  28.8138437
  29.2697001  27.6095986  27.2902155  27.8939056  26.8398309  28.6063957
  27.6994252  25.4981470  28.3617592  26.4066434  25.2755284  28.3816314
  25.9019685  24.3676877  28.0857706  25.7460332  26.3704157  28.5946751
  24.7415423  26.4447403  28.5199714  26.6598511  27.4127436  28.6650777
  26.4134002  28.4633112  28.7094545  31.6902471  27.4411964  28.4892106
  32.0030785  27.6838017  27.3075557  32.5465441  27.7478290  29.5243788
  32.2252536  27.5364304  30.4582858  33.9413977  28.3241773  29.4385457
  34.5388699  27.8917217  30.2411079  34.3177867  27.9973149  28.4692192
  34.0240550  29.8513389  29.4439745  35.1421762  30.3356171  29.5604849
  32.9057288  30.5480075  29.3990064  32.0101166  30.0914431  29.3013835
  32.9293776  31.9664788  29.5901299  33.8199496  32.3017716  29.0585661
  31.6994619  32.6419091  29.0034437  30.8094239  32.3800087  29.5755792
  31.8303227  33.7034893  29.2132688  31.4737082  32.4708319  27.5371671
  32.3028088  33.1770587  26.6277838  33.1563854  33.7649822  26.9313502
  31.9947314  33.0241442  25.2509332  32.5644636  33.5811114  24.5218301
  30.9838986  32.1348977  24.7964168  30.8055043  32.0801282  23.4508419
  30.3118181  31.3279390  23.1160498  30.2292204  31.3823605  25.7363534
  29.4741511  30.6765366  25.4231572  30.4938722  31.5630817  27.0865703
  30.0087237  30.9630179  27.8421879  33.2947159  32.4342012  31.0119581
  32.7257752  31.9535327  32.0408750  34.1973186  33.4377766  31.1234736
  34.6095610  33.8624597  30.3050613  34.8014116  34.0108752  32.3476624
  34.5391512  33.3506012  33.1743169  36.3707495  33.8674378  32.4321461
  36.7961407  34.6701145  31.8297744  36.8326402  34.1403913  33.9211893
  36.3997936  33.4127164  34.6076560  37.8968906  33.9240313  34.0142488
  36.6929460  35.1796675  34.2186594  36.9845033  32.5917149  31.9298410
  36.5380859  31.7012072  32.3723388  36.8805361  32.6350284  30.8456755
  38.0346227  32.6281714  32.2197151  34.2634678  35.4322505  32.6650333
  34.3279028  36.3354063  31.8142486  33.9713836  35.6950307  33.9085412
  34.0395236  34.8979139  34.5250368  33.3381772  36.9197226  34.3826914
  33.2853794  37.7436399  33.6710215  31.8520093  36.5418839  34.7904897
  31.7787337  35.6765413  35.4492092  31.3399553  37.4334669  35.1524019
  31.0720849  35.9889865  33.6136246  30.2748871  36.7964363  32.8568149
  29.5928955  35.9977579  32.1085906  28.7782478  36.4008546  31.5252686
  30.0521779  34.7156429  32.1739388  29.4242096  33.9499879  31.9751215
  31.0405302  34.6830678  33.0993676  31.6253185  33.8827133  33.5281491
  33.9041924  37.5034070  35.6178117  34.2213392  36.7709351  36.5928745
  33.9954925  38.8775992  35.6685138  33.6117220  39.2903805  34.8304009
  34.5848298  39.7333908  36.7103553  35.3955317  39.2927384  37.2906041
  35.2608538  40.8838844  35.9092641  35.9255767  40.4804373  35.1454115
  34.4748020  41.4539766  35.4140663  36.0088801  41.8709326  36.8149495
  35.4126406  42.2597313  37.6404381  36.8131065  41.3177824  37.3000765
  36.5708828  43.0962801  36.1330009  36.3588762  43.2047081  34.9096060
  36.9824553  44.0589571  36.8559766  33.4703708  40.1941824  37.7129793
  32.6467109  41.0664797  37.3400021  33.3213067  39.4984627  38.8452530
  33.9084959  38.6767650  38.8343000  32.3059177  39.5369291  39.9016547
  31.4402819  40.0179529  39.4462538  31.8873405  38.0864000  40.3164816
  32.7187204  37.6482821  40.8687115  30.7097411  38.2211328  41.3314009
  30.6193686  37.2165132  41.7445374  30.9969735  38.8148069  42.1992445
  29.8481393  38.5979199  40.7802391  31.6075206  36.9828987  39.2725706
  32.4912310  36.8381071  38.6511278  31.2570214  36.0497165  39.7134972
  30.5795789  37.5144434  38.2279444  30.8498430  38.5111117  37.8790760
  30.6599712  36.8614078  37.3589301  29.6064281  37.6020265  38.7110686
  32.7442861  40.5006027  41.0132885  33.5558915  40.1366854  41.8501759
  32.1098900  41.7073011  40.9889317  31.4994907  41.9078350  40.2096367
  32.1589875  42.6229715  42.1543932  33.1680560  42.7033329  42.5586510
  31.6947651  44.0455437  41.7375660  32.4100685  44.3356705  40.9679794
  30.8049583  44.0401173  41.1080313  31.5706587  45.1084948  42.7491379
  30.9701991  44.6873283  43.5554695  32.8024769  45.5964565  43.4609127
  33.5697627  45.8798790  42.7404642  32.5168180  46.4347029  44.0963984
  33.1318712  44.7793913  44.1027880  30.6403351  46.2015295  42.3222542
  31.1220217  47.0587349  41.8518543  29.8555136  45.8318949  41.6623116
  30.2173758  46.6736841  43.2089806  31.2297726  42.0171976  43.2806063
  29.9834323  42.0343399  43.1253433  31.7991757  41.4840889  44.3919468
  32.8050137  41.5001822  44.4821358  31.0377336  40.8447027  45.4886723
  30.1008177  40.4654980  45.0806427  31.9220209  39.7348762  46.1653709
  31.3275862  39.4140887  47.0208502  32.1138597  38.5139585  45.3390408
  32.5723648  38.8043332  44.3937588  32.6536322  37.7342153  45.8763933
  31.1272812  38.1383204  45.0676346  33.1941748  40.0819635  46.5825844
  33.0949616  40.6437492  47.3546934  30.5573940  41.9285297  46.4503336
  31.2413859  42.8508091  46.7681980  29.2737150  41.8492556  46.7960930
  28.7389970  41.0775280  46.4237833  28.5276890  42.9011536  47.4902773
  29.1447282  43.6639977  47.9650736  27.6531625  43.6638975  46.4610910
  27.2588921  42.9435587  45.7443190  26.4604878  44.5267344  47.1436977
  26.8271041  45.2402544  47.8816557  25.8283567  44.8943806  46.3353968
  25.8740783  43.8419151  47.7562714  28.4105253  44.7431707  45.6468248
  28.6454105  45.5556488  46.3344383  29.3400216  44.2677164  45.3336477
  27.8233719  45.0178671  44.7705317  27.7154016  42.2213221  48.5715580
  27.0343041  41.1632442  48.3723402  27.7520704  42.7543974  49.8126268
  28.4292555  43.4902668  49.9541235  27.0618796  42.2798634  51.0047102
  27.1902132  41.2008476  51.0904837  27.6848149  42.9595041  52.2748327
  28.7530065  42.7591944  52.3581648  27.6072764  44.0396690  52.1510220
  27.1215057  42.5412893  53.5740185  26.0960841  43.3619022  54.1414213
  25.7703066  44.2335367  53.5932159  25.3965712  42.9323006  55.2852058
  24.5430040  43.4922361  55.6377697  25.8914733  41.8344498  56.0340738
  25.3940463  41.4103365  57.2358036  26.0296679  40.7708740  57.5654650
  26.9021869  40.9718847  55.4567385  27.2392702  40.0492144  55.9055758
  27.4771547  41.3804340  54.2102766  28.1703186  40.6736708  53.7785101
  25.5601645  42.5676346  50.9743547  24.8537922  41.7592859  51.5611696
  25.1428652  43.7854481  50.4491949  25.8397222  44.4368458  50.1172733
  23.6927032  44.0513563  50.2151680  23.1054306  43.1352568  50.2781773
  23.2317019  45.0410652  51.3545847  23.7876630  44.7829151  52.2558975
  23.5358095  46.0717297  51.1719561  21.6931272  45.0663662  51.6667414
  21.1060143  45.4288960  50.8229542  21.3340473  44.0443039  51.7873812
  21.3090134  45.8950329  52.9264498  21.9018030  46.8077946  52.8667259
  20.3062844  46.2560463  52.6977539  21.3214231  45.0893450  54.1262579
  20.5738759  44.3107939  53.9741707  22.2879696  44.6224403  54.3157101
  21.0583901  45.9326792  55.2627325  20.1734185  46.3995457  55.1250124
  20.8691430  45.4111814  56.1067247  21.8075490  46.5623569  55.5124760
  23.4617162  44.8604298  48.9443111  24.0825772  45.8814430  48.7094021
  22.4626589  44.5374203  48.1830025  22.0412850  43.6323547  48.3359861
  21.9057298  45.2407074  46.9840431  22.1027398  46.3118219  47.0288658
  22.6674128  44.6984339  45.7383251  22.3280191  45.1812506  44.8219204
  23.7536407  44.7448778  45.8161497  22.4265957  43.6371326  45.6770802
  20.4137468  45.1053715  46.9067860  19.7977889  44.3756437  47.6747942
  19.7992730  45.9111595  46.0320997  20.3673315  46.4579105  45.4008484
  18.3495927  46.0405684  45.7943010  17.8019881  45.1232767  46.0106468
  17.9378092  47.0176363  46.9407272  18.4353161  46.6993141  47.8568411
  18.3386230  48.0281210  46.8608952  16.1886704  47.1239614  47.1796417
  16.2542439  46.9626665  48.5042477  17.9824591  46.5429735  44.3505859
  18.8730323  46.6277599  43.5586405  16.7216861  46.8077469  44.0743494
  16.0725188  46.7696714  44.8471546  16.1126637  47.3158550  42.8083086
  15.0697684  47.4464417  43.0971336  16.7033350  48.7208462  42.4023008
  17.7909386  48.6668491  42.3543167  16.3600028  48.9490747  41.3932753
  16.2814963  49.7547865  43.4562063  15.0712168  49.7733879  43.7320328
  17.2152984  50.6049824  43.9768982  16.9239902  51.3131475  44.6354866
  18.1911254  50.5089617  43.7347460  16.2048936  46.2708473  41.6783571
  16.1386025  46.5490007  40.4560328  16.2131083  44.9522305  42.0658922
  16.2311423  44.6800089  43.0383539  16.3582242  43.8089561  41.1373520
  16.3993645  44.0738058  40.0808191  17.6963353  43.0740213  41.4202738
  17.7846718  42.7873659  42.4681902  17.7167916  42.1691656  40.8128786
  18.9596665  43.9247990  40.9994411  18.7500644  44.9599934  41.2687683
  20.1191521  43.3964872  41.7761612  20.3699732  42.3931313  41.4319611
  21.0040879  44.0161467  41.6311789  19.7130847  43.4188175  42.7874517
  19.1993356  43.9210939  39.5212793  19.3331277  42.8933191  39.1838121
  18.2847011  44.1762209  38.9860582  20.0040698  44.6243000  39.3067932
  15.2138245  42.7593136  41.0275412  14.9071836  42.0438194  41.9821453
  14.5698607  42.7275276  39.8285604  14.7853160  43.3881235  39.0955567
  13.7805915  41.5461159  39.5040655  13.0030119  41.4565372  40.2626467
  13.2121503  41.6385126  38.0246425  14.0196478  42.0736599  37.4358344
  13.0543029  40.6137466  37.6884341  11.9039941  42.2983503  37.8949261
  11.7688823  43.4033823  37.4332094  10.8924913  41.7215347  38.4310317
   9.9872965  42.1621370  38.5122395  11.1029851  40.8070040  38.8044262
  14.7340286  40.2573633  39.5832992  15.7734740  40.2351236  38.9888239
  14.3220234  39.2054462  40.3110647  13.4247243  39.3634605  40.7469368
  14.9674046  37.8926206  40.4601812  16.0105884  37.9306269  40.1464510
  14.8792315  37.4113250  41.9699669  13.8587368  37.1233964  42.2225332
  15.3721607  36.4484596  42.1041822  15.3889513  38.5186505  42.9865599
  14.5874369  39.2507553  43.0850315  15.6898320  37.7949667  44.3322802
  16.5229523  37.0943332  44.2763138  15.8765626  38.5376048  45.1079893
  14.8581588  37.2241211  44.7452641  16.7385197  39.1819739  42.5598764
  17.3110831  39.3969083  43.4621334  17.2955143  38.4295535  42.0015526
  16.4341259  40.0786543  42.0200491  14.3160903  36.8833089  39.4872308
  13.3034027  36.3307500  39.8494172  14.8453987  36.6496921  38.3198190
  15.8461809  36.7723703  38.2607722  14.1430902  35.9285235  37.1689081
  13.0665338  35.9982562  37.3246717  14.4350159  36.6371727  35.7816339
  13.9890158  36.0318589  34.9924707  14.0488219  38.0971050  35.7756782
  13.0162477  38.2269168  36.0997748  14.6332824  38.6577964  36.5051556
  14.1862237  38.3999252  34.7376394  15.9855318  36.5460563  35.4977179
  16.3401341  37.4101615  36.0595727  16.4808702  35.6104088  35.7571459
  16.3956499  36.5977693  34.0004635  15.9508002  37.4539566  33.4933543
  17.4833155  36.6660094  33.9797473  16.0483491  35.7042456  33.4817171
  14.4271708  34.4315267  37.0982003  14.8309553  33.8157320  36.1241841
  14.2187500  33.8015103  38.2947946  13.9440942  34.3530345  39.0950990
  14.4257379  32.3215294  38.5162067  13.6803949  31.7871881  37.9271030
  15.4504812  32.0370102  38.2773709  14.2078316  32.0351529  39.9888062
  13.7443578  32.9384279  40.7264614  14.5062232  30.7566667  40.3308249
  14.8277986  30.1823044  39.5647931  14.5122516  30.1027513  41.5965176
  14.3085968  30.8799672  42.3331070  13.4319198  28.9518952  41.5566158
  13.6844730  28.2756782  40.7398844  13.5873985  28.3155823  42.4278402
  12.0288599  29.2827702  41.2680387  11.7454350  30.0757432  41.9601107
  11.9329357  29.6803665  40.2576828  11.0198462  28.0499244  41.4239693
  11.4418614  27.2759986  40.7828426  11.2174499  27.6694083  42.4260950
   9.6054238  28.4123325  41.1830521   9.4368505  29.0747309  40.4394722
   8.6357445  27.9536152  41.9597101   7.3848432  28.3947015  41.7605972
   7.1903968  29.0997267  41.0640097   6.6541481  28.1577277  42.4163628
   8.7013286  27.0081186  42.8481007   9.5947170  26.5429807  42.9229689
   7.9313153  26.6594005  43.4008932  15.9529805  29.5682454  41.8296623
  16.5912795  29.2444658  40.7992125  16.4835441  29.3971014  43.0843830
  15.7923293  29.9903727  44.2344666  14.9394834  29.3452692  44.4456482
  15.5086124  31.0383129  44.1373777  16.8372500  29.8310804  45.4425240
  16.3622081  29.4255948  46.3358450  17.2521842  30.8101797  45.6818819
  18.0007541  28.9517832  44.9135971  17.8493023  27.9261303  45.2500486
  18.9211822  29.3655348  45.3255653  17.8559148  29.0009689  43.4032583
  18.4853518  29.7891331  42.9900885  18.1962764  27.6832128  42.8062725
  17.4404347  26.7128277  43.0164909  19.3844819  27.5662947  42.2407150
  19.8165524  28.4612489  42.0605135  20.1281047  26.3180470  41.9190502
  19.5002174  25.4706979  42.1944761  20.4057741  26.3804173  40.4121923
  19.4701946  26.3200998  39.8561788  20.8178592  27.3465371  40.1208210
  21.2060881  25.3153276  39.8768687  21.1036325  25.4397655  38.9304972
  21.4642692  26.2231016  42.6632690  21.9201350  27.2422719  43.1107235
  22.0262742  25.0360894  42.7619123  21.6009951  24.2180586  42.3495245
  23.3662271  24.8456430  43.3470583  23.7394667  25.8029532  43.7108612
  23.3212209  23.9093661  44.5935535  24.3503046  23.8150573  44.9402428
  22.7492714  24.6500826  45.7042789  23.2969880  25.5614161  45.9442329
  21.7245173  24.8794317  45.4120731  22.7430439  23.9367652  46.5284395
  22.8300953  22.6265550  44.4186163  21.9070339  22.7113175  44.1688681
  24.4095922  24.2560387  42.3414230  25.5809784  24.1124606  42.6769257
  23.9987469  24.0106487  41.0967875  23.1558847  24.4181490  40.7177925
  24.8039460  23.5083318  40.0503683  25.1955724  22.5544930  40.4038143
  23.9064717  23.0446815  38.8687754  23.2333207  23.8470387  38.5667992
  24.5144081  22.7681470  38.0073547  23.1158113  21.7770243  39.1738701
  23.7861443  21.0061479  39.5540071  22.4633384  21.9506431  40.0295782
  22.4505806  21.1566401  37.8821683  21.4246821  21.7490339  37.4275088
  22.8350639  20.0919294  37.3754191  26.0350227  24.3894482  39.5983410
  25.8267832  25.4685664  39.0597272  27.1997118  23.8353467  39.7394729
  27.1134472  22.8704596  40.0252390  28.4718871  24.4736099  39.4565868
  29.2563915  23.7966895  39.7948647  28.8076353  24.7089720  37.9913712
  28.5186267  23.9055514  37.3138070  28.2066107  25.5642533  37.6825619
  30.3195930  25.0358868  37.6819730  31.4320898  24.1690111  37.8523231
  32.5180173  24.8337865  37.4757028  33.5103941  24.4081283  37.4556708
  32.2313976  26.0934591  37.1002650  32.9016137  26.7786694  36.7818379
  30.8428216  26.1905742  37.1588922  30.2347326  27.0535636  36.9311285
  28.5855699  25.7839155  40.2907467  29.1326451  26.7869377  39.8146152
  28.0912018  25.7584000  41.5137625  27.4858236  24.9881792  41.7594767
  28.1122160  26.9307327  42.3475361  27.6341701  27.7255511  41.7749643
  27.1102309  26.7400622  43.5136890  26.1924076  26.3014078  43.1221724
  27.4540925  26.0544205  44.2881298  26.7789412  27.8327012  44.2174721
  25.9876156  27.7416062  44.7532892  29.4193220  27.3812556  42.8729391
  30.1886964  26.6216826  43.4536314  29.7438931  28.5736871  42.4056196
  29.0680194  29.1127157  41.8833733  31.0212326  29.2962074  42.5864983
  31.8400526  28.6552620  42.2596598  30.8957195  30.6133771  41.8004799
  30.0128245  31.1103487  42.2024965  31.6847086  31.3072491  42.0905685
  30.9124303  30.5069137  40.2727365  31.4321113  29.4730973  39.5274425
  31.8762159  28.5771894  39.9355173  31.3587785  29.8292923  38.1896305
  31.8333650  29.2800331  37.4873614  30.5712104  30.9803987  38.0227876
  30.1692772  31.6733551  36.8536472  30.5025029  31.3881850  35.8667135
  29.4109917  32.8793859  36.9367552  29.1328335  33.4799743  36.0833359
  29.1787982  33.3583474  38.2389259  28.7038207  34.3199277  38.3660412
  29.6346927  32.7014256  39.4150090  29.4122267  33.1277585  40.3820419
  30.3677845  31.4419746  39.3510318  31.2909460  29.5671105  44.0594864
  32.4355960  29.7354984  44.3708181  30.2457333  29.7831416  44.8777437
  29.3275833  29.6687794  44.4727468  30.3798127  29.9335504  46.3450480
  31.4386535  30.0303292  46.5850544  29.7667193  31.2590218  46.8235683
  28.6872625  31.1629248  46.7067623  30.0420094  31.2629128  47.8782225
  30.2915835  32.5011921  46.1775970  31.4631724  33.0469322  46.7186356
  31.9429088  32.6700544  47.6098204  32.0023894  34.1946840  46.1209440
  32.9556489  34.5763898  46.4555931  31.4834833  34.7896528  44.9532413
  31.9417548  35.5777359  44.3741798  30.4295254  34.1113186  44.3311405
  30.0938463  34.4521356  43.3628654  29.7625256  33.0543804  45.0358009
  28.8606286  32.6482487  44.6021605  29.7690344  28.7369728  47.1001053
  28.5976768  28.6793900  47.3924351  30.6039953  27.7469897  47.3533583
  31.9765711  27.5328183  46.9594717  32.6107240  28.1453586  47.6003647
  32.1449351  27.9071498  45.9497023  32.2197342  26.0451078  47.1166611
  33.2701039  25.8688211  47.3484898  31.8450546  25.5255914  46.2347221
  31.3851428  25.6891775  48.3112383  32.0350337  25.9500003  49.1465330
  31.1780143  24.6239114  48.2092237  30.1310778  26.5170884  47.9651642
  29.5260382  26.0138583  47.2109842  29.3682194  26.7593479  49.3226051
  29.7634268  27.5054717  50.1899910  28.2321286  26.1051536  49.5776272
  27.8660274  25.5415940  48.8236523  27.2615027  26.5080190  50.5907536
  26.7082930  25.6104469  50.8671951  27.7141595  26.9844246  51.4603710
  26.1935806  27.5390244  50.1388025  25.3849149  27.9045939  50.9787035
  26.1331058  28.0644369  48.8617849  26.9544530  27.9825640  48.2797289
  25.1550722  29.0014529  48.4530687  24.4882941  29.1692066  49.2988634
  25.8407855  30.3849554  48.1683254  26.6073942  30.3564167  47.3939943
  25.0377989  30.9006786  47.6416922  26.2815666  31.1365819  49.4924593
  27.5979471  30.9082198  49.9503183  28.1003952  30.1043773  49.4328403
  28.1467223  31.5915179  51.1052990  29.0746760  31.2790608  51.5610075
  27.3257184  32.5670052  51.7712307  27.6167607  33.1257653  52.9062223
  26.8084502  33.4113979  53.3382559  26.0338569  32.8876567  51.2468958
  25.4222393  33.6026525  51.7771006  25.5539966  32.2226572  50.1001930
  24.5717025  32.5349712  49.7777605  24.4281769  28.5053706  47.1779108
  25.0207853  27.7209783  46.3955593  23.1258726  28.8803148  47.0040035
  22.6243329  29.4096684  47.7028275  22.3205686  28.5538960  45.8566427
  22.8969622  27.9641652  45.1438379  21.1418653  27.7075839  46.3199472
  20.4278541  28.2437515  46.9450903  20.6120872  27.3423195  45.4401636
  21.3655138  26.7728090  46.8340206  21.9903922  29.8932719  45.1743507
  21.8866682  31.0084343  45.7411671  21.8982840  29.8689604  43.8353109
  21.8683338  28.9476156  43.4226036  22.1508908  30.9605169  42.9689646
  22.5091529  31.8264365  43.5256815  23.4036016  30.6844926  42.0490551
  23.6438394  31.6104436  41.5265608  24.2779899  30.5363297  42.6827717
  23.4489965  29.5533037  41.0678101  24.1589689  28.4182096  41.3423157
  24.8037934  28.3018637  42.2008419  24.1002297  27.6654339  40.1217651
  24.6429777  26.8203378  40.0152636  23.4191418  28.2794142  39.1193223
  23.0018520  27.9214549  37.7674007  23.2534957  26.9383621  37.3977971
  22.1944571  28.7939239  37.0447254  21.7017245  28.4558821  36.1450887
  21.7967105  30.0117850  37.5831747  21.0837054  30.6551719  37.0891309
  22.2145057  30.3311872  38.9161229  21.8502879  31.2426805  39.3666005
  22.9525185  29.4855380  39.7406745  20.8876419  31.3481927  42.1063757
  20.2334285  30.5345702  41.5181875  20.6595206  32.6546216  41.8855524
  21.3132644  33.3640265  42.1846724  19.4791389  33.2301068  41.1249733
  19.2556322  32.4846196  40.3618288  18.2939982  33.4232783  42.0286560
  18.5010552  34.2140937  42.7496529  16.9541430  33.6656499  41.2847900
  17.0399499  34.6599674  40.8465338  16.7734778  32.9863334  40.4517269
  16.0856783  33.5689640  41.9363451  18.0398309  32.2419047  42.7553034
  18.5525596  32.3014116  43.5647297  19.7290242  34.4939852  40.4385376
  20.2547193  35.4423547  41.0070658  19.3344402  34.4615912  39.1683936
  18.8752306  33.6546803  38.7707448  19.6403694  35.6451559  38.2918382
  20.6799054  35.9384084  38.4383798  19.4677687  35.3286123  36.7714906
  18.4228051  35.0749660  36.5931129  19.6946037  36.5522504  35.9220982
  20.6958771  36.9478703  36.0925221  19.6238101  36.2396789  34.8802781
  18.9571774  37.3538375  35.8801293  20.3460383  34.2781091  36.2291169
  20.1288462  34.1307044  35.1711917  21.3878393  34.5851231  36.3212729
  20.2332091  33.4307170  36.9053602  18.8673246  36.8948436  38.6417007
  17.6604712  36.8948364  38.6098266  19.5275187  37.9336429  38.9445972
  20.5196691  37.7668738  38.8555789  19.0962207  39.2679095  39.2909145
  18.0218279  39.3142366  39.4687724  19.8204601  39.6314549  40.5875826
  19.4073808  40.5696678  40.9580231  19.6710789  38.8892770  41.3717747
  20.9060073  39.7232342  40.5520105  19.3087566  40.1273680  37.9940987
  20.4176116  40.4139137  37.5929284  18.2129312  40.6397247  37.4625802
  17.4139702  40.5577993  38.0749941  18.0004001  41.4851522  36.3108945
  18.9933729  41.5983486  35.8758116  17.1501589  40.6542730  35.2648759
  17.5219357  39.6569753  35.0297642  16.1501098  40.5271149  35.6794024
  16.8526137  41.3060951  33.9870548  16.2761605  42.1827650  34.2824459
  17.7795827  41.6120291  33.5020447  16.0563862  40.3909492  33.0032301
  16.6058230  40.0373793  31.9766402  14.8421073  40.0953484  33.1575418
  14.3361998  39.5901418  32.4441504  14.4792664  40.3015327  34.0772891
  17.3549581  42.8247881  36.7348671  16.5723205  42.8336334  37.7183509
  17.6207197  43.9065933  35.9727168  18.2247806  43.7496758  35.1786232
  17.1767008  45.2836084  36.1813045  17.4933529  45.5529118  37.1889281
  17.9608107  46.1637497  35.2523112  17.9235518  45.8825397  34.1998696
  19.0061843  46.1312771  35.5592966  17.4456704  47.9366016  35.3650045
  15.6060159  45.3778648  36.0925770  15.0099599  45.0963163  35.0467300
  15.0012004  45.9750366  37.1311092  15.5587137  46.3269711  37.8962398
  13.5501909  46.2466526  37.1088958  12.9643345  45.3441715  36.9345403
  13.2542634  46.8590832  38.5305190  12.1850801  47.0708466  38.5407019
  13.5377693  46.1166239  39.2764926  13.9393198  48.1151819  38.8881898
  15.0210845  47.9986382  38.9537835  13.7695742  48.8652229  38.1157041
  13.3800960  48.7314844  40.2258015  12.3124087  48.7355757  40.0064230
  13.5478842  48.0544901  41.0634375  13.8618100  50.1684856  40.3765917
  14.9446619  50.2663279  40.4537821  13.5195208  50.8177137  39.5707154
  13.2204032  50.7166576  41.5860271  13.6484575  51.5976524  41.8324614
  12.2143793  50.7262468  41.4970160  13.5420346  50.1196146  42.3344898
  13.2099426  47.3568249  36.1027527  12.0299602  47.4011517  35.6776690
  14.1985559  48.1774950  35.6089902  15.0630653  48.1537294  36.1306810
  14.0057957  49.0650034  34.4735575  12.9495883  49.3252897  34.4044161
  14.7518218  50.3867531  34.6309090  15.8236718  50.1981497  34.5703316
  14.3972456  51.3169193  33.5026503  13.3447814  51.3060665  33.2192707
  14.6688926  52.3653698  33.6253834  14.9647701  50.9443903  32.6498675
  14.4524515  51.0206223  35.9664178  14.8183417  50.4593325  36.8261766
  15.0149119  51.9522572  36.0280180  12.9617441  51.3987255  36.2913346
  12.6481295  52.3198557  35.8001375  12.2114503  50.6512594  36.0335517
  12.9602778  51.5370369  37.3725247  14.3778110  48.2652187  33.1790161
  13.4357131  47.7237511  32.5862718  15.6121242  48.0970812  32.7442241
  16.3335657  48.3916950  33.3867383  15.8889508  47.7454042  31.3897395
  15.0145078  47.9822445  30.7836390  17.0862651  48.6826754  30.9326267
  16.7388344  49.6261740  31.3535810  17.0759463  48.8382673  29.8538375
  18.6707115  48.3404541  31.5787816  16.2391543  46.2911510  31.0965371
  16.6212010  45.9786797  29.9289083  16.1369431  45.4241514  32.0912647
  15.7550967  45.7191372  32.9785514  16.4013970  44.0408039  31.8303680
  16.2529218  43.5944462  32.8136373  15.3181434  43.3812523  30.8802581
  15.2121532  43.9324188  29.9458718  15.5934250  42.3462105  30.6777430
  14.3678737  43.3743286  31.4141488  17.8658676  43.6908531  31.4118195
  18.0813420  42.6183510  30.8064198  18.8266015  44.5746851  31.7559767
  18.6316121  45.4403973  32.2382808  20.2036285  44.1592169  32.0015883
  20.6347847  43.6509609  31.1390972  21.0358334  45.3970051  32.3549557
  20.8162260  46.1850643  31.6346550  20.8303571  45.6394243  33.3976030
  22.3859906  45.1432180  32.1302581  22.8719044  45.8890915  32.4896407
  20.4120612  43.1689692  33.1839037  19.9188173  43.3576918  34.3276834
  21.1992455  42.0846844  32.9604387  21.6941357  41.9289875  32.0938683
  21.5152001  41.0768127  34.0438914  20.6448388  40.8489752  34.6592498
  21.8882799  39.7937775  33.3697510  22.6104283  39.9653816  32.5715303
  22.3821187  39.1441250  34.0923691  20.8768439  38.9817357  32.6129794
  20.9842610  37.6301122  32.4823546  19.9234426  37.2354722  31.7652345
  19.8026991  36.2037063  31.4697981  19.0378273  38.2296395  31.5743518
  18.1019676  38.0371690  31.2469029  19.6549678  39.3614173  32.1261692
  19.1999781  40.3389883  32.0650077  22.6701832  41.6136503  34.9429369
  23.8816786  41.4458942  34.6043944  22.2676277  42.2366571  36.0783911
  21.2785435  42.3544455  36.2455440  23.2216692  42.8400469  37.0321822
  23.9872026  43.3533287  36.4502811  22.6481843  44.0162659  37.9348135
  22.0652509  43.5172129  38.7089157  23.7938547  44.7834539  38.6195183
  24.4240117  45.0907850  37.7849245  23.5039020  45.6987190  39.1355777
  24.4187188  44.1820145  39.2797589  21.8043065  45.0804377  37.2310495
  20.9017658  44.5811749  36.8785477  21.3868594  45.7860279  37.9493666
  22.4486732  45.9072208  36.0829306  23.1026483  45.2866364  35.4703212
  21.5577698  46.2548733  35.5599284  22.8872752  46.8448353  36.4244175
  24.1679382  41.8267155  37.7648211  25.3942919  41.8770885  37.8003716
  23.5191536  40.7004213  38.1338620  22.5126648  40.6601381  38.0599856
  24.3738270  39.5225263  38.5329032  24.9260712  39.1219234  37.6828170
  25.1741600  39.7540498  39.2357278  23.5585403  38.3549666  39.1776800
  22.4811840  38.0270123  38.7097287  23.9841104  37.8320861  40.3184271
  24.8988223  38.0720997  40.6731033  23.3704329  36.7027068  41.0258484
  22.3678803  36.6946363  40.5981493  24.1407108  35.3815889  40.8795738
  25.1795864  35.4994535  41.1877012  23.6156821  34.6933746  41.5420008
  24.3089199  34.8527551  39.4695616  23.4642625  33.9554453  38.8648033
  22.5943422  33.5620546  39.3696618  23.8525176  33.7974620  37.5184965
  23.3471918  33.2632923  36.8261003  24.9887991  34.5268393  37.1843076
  25.7470155  34.7139645  36.0044217  25.5895829  34.1218019  35.1150608
  26.7836213  35.6482649  36.0572815  27.5310087  35.7137656  35.2804136
  26.9909883  36.3747144  37.2320414  27.8149366  37.0683885  37.3115873
  26.2177348  36.1860204  38.3653474  26.4449453  36.8254113  39.2055583
  25.1687479  35.3160691  38.4179330  23.1375051  37.0727921  42.4918890
  24.0678358  37.6318645  43.0399370  21.9187117  36.8426871  43.0243492
  21.2279391  36.5190840  42.3623753  21.8121576  36.6189265  44.4875336
  22.3694277  37.4097371  44.9896955  20.3066087  36.8158102  44.8892641
  19.8813868  37.6702404  44.3627310  19.6805418  35.9693003  44.6072006
  20.2809119  37.1022296  46.3954115  20.7139158  36.2577486  46.9315624
  20.8764076  37.9758310  46.6605568  18.8623023  37.3851228  46.9402742
  18.5750782  38.3736324  46.5818691  18.0913746  36.7077184  46.5729904
  18.8575172  37.5587511  48.5345554  19.2934251  36.6291952  48.9006376
  19.5073068  38.3714104  48.8593006  17.4839020  37.8415823  49.0302324
  17.3478746  37.8487682  50.0310040  17.1243429  38.7452245  48.7577438
  16.9168031  37.0531130  48.7530708  22.3369050  35.2274823  44.8243380
  22.2935939  34.3747020  43.9551401  22.7741528  35.0415611  46.0570669
  23.1005979  35.8865690  46.5037251  23.2963157  33.8095593  46.6047239
  23.1048155  32.9879975  45.9144545  24.7815156  33.8932681  46.7050552
  25.0417733  34.8501253  47.1575928  25.0455546  33.0705905  47.3695755
  25.5108976  33.7349319  45.4523706  25.9118152  34.9454379  44.7794676
  25.7957911  35.9284949  45.2113724  26.5166903  34.8352885  43.5283899
  26.8172050  35.7727623  43.0842686  26.6357565  33.6260247  42.9231834
  27.0756888  33.5988259  41.9372177  26.1003637  32.5358224  43.4541082
  26.2529755  31.5733361  42.9885626  25.5936575  32.5274467  44.7480440
  25.3413057  31.6431737  45.3144169  22.6662755  33.6302710  48.0128145
  23.0744338  34.3344855  48.9416122  21.8745542  32.6266193  48.1786489
  21.8045950  31.9179106  47.4624491  21.2096667  32.3091912  49.4849873
  21.2974763  33.1040454  50.2256584  19.6964037  32.0018554  49.2675352
  19.3723559  31.4041948  50.1195335  18.7361956  33.2271123  49.2352676
  18.9203489  33.8732886  48.3769894  17.7263927  32.8647614  49.0426493
  18.8336885  33.8596654  50.1175833  19.4144952  31.1808991  48.1113052
  19.4284034  30.2923059  48.4743643  21.7331266  30.9825015  50.0843763
  21.8369722  29.9805331  49.4016886  22.1643519  30.9503388  51.3595152
  22.1367264  31.7835355  51.9297075  22.8359842  29.7891617  51.9802761
  23.7859797  29.5386791  51.5081882  23.0912590  30.1541638  53.4661388
  23.8561058  29.4961667  53.8786268  23.4737563  31.1707091  53.5580015
  22.1467876  29.9777865  53.9808893  22.0348501  28.4836197  51.8968582
  20.8706188  28.5037041  52.1956491  22.7605200  27.3697901  51.6964436
  23.7374353  27.4172115  51.4444780  22.0952415  26.0547876  51.7222071
  21.0985112  26.1429548  51.2899256  22.8884912  25.0392270  50.9200668
  22.3793149  24.0794683  51.0078192  23.0213809  25.4183507  49.4621372
  23.7744212  26.2063718  49.4547653  23.4154701  24.5907617  48.8723087
  22.0673966  25.7683945  49.0678263  24.2012048  24.9359369  51.4501810
  24.3667269  24.0270019  51.7110252  21.8816733  25.4590845  53.1394148
  21.2592459  24.4348407  53.3363056  22.3397350  26.2553740  54.0824795
  22.7140093  27.1529031  53.8095856  22.2223806  25.9437084  55.4791594
  21.2461877  25.4618859  55.5339098  23.2889509  24.9084449  55.8788538
  22.9603481  24.2572379  56.6888237  23.4332395  24.1574025  55.1021814
  24.7789240  25.3267837  56.2756443  25.1825070  25.7175088  55.3415394
  24.7222447  26.1177588  57.0234680  25.6242633  24.1257286  56.8998909
  25.0914216  23.8251472  57.8020191  25.6517625  23.2369733  56.2694454
  27.0658994  24.7028255  57.1009684  27.2810054  25.2313209  56.1722469
  26.8948030  25.3897452  57.9298067  28.0366993  23.5895753  57.3067331
  28.9950061  23.9064097  57.3438072  27.7956939  23.1168389  58.1661177
  27.9534340  22.9071808  56.5667963  22.0754671  27.1992064  56.3433266
  22.4381447  28.2946491  55.9808111  21.3299465  27.0097327  57.4307013
  20.9392667  26.0943508  57.6025915  21.0546231  28.0477452  58.4208250
  20.7422543  28.9296007  57.8614902  19.8687983  27.8046513  59.3548298
  19.0545535  27.4507499  58.7224865  20.1242828  26.9301319  59.9531984
  19.3250430  28.8535523  60.3618908  20.1462626  29.0907669  61.0382223
  19.1780925  29.8263264  59.8926210  18.1071222  28.3552098  61.1330032
  17.4897718  27.7646184  60.4561138  18.4900153  27.6987028  61.9143486
  17.3570561  29.4710851  61.8797207  16.9255686  29.0001082  62.7629519
  18.1146598  30.1047492  62.3408127  16.2408721  30.1642799  61.0565424
  15.6934690  29.4948530  60.5346966  15.5531418  30.6030965  61.6520023
  16.6208696  30.8367801  60.4058170  22.3303056  28.4195876  59.2187834
  22.4882317  29.5895767  59.6341467  23.3102894  27.5448632  59.4512558
  23.1655312  26.5631270  59.2632723  24.3978357  27.7123713  60.3395939
  24.0796995  28.5642052  60.9406519  24.5883203  26.4734268  61.1883879
  23.6370206  26.2085724  61.6498899  24.7906303  25.6041670  60.5626440
  25.6397843  26.6208792  62.2837543  26.2100220  25.5333281  62.6887321
  25.9726834  27.7206469  62.7901077  25.6346440  28.1203580  59.4850826
  26.5241933  27.2984958  59.2483473  25.6994867  29.4025087  59.0512896
  24.8227692  29.9023032  59.0921640  26.7437720  30.1163149  58.2901001
  27.6713824  30.0362897  58.8568735  27.1336484  29.3116736  57.0959330
  27.9614878  29.8120046  56.5934849  27.4293566  28.2899618  57.3341799
  26.0004091  29.1845536  56.0330009  25.0117326  28.9920950  56.4496279
  25.8090234  30.2107096  55.7191944  26.3604903  28.1899643  54.6273756
  27.1116710  29.3360233  53.4815598  26.3808179  30.1162362  53.2689095
  28.0345201  29.7333074  53.9041948  27.2364354  28.7598372  52.5647449
  26.3501525  31.6319489  58.0634642  25.2037430  32.0383811  58.0508375
  27.3712254  32.4659276  57.8039026  28.2803631  32.0259809  57.7998734
  27.3117256  33.9497876  57.5974321  26.2576485  34.1980529  57.4733734
  27.7215457  34.6091509  58.8830853  28.7875032  34.4898129  59.0769863
  27.6037335  35.6804585  58.7202454  26.9487596  34.1004992  59.9195099
  27.2934127  33.2835412  60.2874708  28.1156492  34.4345498  56.4516735
  29.2602921  33.9296436  56.2933397  27.6327848  35.3747272  55.6874895
  28.4549689  36.1084890  54.7582865  28.6321783  35.6054211  53.8076973
  29.4587183  36.3446546  55.1115704  27.7404881  37.4073911  54.5316076
  27.9611802  37.7614379  53.5246038  27.8921700  38.2073116  55.2563286
  26.2552643  36.9841361  54.5979309  26.0213208  36.5674162  53.6182785
  25.6076884  37.8014088  54.9154425  26.2503457  35.8305478  55.6707335
  25.9864545  36.3283610  56.6038227  25.2250648  34.7326231  55.2590179
  25.6592655  33.8469815  54.5313120  23.9483190  34.7574615  55.6900597
  23.5939431  35.5207300  56.2485695  22.9148483  33.7983894  55.1504469
  23.3807492  32.8149891  55.0875282  21.6032600  33.7536001  56.0333633
  21.5056777  34.7761750  56.3979387  20.7217813  33.4892917  55.4492044
  21.6406369  32.8601813  57.2867870  22.4807954  33.0458307  57.9559422
  20.6534266  32.9266691  57.7440500  21.7650580  31.4173484  56.7051172
  20.8283210  30.8336854  56.2840128  22.9329181  30.8413458  56.7000437
  22.9806376  29.8999357  56.3373184  23.7471175  31.2780404  57.1080637
  22.4620986  34.1160464  53.6757421  21.9207025  33.2382393  53.0738735
  22.7753329  35.3218198  53.1122160  23.0955982  35.9652686  53.8217974
  22.6430750  35.7984281  51.7326593  23.1097984  35.0617170  51.0788012
  21.1581278  35.9381628  51.2977791  21.0631895  35.7778811  50.2238178
  20.6126380  35.1464343  51.8112993  20.5447125  37.3349524  51.5509510
  21.1665297  38.1437230  51.1671066  19.6202290  37.5357008  51.0095263
  20.1304698  37.6417422  53.0015278  19.6670997  36.8405509  53.5772705
  21.0150051  37.8558254  53.6014175  19.4009018  38.9918852  53.0088234
  20.1660419  39.7465682  52.8268576  18.6291349  39.0471172  52.2410774
  18.7653744  39.1406846  54.3257475  18.0267382  38.4824157  54.5287085
  19.3999732  39.0335679  55.1041508  18.3631647  40.0646067  54.3943071
  23.5108709  36.9896269  51.3954735  23.8682985  37.7194929  52.2596598
  23.9792585  37.1222210  50.0750637  23.6093235  36.4154220  49.4556427
  24.8985100  38.0437660  49.5611143  24.7220159  38.9898181  50.0729084
  26.3429523  37.7118826  50.0402737  26.8192291  38.6417842  50.3509903
  26.3562107  37.0413303  50.8995056  27.2342849  36.9917560  49.0789890
  27.1244216  35.6102514  49.0078974  26.3198256  35.1314163  49.5461798
  27.8587270  34.8917651  48.0924749  27.6341105  33.8488173  47.9244852
  28.8363743  35.5956244  47.3410511  29.5063424  35.0530171  46.6905737
  28.9539814  36.9775414  47.4276590  29.7498393  37.4843645  46.9021702
  28.1497526  37.6985931  48.2890034  28.4282923  38.7387395  48.3721399
  24.7559953  38.1173611  48.0256462  23.9204049  37.3078918  47.4462414
  25.6047606  38.8326073  47.3012829  26.1986375  39.4059968  47.8832054
  25.4833531  39.1863418  45.9079123  24.7924113  38.4941292  45.4267216
  24.9996638  40.6665945  45.7478333  25.7520843  41.3961792  46.0472822
  24.8036766  40.8569527  44.6926308  23.6948061  40.9254217  46.3185930
  23.4500718  41.1512327  47.6649809  24.2174077  41.3454485  48.3997440
  22.1241927  41.4023638  47.8354979  21.7447400  41.5935946  48.7517691
  21.3806987  41.2508345  46.6802311  20.0470161  41.3958025  46.3150692
  19.4077313  41.7202282  47.1228218  19.6001303  41.2204218  44.9848843
  18.6245024  41.3521719  44.5408201  20.5564857  40.6692076  44.0961313
  20.2716899  40.3436327  43.1065369  21.9157219  40.4911470  44.4947958
  22.5935173  40.3041172  43.6750317  22.3787069  40.8501053  45.7352734
  26.8619347  39.0872216  45.1943016  27.8505182  39.5577836  45.6763601
  26.8378210  38.5953140  43.9807129  25.8874750  38.4210396  43.6864853
  27.8996277  38.8134027  42.9556036  28.6993814  39.4603419  43.3161163
  28.3301759  37.8260875  42.7884531  27.3856401  39.4557524  41.7112541
  26.7510104  38.7774730  40.9077883  27.8121996  40.6900740  41.4490414
  28.3948374  41.1170340  42.1549749  27.4212265  41.4755964  40.3556538
  26.6731954  40.8836174  39.8282933  26.7896724  42.7787781  40.8082724
  27.6453066  43.3924580  41.0900307  26.3596964  43.2182026  39.9082017
  25.7409787  42.6757479  41.9976044  26.1238956  42.0701551  42.8190327
  25.3061533  43.9997959  42.5934839  26.2301993  44.5294476  42.8252316
  24.5551920  44.5289087  42.0067978  24.8116112  43.8984823  43.5595369
  24.4858813  42.0559788  41.4791107  24.7299814  41.0349464  41.1858273
  23.7073064  42.0657587  42.2418880  24.1547155  42.6686668  40.6406307
  28.5775161  41.6847515  39.2753339  29.6838212  41.8700504  39.6499300
  28.3188725  41.4880085  37.9616165  27.3345828  41.4215088  37.7451611
  29.2306828  41.7006302  36.8580890  30.1905584  41.2198973  37.0468569
  28.8025117  41.1573315  35.5935860  29.5110083  41.4881182  34.8341703
  28.7970328  39.6191216  35.6909990  28.4708619  39.2273021  34.7275734
  29.8239064  39.2687821  35.7953668  28.2261181  39.2909741  36.5596032
  27.5658655  41.5762138  35.2319717  27.5750875  42.5259781  35.3714848
  29.5044065  43.2014322  36.9366026  28.5660481  43.9933443  36.7298770
  30.6726122  43.5952425  37.3444915  31.2900138  42.8516531  37.6377296
  31.1058593  44.9821186  37.4359393  30.5113935  45.4727793  38.2066298
  32.6291037  45.0474501  37.8298068  32.7964687  44.5215368  38.7697577
  33.1884193  44.4790506  37.0867085  33.1060386  46.4863348  38.0540371
  32.5818706  47.1574497  37.3736286  32.7914429  46.7367125  39.0671706
  34.6341825  46.5636873  37.7942324  34.9639130  47.5911140  37.9483938
  35.2093911  46.0345745  38.5540199  35.0898314  46.0004854  36.5139699
  35.8133292  45.2983379  36.5742898  34.7031093  46.2819386  35.2977610
  34.0064240  47.3753977  35.0420117  34.0303183  48.1811285  35.6505585
  33.6801672  47.4994898  34.0942502  35.0455689  45.5531693  34.2648768
  35.5605245  44.7187424  34.5070624  34.6799040  45.7396793  33.3420515
  30.8565211  45.6910896  36.1158299  30.4521012  46.8888807  36.1732149
  30.9941864  45.0267315  35.0188994  31.4076114  44.1060066  34.9808002
  30.6014347  45.5076504  33.5997844  31.1937022  46.3955784  33.3786368
  30.9449577  44.4072294  32.6337481  30.9863067  45.0834990  31.7798996
  31.9798088  44.1848516  32.8939915  30.0406981  43.3349991  32.5641394
  30.5104899  42.6057863  32.1528554  29.1808295  45.9719181  33.3506656
  28.9335704  46.7737818  32.4724197  28.2568455  45.5182981  34.2551422
  28.6006188  45.0186443  35.0627780  26.8546820  45.9948492  34.3413258
  26.6597676  46.5587616  33.4291172  25.9046412  44.7849321  34.4082904
  26.4632773  43.9376068  34.0107274  25.6493402  44.5290899  35.4366231
  25.0263500  44.9577188  33.7863159  26.5921450  47.0639467  35.4147458
  25.4134464  47.3982620  35.5888486  27.6228976  47.6926756  36.0797548
  28.6066937  47.4733639  36.0153556  27.4533129  48.7280750  37.0382857
  26.4693332  49.1969872  37.0362425  27.5677490  48.1280327  38.4796119
  28.4606004  47.5064611  38.4120750  27.8099513  48.9257336  39.1818404
  26.4504194  47.2116137  38.9675975  26.2259769  46.4743137  38.1968021
  26.8836379  46.4780807  40.2711201  26.9110179  47.0676136  41.1875248
  26.0881209  45.7501793  40.4305601  27.7547145  45.8817387  39.9996305
  25.2104688  48.0287695  39.2210436  24.4630480  47.5301313  39.8381519
  25.4612803  48.9689302  39.7122598  24.7444105  48.5102701  38.3613586
  28.4664798  49.8683167  36.7755413  29.5289469  49.6795988  36.1714268
  28.1483269  51.0632610  37.2817039  27.2406864  51.2464046  37.6851225
  28.8885379  52.3424149  37.2070837  29.8881316  52.0421076  36.8928742
  28.3514380  53.2885933  36.0593128  28.6524701  52.9145002  35.0807762
  26.8221927  53.4000540  35.8908367  26.5426111  54.2876959  35.3233552
  26.3827538  52.5544977  35.3616548  26.4039779  53.5680008  36.8833041
  28.8697243  54.7244835  36.2212920  28.3496428  55.1904297  37.0582557
  29.8811960  54.6446848  36.6196060  28.9277720  55.6556606  35.0017905
  29.5274210  55.1231527  34.2635775  27.9542303  56.0287619  34.6838140
  29.5311260  56.5379715  35.2153087  28.8864636  52.9559278  38.6186576
  27.8357983  53.1625843  39.1794324  30.0588942  53.3584309  39.1315484
  31.4378071  53.0279493  38.6578918  31.6327834  53.6903572  37.8145051
  31.4004493  51.9821596  38.3528757  32.3410726  53.3398438  39.8793459
  33.3755875  53.5891056  39.6432328  32.4065685  52.4524975  40.5089760
  31.6514325  54.5357752  40.5086136  31.9069934  55.4297733  39.9397922
  31.8526959  54.6405697  41.5747356  30.1331115  54.3172741  40.2336931
  29.7715640  53.7821007  41.1117458  29.3822074  55.5974531  39.8073864
  29.7364211  56.2453461  38.8309050  28.2692385  55.9650946  40.4557514
  27.9833245  55.4467821  41.2741041  27.5479484  57.2706175  40.2194071
  28.0000424  57.7231407  39.3368363  26.0664535  57.0661879  39.9432421
  25.8164525  56.3452482  40.7216072  25.1294065  58.2653236  39.9340844
  25.4647017  59.1165113  39.3414855  24.1365933  57.9355049  39.6280694
  24.9776816  58.6240959  40.9521055  25.9531498  56.4580774  38.7161493
  26.5799403  55.7430696  38.8484216  27.6769805  58.2693958  41.4254236
  27.0542598  58.0212069  42.5158691  28.2760191  59.3236065  41.0930443
  18.8710451  49.0835953  33.9885950  26.7832017  30.0703955  36.5944171
  25.6192946  30.4896116  37.5493598  26.0653901  31.1446238  38.8523507
  27.1045351  30.3186464  39.5802212  27.9008341  29.5409417  38.7589288
  27.8985620  29.3956828  37.3979616  25.4769230  29.3197632  33.1764507
  25.2522731  28.0522847  33.8043618  25.6545210  28.0556822  35.2617407
  26.4044690  29.4049716  35.3074098  26.1837220  30.1499557  34.1450739
  24.5624900  28.5138655  31.1073208  24.4765592  27.2517920  31.7095089
  24.8164248  26.9502401  33.0750442  25.1025295  29.5471430  31.8484902
  26.5371847  31.2912464  33.9910173  24.5431781  25.7724810  33.6527634
  28.7478900  28.6846590  36.8826342  27.2885919  30.2417827  40.7507086
  27.3758197  30.9484458  36.3040495  28.6051154  28.9833331  39.2275858
  24.3543077  28.6346245  30.0483251  24.1396022  26.3849473  31.1487627
  25.2777743  30.5349565  31.4326620  26.4065814  27.2671270  35.3899336
  24.7519064  27.9947567  35.8825660  25.0054216  25.5276346  34.5183921
  24.6361113  25.0133467  32.9909420  24.9178910  29.6657252  37.7354479
  25.0055504  31.2426686  37.0378876  25.2371025  31.4580369  39.5012736
  26.5274310  32.0969367  38.5607934  48.6313581  19.6161687  37.5016785
  61.8610907  49.5383072  27.5715208  42.9349375  47.0313072  17.6212585
  58.0010414  14.0547323  53.1712532   3.3951211  50.8668327  28.0681849
  69.3356800  68.3771086  33.4451532  43.6355162  68.8829231  15.6369555
  58.8347244  31.6001010  23.3514118  69.1881044  29.4117233  43.2745428
  68.4945650  29.8454448  43.7716551  69.4105632  30.0332805  42.5814314
  57.1998016  58.5164942  40.4625387  57.9102103  57.9459609  40.1692076
  57.6117936  59.3730201  40.5759497  44.4226503   9.1998023  58.4495544
  44.7401714   9.9923974  58.0168819  43.5443115   9.0676552  58.0927753
  59.3452803  66.6364921   3.3421058  60.0209466  67.2797622   3.5563726
  59.4312803  65.9645165   4.0183325  30.6707648   6.2511189  49.8671103
  30.2178536   5.6283267  50.4356480  30.4769794   5.9498437  48.9794683
  22.3193617  40.0524637  28.3689852  21.4622231  39.7509643  28.6700601
  22.8660269  40.0433275  29.1546697  34.1369696   4.5430442  39.9077673
  34.4098969   3.9002129  39.2531557  34.0056868   4.0311977  40.7058973
  60.1470657  25.8078453  19.1757936  60.8985026  26.2775108  19.5377226
  59.4831867  25.8515665  19.8639746   5.5151133   0.2394260  51.6831846
   5.5781559   0.0304068  50.7512159   5.2843479   1.1681308  51.7052812
  71.3618858   0.7545540  35.4020471  70.6657536   0.0996586  35.3496618
  71.8265588   0.5458638  36.2124605  56.7054605  35.2928066  57.6807213
  57.2100925  35.0151801  56.9161987  56.4785814  34.4770145  58.1270885
  66.8197425  17.4928924  12.5310535  67.0619233  16.6856071  12.0773287
  66.4842565  18.0644247  11.8403787  18.3073779  30.6493541  27.9257936
  18.0353899  31.5093633  28.2461710  19.0496989  30.8321211  27.3497934
   0.9344955  18.4173175  11.5226192   0.4301329  17.8920337  12.1438474
   0.3056355  19.0524885  11.1800928  57.7463905  58.4332265   3.9650030
  57.3387901  58.8901390   4.7007532  57.0151631  58.2005013   3.3928366
  33.9218827   9.5186159  11.7791481  34.5580454   9.0881750  11.2079687
  33.1648798   8.9328024  11.7788763  28.2809910  60.1439957  55.7421494
  28.8845237  59.5516317  55.2937269  28.6659225  61.0124253  55.6243038
  44.0520326  39.9849824   2.6899643  44.2876319  40.8937849   2.5034113
  44.2033736  39.5240937   1.8647928  47.7132750  26.3529158  44.1756773
  47.7890921  25.7823873  44.9405193  46.7762470  26.5350127  44.1046429
  46.2078925  13.3386871   3.6917419  46.7831107  12.7916738   3.1568308
  45.4912873  13.5787031   3.1042881  67.3466539  19.1578889  47.9941559
  66.5871572  18.6731124  48.3172464  68.0464697  18.5062003  47.9518223
  32.9830869  66.2728612  60.9875536  33.3486303  66.5699084  60.1542616
  32.9590591  67.0594104  61.5325260   7.2668537  31.1889593  50.8176613
   7.3987802  32.1366851  50.8430815   6.3639792  31.0807507  50.5187702
  56.1162773  22.6477577  31.5209074  55.5972759  21.9116105  31.8448801
  55.4812852  23.2136501  31.0818453  32.5855803  10.2862632  51.7246389
  33.2778406   9.7740972  52.1426058  32.2431183   9.7120184  51.0396624
  52.2342777  15.7227206  51.3312101  51.9670963  16.1770725  52.1302176
  51.9994020  16.3235641  50.6240702  58.7554256  61.0335506  61.1126966
  58.1731454  60.2839865  60.9888620  59.6161977  60.7157792  60.8400698
  14.9107555  28.7797178  10.0349397  15.8112101  29.0939428   9.9532242
  14.9755196  28.0123777  10.6034727  70.6409231  34.6650798  39.9440355
  71.0596672  35.5244328  39.8950643  69.7341267  34.8539181  40.1854677
  16.8763145  57.3712055  32.8250766  16.6401657  57.9970817  32.1404266
  16.1446174  57.4030034  33.4413838  68.4867255  66.7238916   9.9977846
  68.9237276  66.6446937   9.1498537  67.5548283  66.7683400   9.7837324
  54.8321239  61.1188091  59.9051542  54.4147555  61.7459048  60.4957361
  54.1698328  60.9414758  59.2372103  57.0200220  19.8816277  46.0664434
  57.0860401  19.8280753  45.1130266  57.8977124  19.6634175  46.3799352
  33.1587013  53.2224493  50.4793978  33.2788309  52.4166076  50.9818125
  33.9771255  53.3263092  49.9939823  54.3752209  66.7565764  39.6855612
  53.9408461  67.4070538  40.2373094  54.5434967  67.2148694  38.8622255
  53.2207910  28.6918033  19.3949003  52.7659527  29.4118561  19.8317880
  52.9857103  27.9160346  19.9039717  19.6985964  36.8600705   3.4993191
  19.6702150  37.5891594   2.8797598  18.8693098  36.4007664   3.3668442
  63.5571381  51.2499718  59.6836615  63.4552666  50.6190817  60.3962851
  62.7177676  51.7086904  59.6480608   2.4381013   2.4866101  18.1221504
   2.7277322   1.8316504  18.7572689   2.9929037   3.2476803  18.2930202
  55.3027264  63.5249986   0.4930467  54.5688478  64.0182055   0.8596582
  55.6281105  63.0005039   1.2246628  72.4309985  37.4687755  35.1778192
  72.2313944  36.8461704  35.8769293  73.1186310  37.0423145  34.6664209
  57.8508393  70.2119912  43.2876272  57.9790632  70.7231058  44.0867204
  57.1677271  69.5808543  43.5140199  12.1769146  55.5596460  15.6430693
  12.1540407  54.7466315  15.1383705  11.4538387  56.0796632  15.2923984
  15.3815015  66.6479482  40.5901098  15.0449523  67.1378107  39.8397756
  14.6690758  66.0544775  40.8277512  48.7913767  28.7245990  14.6214409
  49.4981257  29.3684031  14.6689339  49.1846243  27.9131158  14.9425049
  24.5131497   5.8511580   5.7017870  24.4133810   5.0267543   6.1778517
  23.9492945   5.7543315   4.9343748  49.0262905  61.9696392  27.0258303
  49.5166794  62.5960554  27.5581426  48.1651679  61.9246663  27.4413748
   6.9972233  28.5643418  38.4565992   7.0310263  29.2294790  37.7690859
   7.5669293  27.8633608  38.1399126   4.6644453  51.5393890   2.5700350
   5.5258373  51.8921067   2.7932472   4.6039776  51.6383637   1.6198892
  59.3483011  35.8482755   2.0064754  60.1752368  35.4924240   2.3317118
  59.4190685  35.7863764   1.0539026  36.0388080  57.7723063   3.2645006
  35.4155651  57.3365105   3.8457746  36.5892712  58.2922210   3.8500852
  42.9054073  61.7615832  20.5027742  42.6418916  60.9044517  20.8376093
  43.1472770  61.5985597  19.5910997  33.5405588   9.3017054  39.4546151
  33.2219386   8.6056697  38.8799429  32.7482533   9.7518361  39.7476459
  65.8203379  54.3041850   1.1546726  65.0316635  53.7695600   1.2463112
  66.4738241  53.8618602   1.6964645  59.6990919  14.7610557  51.6284752
  60.3732729  14.1577852  51.3157797  59.3288040  15.1403940  50.8314705
  72.7216927  64.3838753   3.8786239  71.8020264  64.4849624   4.1240234
  72.7860419  63.4850611   3.5557813  33.3281203  13.6046716  48.2997103
  32.6606198  14.1425440  47.8738375  34.1550703  14.0388843  48.0903025
  17.9918785   4.9868604   6.7880554  18.0133839   5.1978513   7.7214641
  17.0648070   4.8465130   6.5955229   2.5635953   9.8831388   7.5497885
   2.2304626   9.6110317   6.6946812   1.8140884   9.7935650   8.1383915
   4.5140938  55.7226480  22.6601572   4.4873623  55.9006442  21.7200346
   5.4432110  55.7670153  22.8859968  24.6096901  60.4281081  36.4662905
  23.9949183  60.6458510  37.1669168  24.3857292  59.5302214  36.2216062
  56.1387368  19.5674631  20.9907789  55.7778855  18.6815235  21.0243387
  55.7371731  19.9604532  20.2158422  22.3800663  70.3348888  33.8302202
  21.5440802  70.6391944  34.1834326  22.2234110  70.2418746  32.8905172
   1.4352939  36.7356253  53.7431049   1.3407025  37.3535204  53.0181980
   2.0812535  37.1416283  54.3211460  60.4940319   6.0322434  58.5102272
  61.3673592   5.6504822  58.5985136  60.1369238   6.0212094  59.3982506
   6.2453274  62.7489628   9.3875332   6.5157560  62.0691480   8.7703199
   6.5291742  63.5679067   8.9813394  27.4224619  38.3692388  18.4578390
  27.6543287  37.7465580  19.1468496  27.8880123  38.0537130  17.6832838
  34.6769703  45.3816986  60.3944921  34.7002971  46.2600136  60.7743025
  34.9194610  45.5107498  59.4775534  55.4345226  16.1689091  55.9927368
  54.5466232  16.0687351  56.3360023  55.3263617  16.6900897  55.1971817
   2.5829065  24.8857617  40.9559727   2.6544559  25.7411265  40.5323410
   1.9797266  24.3927336  40.3997993  14.9949880  17.9083797   8.5291214
  15.7882185  18.4042999   8.7318106  14.2791100  18.4685728   8.8290186
  72.4961582  61.9482864   2.8992767  73.1639305  61.4319385   2.4479503
  71.7173544  61.8662013   2.3488636  17.7674027   1.6749975  22.9639025
  18.4409113   1.7351958  22.2864122  17.2036810   2.4329778  22.8092356
  60.8934609  41.0518081   7.4462623  60.1091830  41.2586589   7.9545469
  61.5003530  40.6766076   8.0843372  11.8169379  31.8878651  52.8542852
  11.8738103  32.6824880  52.3236513  11.2216699  31.3173056  52.3681259
  70.4646221  53.0640639   3.5290069  69.7052590  53.5446645   3.8585777
  70.2991358  52.9687561   2.5910539  28.4029265  11.3268778  23.4553118
  28.7145014  12.1023485  22.9886122  27.6773281  11.6457674  23.9920111
   8.2902022  35.7342025  15.8282680   8.2481022  34.9157497  15.3336973
   8.8023968  36.3229391  15.2739401  25.5386515  49.7518274  29.4418306
  24.6807118  49.7628042  29.0175123  25.5995865  48.8818762  29.8364229
   3.5875324  59.7271503  19.2730684   2.7288965  60.1387895  19.1754312
   3.7197451  59.6704592  20.2193994  22.8165408   9.6453163  33.3154077
  22.7182885  10.0143072  32.4376745  22.1465702  10.0869533  33.8372583
   8.7088604  18.7213108  35.6222410   9.6609469  18.8114044  35.5816717
   8.5629578  17.7879593  35.7765074  14.9288888  34.2976162  18.3920307
  14.4206973  33.6453649  17.9098148  15.5429049  33.7832567  18.9160986
  36.3022808  64.9690737  25.2901048  36.3340191  64.0282048  25.1169271
  35.4153065  65.2286924  25.0408907   9.2014412  46.2327076  24.2070074
   8.2790140  45.9849347  24.1439695   9.6278862  45.4706622  24.5990057
   2.7072735  19.1937038  33.5498018   1.9106884  19.3217537  33.0347414
   3.1193610  18.4200546  33.1652422  26.9477760  64.3381320   4.3497409
  26.4533889  65.1338826   4.1532936  27.4842941  64.5704518   5.1076355
   8.5166443  33.7750149  33.4358525   7.9560364  33.9733934  32.6857901
   8.6339081  34.6166468  33.8764596  14.0226646  15.7233926   5.2440185
  14.1831870  14.9531194   4.6989078  13.8707395  15.3692791   6.1202354
  42.5998163  35.3900814  54.5599794  42.5483847  35.7924581  55.4269743
  42.0927811  35.9730411  53.9949131  50.0669050  34.3481636  58.5710001
  50.4020500  34.7348595  57.7620649  50.4983568  34.8412013  59.2688513
  19.0259381  10.5675241   7.3468466  19.4375534  10.6321212   8.2086105
  19.2832680   9.7044679   7.0225925  12.7330089  52.2835875  51.7416382
  13.0450606  52.9972219  52.2980356  11.7850184  52.4093294  51.6999912
  12.0508833   0.4339787  49.1241617  11.4844747  -0.1679304  49.6069879
  12.9321928   0.0791403  49.2408533  61.1399905  68.7567843  29.5905943
  61.2855164  69.5736374  30.0678797  61.0180489  69.0292443  28.6811323
  44.4196577   8.7717840  21.2744589  45.1944943   8.8662693  20.7204408
  44.5727702   9.3714163  22.0046778  11.2783484  65.4310526  37.1730394
  11.2547163  66.3242973  37.5162477  10.4265598  65.3134335  36.7525072
  72.1448333  28.4603616  10.8547134  71.3030465  28.8195154  11.1351366
  72.5117381  29.1314098  10.2791185  17.6250143  33.3454343  10.0050850
  17.1995659  34.1600391  10.2727480  17.0062323  32.6589510  10.2542372
  34.2206073  20.0588298  44.3299866  33.5886478  20.7519221  44.1389847
  34.8921967  20.1542902  43.6546421  46.3903284  30.1622987  55.0081539
  46.7725849  31.0380411  54.9516821  46.7835903  29.7794247  55.7923651
  10.9313449  69.5888309  58.2624674  11.7616161  69.1551180  58.4593821
  10.5923446  69.1217601  57.4988174  52.3493329  35.5406584  12.6484699
  52.3655573  34.9480211  11.8969698  52.5028340  34.9735034  13.4041138
   5.7349018  40.8097531  31.1314173   5.2862696  40.6153084  30.3085203
   6.4651827  41.3744838  30.8784361  51.4933586   0.3930823  39.6482754
  51.4363766   1.3481995  39.6211529  50.8594465   0.0966814  38.9951849
  50.5695001  60.0405516  15.7846088  51.1090628  59.5221819  15.1876182
  50.7972304  60.9487714  15.5858536  14.0876130  47.3155226  18.4357900
  13.8256422  46.4574183  18.7693424  14.8046902  47.1282996  17.8299970
  64.4145862  48.3708395   0.2052374  63.7975708  47.6766993   0.4369516
  65.2164570  47.9075421  -0.0368099  48.2848636  40.6244685   8.6864109
  47.5853292  40.2785839   9.2407102  48.7149230  41.2859829   9.2283315
  11.5075035   3.1522509   9.1216917  11.2942596   2.8147718   8.2517118
  12.4332352   2.9398939   9.2406816  63.5910479  54.5747448  29.5520181
  64.0595118  55.3892697  29.3694658  63.7143914  54.0457035  28.7639017
  47.5713539  45.7202721  59.4812775  48.3563519  45.2884245  59.1443586
  47.0574856  45.0129843  59.8710299  45.1771660   2.0996806  30.8221788
  45.8366604   2.5014254  30.2565832  45.5044957   1.2141821  30.9802217
  62.4281088  68.8601984  34.1043634  62.1428815  69.0778889  34.9917669
  61.6334692  68.5575284  33.6648435   9.7348360  58.8141502  31.2423773
   9.3662838  59.2702664  31.9989271  10.3684668  59.4310583  30.8760900
  13.9544777  58.6134590   7.7423258  13.3296827  58.3856524   8.4307785
  14.3349556  59.4435872   8.0293054  18.1436161  52.4345554  11.8329353
  18.3425812  51.9699932  12.6458473  17.2048000  52.2998358  11.7036981
  18.1538649  21.5714285  21.6845198  17.6714774  22.0163700  20.9876985
  18.7174244  22.2498199  22.0565672  61.6661373  52.3513414  42.2725744
  61.8059675  51.4845277  41.8913812  61.3067547  52.1754457  43.1421442
  16.0903855  21.4297125  14.5564956  15.8658429  20.5145046  14.7244282
  17.0076151  21.4051553  14.2838735  44.8626804   3.0421215  58.2895803
  45.3751087   2.3302335  57.9063511  45.3680325   3.3158600  59.0550375
  53.6502425  66.3578905  17.3194904  53.0912296  65.5923785  17.1863479
  54.5159284  66.0767402  17.0232220  61.6275120  12.8691649  19.2726898
  61.8255472  12.9761744  18.3423340  61.2122107  13.6936772  19.5255458
  56.0169029  48.1666613  49.4192982  55.4780388  48.9130878  49.1571856
  55.5465889  47.7791977  50.1574707  47.2915927  65.2238740  30.7608194
  48.0114857  65.0836457  31.3758917  47.6986805  65.6565226  30.0102682
   5.2852602  13.5877439  33.0465097   5.3367467  13.6441728  32.0923586
   5.4392906  12.6631328  33.2404108   3.5823603   7.7847406  33.1362886
   4.4521327   7.3890707  33.0799360   3.0175562   7.1934673  32.6386804
  68.5173161  25.7125827  30.1961679  68.5226281  25.5223915  31.1342687
  68.2872303  26.6400835  30.1411218   5.0014539  23.5738775  30.5558462
   4.2026325  24.0761491  30.3951044   5.7111187  24.1995260  30.4103250
  39.6883030  10.1035377   7.4725790  39.5853157  10.2172729   6.5277548
  39.5725508   9.1640588   7.6147528   7.9301600  20.8295072  12.8819771
   7.2772316  20.9140064  13.5768003   8.7450699  20.6286765  13.3422155
  72.7418915  38.5016842  54.3520994  73.0407587  37.6139889  54.5493574
  71.9907395  38.3781113  53.7718172  74.1764743   6.0814878  25.8480806
  74.1176469   5.8132478  26.7650385  73.6074836   6.8487093  25.7859869
  27.5493212   6.9452354  28.6114664  26.5939494   6.8861648  28.6099500
  27.7644177   7.3257515  29.4630403  59.6774436   7.7636215  39.8906107
  59.3080737   7.0027277  39.4424600  58.9475287   8.3790943  39.9588079
  45.4107876   7.0175573   2.4820251  45.3653546   6.7631838   1.5603657
  44.5275946   7.3222896   2.6902075  54.8339005  27.8210518  17.0696754
  55.6867428  27.6879999  16.6559191  54.5069714  26.9366047  17.2343130
  26.5469412  49.1546728  18.2399196  25.8925060  48.4938980  18.0133791
  26.9013027  49.4394649  17.3975677  68.7451092  44.9486317  40.8247442
  67.8744236  45.2208276  41.1146612  69.0059964  45.6164004  40.1905126
  69.5165602  55.5117143  31.0833711  69.6019903  56.3459839  31.5448160
  69.3170754  55.7570542  30.1799078  38.1712027  16.0237285  16.6100187
  38.0415078  15.2823040  17.2013683  37.4374457  16.6096088  16.7959709
  30.3547005  56.8811406  25.2758665  30.0842766  56.1628355  24.7039099
  31.1160950  56.5400423  25.7450933  57.5236464  42.9068804  61.1055994
  56.6820288  42.5879765  60.7797098  58.1004238  42.8839159  60.3420305
  53.5725232  49.6266958  22.1028871  53.8798542  50.1718065  22.8272028
  54.2518540  49.7119733  21.4339514  59.1292135  61.5166987   3.5551281
  58.6356441  60.6990255   3.4916277  60.0362793  61.2395347   3.6841268
  38.6101321  61.5746964  33.6316938  38.8810614  60.6591286  33.6992712
  38.9783470  61.9915522  34.4107218  51.6906182  56.2385119  18.8951607
  51.7408053  57.1330584  18.5582609  52.5799600  55.8971108  18.8016434
  27.3483868  10.1795837  30.1674433  27.4512883   9.4544431  30.7837362
  27.2787543  10.9568950  30.7216616  43.4511952  69.2853655  56.4679689
  42.8990368  68.5926212  56.8305368  43.4988598  69.9419869  57.1628160
  19.9243168  39.1022365  28.3776731  19.1425566  39.4053598  28.8394136
  19.9193863  38.1524338  28.4963388   1.7731321  51.7308950  40.9111977
   1.4060152  51.7558146  40.0275469   1.1355341  52.2006893  41.4487839
  67.9703338   4.9601719   3.2057733  68.4143133   4.5441195   2.4668474
  67.0976980   5.1704475   2.8733225  25.7586260  20.7726881   9.6129436
  25.8591004  21.0219309  10.5316419  25.0046702  21.2779304   9.3087787
   0.5464367  47.0095636  37.1379824   1.2616543  46.4621807  36.8138475
   0.7438473  47.1368600  38.0659170  71.6141239  69.2099036  10.2720041
  72.2835652  69.8760451  10.1160116  72.0857493  68.3788027  10.2165813
  56.7075077  54.2969776  16.1628456  57.0846740  54.3002929  17.0426006
  56.5567271  53.3715297  15.9703798   4.4927172  58.1857861  43.6019869
   3.7434916  58.4575404  44.1321249   4.1349081  58.0737676  42.7212782
  34.9147995  67.4387433  36.5865779  34.3715378  68.2175712  36.4660597
  34.4289919  66.7381619  36.1513662  47.3654938  47.4563694  57.6242590
  47.6564932  48.2684183  58.0391359  47.2785616  46.8356037  58.3476686
  12.4156018  33.3185550  24.3065138  12.7220531  34.0264866  23.7398119
  11.4846011  33.5003254  24.4346876  74.1974036  68.4251322  48.4762354
  73.5384861  68.9296593  47.9992552  74.5131174  67.7824773  47.8409834
  65.0544230  41.1385049  28.0388803  65.9211317  41.0860516  27.6360292
  65.0394837  41.9958915  28.4642000  20.8713694   5.5487463  12.7727766
  21.1277552   6.4517709  12.5855894  20.9372111   5.1013014  11.9291563
   1.9024964  54.4859049  57.3169679   2.1069618  53.5928461  57.0397158
   1.9549723  55.0039789  56.5138025  20.6097527   7.8968450   7.5015802
  21.5647002   7.9093572   7.4371071  20.3737421   6.9767687   7.3833055
  45.4193707  17.7009126   8.0106182  46.1031838  17.0365640   7.9253645
  45.5657597  18.0857917   8.8747234  58.4629599   9.3589814  55.7600927
  58.8295213   9.7555764  56.5503931  58.2763830   8.4541781  56.0105848
  12.9478093  17.5890609  14.1176958  12.2541519  17.9952022  14.6374245
  13.5912629  17.2971794  14.7634525  45.7052489  12.1963522  24.3850870
  45.8418436  12.8369733  23.6871023  45.2786465  11.4571878  23.9516420
   0.9414423  32.8536963  60.1744604   1.4626539  32.6243234  60.9438515
   0.0709331  33.0453610  60.5233383  15.2308706  66.2904705  19.8772306
  14.3918900  66.6943969  20.0990076  15.0221590  65.6754483  19.1740866
  53.1235552  38.1969404  42.0654345  53.2440090  37.5229692  42.7343750
  53.0316973  39.0114069  42.5598431  34.6242356  15.4028916  39.3486857
  35.5330682  15.7028866  39.3325782  34.6165347  14.6966934  39.9947929
  15.0956825  64.2185582   5.9403868  15.4584507  64.2163981   6.8261785
  15.2539686  65.1061548   5.6189079  46.1856715  65.2274145  52.2434969
  46.4578143  66.1190690  52.4605722  45.2738992  65.3161491  51.9659586
  72.7323691  52.4201669  11.1325188  72.0692269  52.3964061  10.4426546
  72.6407257  51.5799810  11.5818758  37.2728316  60.5358709  11.7145748
  38.1673900  60.3813256  11.4110727  37.2899119  61.4255632  12.0672626
   8.2875104  12.6691744  15.6320114   7.7852197  12.2266313  16.3161821
   8.0609389  13.5941145  15.7288523  51.7947928  63.6966218   7.9099006
  51.8630687  64.3687285   7.2317858  52.0053974  62.8790439   7.4588556
  45.8085632   5.9017509  55.0886965  46.7376947   5.6897599  54.9992132
  45.7497549   6.8266129  54.8491049   0.6751303  65.3469457  40.0103159
   0.5025152  66.0196103  40.6690664   1.3638882  65.7209886  39.4608278
   3.1400255  53.4855272  23.4821863   3.7599091  52.7613582  23.3952684
   3.6582283  54.2681910  23.2947512  49.7306196  55.1936711   0.3646488
  49.0505067  55.7650508   0.0079937  50.1758424  55.7312359   1.0196562
  20.2166481  17.7488062  29.2760629  19.9179812  16.8559715  29.4489069
  20.1040526  17.8605100  28.3320970  69.4841830  21.4588989  17.8985376
  68.5502735  21.3344504  18.0675335  69.5147339  22.0450271  17.1423931
  65.6728363   6.3352847  45.4809427  65.5278492   5.5046225  45.0279427
  66.5330839   6.2383950  45.8893776  70.3793732  40.1020254  41.6815824
  69.4241301  40.0428493  41.6660566  70.5682865  40.7482703  42.3619528
  74.6108198   3.6337441  56.9303036  74.2914963   4.0536463  57.7290201
  75.4340124   3.2199806  57.1899033  11.4608053  45.2678133  50.5050535
  11.9387726  46.0547079  50.2431841  11.2764076  44.8146714  49.6823187
   2.8362516  35.2914497  21.6569109   2.2222809  35.1752960  22.3820181
   3.0758528  36.2175137  21.6919584  68.3094946  65.9722198  46.3379259
  67.6467339  66.6628422  46.3420935  69.1339699  66.4324201  46.1807985
  54.9758045  52.3193432   8.9826078  55.5956117  52.9697074   8.6523123
  54.7436587  52.6321269   9.8569698  32.1031221  62.2037099  37.5362802
  31.2545952  62.1622615  37.9773211  32.5468239  61.3957153  37.7941680
  33.0844092  61.9891834  51.2608004  32.8159165  61.8276882  52.1652699
  33.2528806  62.9307747  51.2254572  71.2010161  65.7890095  13.6416168
  71.8729416  66.0101880  12.9967661  70.4590765  65.4839457  13.1194134
  36.2033129  30.7174301  60.2878761  35.5902958  30.0945115  60.6782770
  37.0261478  30.2331209  60.2199078  68.9831924  39.8934031  58.1817675
  69.7501612  39.9588132  58.7507248  68.5844755  39.0544128  58.4127522
  66.1699791   2.5106045  15.7006998  65.4250641   2.4548599  15.1021833
  66.1176033   1.7104742  16.2234611  31.5095730   5.9522316  30.9653730
  31.6948529   6.3370868  30.1087637  32.0812626   6.4259741  31.5695066
  18.0982705  38.3894083  11.0958404  18.5105248  39.1309187  10.6526203
  18.7378426  38.1182644  11.7543716  63.8341776  61.7250503   4.0767689
  64.3612281  62.4526085   3.7464542  64.4704477  61.1270918   4.4689913
  70.8602626  17.9609319  20.2820844  71.3087685  18.0136129  21.1260671
  71.5476520  18.1199762  19.6352262  67.7267996   0.9806235  48.7964821
  68.3978049   1.0656436  48.1191683  67.8091637   0.0776513  49.1032171
  63.0803640  28.7309763  45.5482073  62.1832068  28.6045715  45.2393980
  62.9848595  28.9704963  46.4700193  60.1645199  48.4657599  33.5292406
  59.3410269  48.4528066  34.0170164  59.9072400  48.6706282  32.6303167
  16.2544445  56.1465253  41.1235590  16.8199734  55.8232035  41.8249006
  16.6794113  55.8517660  40.3181143  37.9077549  38.3101389  12.0443315
  37.7882309  37.3728344  11.8913431  37.3323031  38.5074922  12.7833481
  73.8401528   1.0549065  15.9448595  73.8345070   0.3881976  15.2580566
  74.5684071   1.6312691  15.7131834   7.9465766  34.8328897  37.1957941
   7.2979374  35.3823587  37.6357717   8.0339547  35.2172538  36.3235159
  23.0211850  14.3525335  20.4061479  23.3012934  15.1152822  20.9121008
  22.2132512  14.0661165  20.8321066  64.5203018  47.4873829  53.1069422
  63.7496614  47.3467255  53.6569977  64.7591925  46.6123915  52.8010845
  56.0233942  70.0328697  12.3420734  55.9414116  69.3990506  11.6294832
  55.5237714  70.7933248  12.0448894   8.4009214  31.1044046   9.0687723
   8.4085389  31.9406196   8.6030264   7.4957700  31.0022995   9.3628902
  23.3014206  65.7890428  13.7898178  22.8591255  66.1962761  13.0449886
  24.1865210  66.1530246  13.7710304  34.5268253   8.4129556  58.3838844
  34.2250828   8.3152039  59.2870045  35.1580910   9.1316445  58.4187317
  21.4883331  57.5247325  18.6041517  21.3448958  58.2861461  19.1662092
  22.2740320  57.1092929  18.9595575  54.0479898  59.8138285  31.9043279
  54.5685005  60.0022936  32.6852107  53.2973194  60.4042482  31.9686103
  16.6883393  10.7749292  15.4106970  17.3889609  10.8550331  16.0579557
  16.0472651  11.4373657  15.6684370  48.0063343   9.3552500  61.1794662
  47.1444941   8.9480633  61.0919094  48.3871698   9.3006939  60.3029871
  11.9228748  60.2161492   6.1449833  12.6780752  59.9335135   6.6607590
  11.7809443  61.1258425   6.4067955  31.1680512  66.5038051  37.7757139
  31.1942295  66.9502534  36.9294138  30.3643326  65.9846772  37.7479048
  67.3701525  22.8846145  58.0818319  67.8641701  22.1431327  57.7320004
  66.7190027  22.4871922  58.6600113  69.6591874   3.3948466   1.5145178
  70.3547497   3.7095639   0.9371252  69.7898312   2.4473640   1.5525122
  27.7337189  10.2182695  16.5561647  28.0425520   9.3809244  16.9021482
  27.6037188  10.0579187  15.6214924  20.0889925  13.1492265  46.0727024
  19.6697239  13.4071381  46.8936300  20.7860045  13.7931474  45.9471083
  29.9816155  64.5115376  52.7444553  30.7311511  65.0479937  53.0026150
  30.1595926  64.2733574  51.8346024  67.4275537  36.5031978  12.3503561
  67.8966684  36.5693733  11.5186233  67.5802953  37.3452446  12.7791471
   0.5489965  42.5860712  44.2214365   1.3137527  43.1536171  44.3177004
   0.0926156  42.9275152  43.4524412  14.6861692  28.4695884  37.9849119
  15.3031607  28.2803699  38.6918421  14.5588751  27.6282570  37.5465174
   0.8176569  59.4781245  29.5563860   0.2252916  60.2259053  29.4778986
   1.3815788  59.6961392  30.2984686   8.1926651   8.9886543  15.4478235
   7.6059695   9.5164272  14.9060888   8.6223312   9.6219942  16.0227127
  60.8771153   2.6307794  33.3923979  61.2838192   2.6599118  32.5263853
  59.9950619   2.9760405  33.2545156  41.2957100  54.7806276  21.3489599
  40.6260685  55.3785719  21.6810388  41.1074452  54.7059382  20.4134340
  36.8656369  36.7626592   5.7639141  36.8303509  36.7002317   6.7184276
  36.1569996  36.1952516   5.4604215  68.6812782  36.3956523  47.0471621
  69.2171097  37.1527195  47.2837353  69.3090010  35.7498932  46.7228270
  70.4014952  18.6400911  15.2398367  70.4098184  18.7958929  16.1842365
  71.3135965  18.7496921  14.9709625  26.4416380   0.2332422  -0.3275423
  27.3277398   0.0453540  -0.0180988  25.8837529   0.0774762   0.4345150
   5.5954023   6.8026706  50.4845209   6.4862342   7.1492836  50.4343767
   5.0438519   7.5759479  50.6031294  62.1107109   3.5679862   2.7019853
  62.2052546   3.0614921   1.8952913  62.4042101   2.9744646   3.3932323
   9.9942918  39.6406576  16.4783020   9.9670167  38.9844295  15.7819910
  10.7045503  40.2299616  16.2243576  27.3296709  16.1704561  11.6214485
  26.9871159  17.0309612  11.8631477  26.6035529  15.7423755  11.1678715
  49.7633095  11.2267992   6.1094017  49.2713852  10.5338117   5.6689377
  50.2753754  11.6370937   5.4124946  17.6369639  21.5352461  11.4799852
  17.5783844  20.6697532  11.0753555  18.0891343  21.3816950  12.3095579
  23.7866755   7.8496906   7.6510973  24.2621823   7.2329971   7.0944853
  23.6349030   7.3696443   8.4651918  13.3571581  41.4990271   5.0884456
  13.9137177  41.0589029   4.4459743  12.8264383  40.7976098   5.4660435
  51.3657618  29.4538736  53.9464474  51.1267757  30.3272963  53.6361980
  51.7367554  29.6018887  54.8163223  39.6660471  18.8726377  41.7787981
  40.5250025  18.4637320  41.8847561  39.5943260  19.0391147  40.8389187
  39.3975611  16.9312689   7.0625562  39.1178866  17.0697424   6.1576624
  40.1867743  16.3945314   6.9898577  12.6623205  65.4030718   6.5864582
  12.7324680  66.0682811   7.2711534  13.5548500  65.0740470   6.4798422
  66.4646482  49.4349909  60.3224850  65.5464935  49.2478943  60.1269770
  66.4668608  49.6836090  61.2468290  36.3502236   1.8579361   8.2709284
  35.7176276   1.3900110   7.7258606  36.9410487   1.1762544   8.5910435
  29.1284633  37.4542785  58.0015898  29.6675324  37.1845293  58.7451458
  29.6319795  38.1513309  57.5810909  30.3810596   0.9852910  37.8393173
  29.8680449   1.7256153  38.1633043  30.5060506   0.4265355  38.6063886
  33.1244159  19.1183197  53.2330370  33.8031411  19.4019794  52.6205826
  33.5967064  18.6198175  53.8998747  37.5469760  44.6081437   9.9958343
  37.5920359  43.7635638  10.4440374  38.0431882  45.2039315  10.5571194
  64.4426123  21.3664545  12.5673933  64.8746744  21.9735206  13.1682463
  63.5099474  21.4612330  12.7607412  52.7266065  51.4688541   7.6103420
  53.4753743  51.7459966   8.1383295  53.1085197  51.2039269   6.7735691
   9.1196665  40.4869930  44.8727751   8.3627399  40.6024854  45.4471922
   9.7303470  39.9569170  45.3849506  12.9815853   6.3455099  49.2380428
  12.4257779   5.5687302  49.3006897  12.7934015   6.8396509  50.0359440
  71.8204584  22.3444057  50.1725674  72.5074523  22.0052552  49.5987654
  71.8763426  21.8022656  50.9594536  68.5343853  49.9165858  10.9801788
  69.4048516  49.9052681  11.3781614  67.9804341  49.4450785  11.6023130
   9.5336775  34.7174197   9.4872017  10.2254776  35.2640886   9.8597593
   9.8864130  33.8282470   9.5215530  16.5892156  62.5065069  39.5348763
  17.1973547  62.2571836  38.8390017  15.9442362  63.0647878  39.1006470
   2.5455531  51.0461991  50.2852106   3.4469088  51.2754874  50.5115223
   2.0552834  51.1717062  51.0976887  13.8144382  53.1543057  39.1325283
  14.4179209  53.8881950  39.2484856  12.9961451  53.5600500  38.8461661
  12.0112634   2.8602034  59.4242430  12.4101627   2.6605320  60.2711439
  11.6614509   2.0224789  59.1207933  69.1740664  69.7439171  52.6620436
  69.3717607  69.7072262  51.7262030  70.0266763  69.6664824  53.0901718
  30.5766177   5.1906747  47.3978329  31.3653207   4.6727559  47.2367811
  30.5717206   5.8435422  46.6978550  11.8893393  70.5542220  45.6548882
  11.8109068  69.6032903  45.7311058  12.4461325  70.6879116  44.8878574
   2.2754673  13.9652051  20.7832212   1.7049126  14.7149457  20.9523077
   2.6425938  14.1344751  19.9155874  54.1223255  42.2799606   9.8789902
  54.0123407  43.0779333   9.3619079  55.0402800  42.0387484   9.7548742
  16.9240002  53.9072372  17.9270429  16.1446003  53.4169353  18.1885166
  17.6570133  53.3636845  18.2159633   3.5817328  11.0450292  52.3737335
   2.6777172  11.1170101  52.6800108   3.8535315  10.1649845  52.6342678
  40.1997662  13.2417858  45.6076956  40.3535938  12.7046692  44.8304749
  40.7288933  14.0265846  45.4650402  15.1245475   6.3321650  55.0393486
  15.7615590   5.7373798  55.4351759  14.2938793   6.1066657  55.4581213
  71.7575518  10.7723321   3.3803053  71.0350386  10.7616676   4.0080709
  71.5590016  10.0583590   2.7744598  69.2563549  23.1718315  13.3405275
  69.9395386  23.4283818  12.7211113  69.1827027  22.2231568  13.2364960
  13.9585356  49.3066777  20.3321905  14.1027645  48.7245108  19.5861883
  13.7107615  48.7216617  21.0481424  18.4038834  58.1119813   0.7841749
  18.7945942  58.4527243   1.5888328  18.0424456  57.2618069   1.0347767
   7.2791895  44.5820586  35.3544760   7.9868206  43.9809172  35.1218414
   6.6569194  44.5110600  34.6306157   1.9784454  55.9225549  10.4123945
   2.0925049  56.5094246   9.6648617   1.9352202  56.5056528  11.1702604
  35.6633949   2.4675179  38.7704945  35.2135372   2.3454413  37.9344583
  36.4200211   3.0138829  38.5578132  54.7878361   8.4946948  49.1903925
  55.6115913   8.5975385  49.6669197  55.0505447   8.4064537  48.2741880
  21.5296845  34.0274622   4.5297928  22.1096186  34.7621133   4.3293018
  21.8024592  33.3356075   3.9271612  28.7819246  21.2497701  23.4630556
  28.6353878  20.8566500  22.6026983  29.7312264  21.3596643  23.5176248
  36.7491460   2.9770085  48.3253717  37.0392394   3.7149632  47.7891779
  36.0127258   2.6038489  47.8409481  68.4235731  62.0268883   7.2028179
  69.1878430  61.7314137   7.6976127  68.5759512  62.9613532   7.0621414
  13.1218251  64.4275056  35.0731635  12.9744991  65.0843816  35.7536364
  13.7494835  64.8364888  34.4773388  65.6052224  51.8950666  25.8606596
  65.7995716  51.6629936  24.9525804  64.6503035  51.9519259  25.8942194
  70.4889218  35.2803904  14.6019049  71.2231699  35.2523204  15.2153606
  70.8440558  34.9256163  13.7868900  10.5690408   8.3654070  46.7186069
  10.8629966   9.1071433  46.1897850   9.6707159   8.2059330  46.4291000
  51.4801582  61.3077186  45.5373526  51.1139902  61.1518268  44.6668053
  52.3731550  60.9668837  45.4861259   6.9884256  28.1083871  11.1448450
   6.1982731  27.7624143  11.5598030   7.6825909  27.5057812  11.4117403
  67.9755131   2.7922477  10.6212635  68.1090370   2.7524985  11.5682716
  67.0763937   2.4898709  10.4932566  53.5304912  33.5791890  53.1845856
  54.1534504  34.1608183  53.6203146  52.9282268  34.1694014  52.7316475
  69.1964213  49.5829905   8.2756014  69.6551577  49.5381094   9.1145153
  68.4032742  49.0638102   8.4082527   2.3436932  66.4969314   8.5746069
   2.4420981  65.8332361   7.8919239   2.5317387  67.3248853   8.1326122
  49.2828083  17.2363675  51.3022614  50.0983763  17.0990825  50.8203602
  49.1242504  18.1783724  51.2412977  21.5474180  26.4749010  24.3960829
  22.2942928  26.9234349  24.7925920  20.8239082  26.6322280  25.0027246
  30.5473141  47.9302002  10.8268566  30.5848507  47.1689309  10.2478142
  29.9932436  47.6499297  11.5553398  56.7402462  47.3886205  17.8414984
  56.5336708  47.0254756  18.7027092  56.1583237  48.1435706  17.7540417
   5.6684812  38.6813681  27.1218276   5.1920541  39.4395797  27.4600077
   6.0901126  38.3003800  27.8920889  70.2652931  60.9707880  60.0526333
  70.6522560  60.3629017  60.6826878  70.7145166  60.7803488  59.2291260
  70.9226936  19.1745889  42.5528669  71.1752921  18.2789457  42.7770281
  70.2338159  19.0719414  41.8962526  43.0269766   6.3534290  53.6771393
  43.8409758   6.2245119  54.1639900  42.3936176   6.6314238  54.3388033
   4.6253975   2.2487184  21.9245024   5.2513416   1.9251177  22.5723524
   4.5488079   1.5369436  21.2890882  73.2944727   5.3240496  61.0225296
  73.5872507   6.1821961  60.7157755  73.5808849   4.7156641  60.3413057
  16.8649677  55.5625261  20.7844610  17.1368746  54.6744074  21.0158510
  16.6985134  55.5243124  19.8426122   7.5231107  40.3493445  42.7499914
   7.9421624  40.2687304  43.6068058   7.0668849  41.1901109  42.7846527
  12.6914934  63.3144678   9.6833010  11.7702250  63.4426941   9.9092550
  12.9272369  62.4856819  10.1001615  52.5926796  28.3675946  13.2193918
  52.9076735  28.7827731  14.0222807  53.0014268  28.8692702  12.5140686
  13.9351181  57.7140750  19.7381468  14.0320067  56.8806781  19.2773981
  13.0801396  58.0431427  19.4607229  71.5146366  55.0339903   7.9758997
  71.1044375  55.4897393   7.2408743  72.3332373  54.6904649   7.6179714
  68.8300291  13.0707587  29.7607775  69.0139738  12.3466290  29.1624231
  68.5805527  12.6458753  30.5814237  10.7518324  50.8829372  48.3806896
  11.3376125  51.5444438  48.0125856  10.6017169  51.1704330  49.2812681
  13.1790531  28.0844688  45.5929804  13.6879051  27.7260852  44.8657513
  13.2086456  27.4031687  46.2646818  65.3093354  25.5199297  20.9467859
  65.3319041  26.3401861  20.4539270  65.7084290  25.7358558  21.7895956
  69.1651121  39.3273242  55.2554006  69.7266642  40.0121401  54.8921938
  69.3291680  39.3579168  56.1979360  67.2640101  37.6247036   4.1307993
  66.9838396  38.4496085   4.5273704  67.0118634  37.7034433   3.2107706
  52.6419497  18.0225480  44.3781137  53.3530426  18.5672438  44.0406466
  51.8986988  18.6205852  44.4566011  31.8806175  54.8129858   7.8426523
  31.0821823  54.5446707   8.2973308  31.7392162  54.5480539   6.9337816
  30.3030571  63.6484103  45.2130222  30.8575615  62.9503535  44.8644876
  29.6808752  63.1975816  45.7838774  45.6622950  66.1893119  23.6162920
  45.3569189  66.4749540  24.4773359  46.6129366  66.1256780  23.7083025
  57.8300142  40.1827002  42.1362686  58.5268927  39.6640420  41.7342901
  57.2337532  39.5338702  42.5100660  23.4145006  66.5446429  27.3269439
  24.1487774  66.1484323  27.7960849  23.7283882  67.4151568  27.0821738
   8.2295498  48.0751936  55.6573248   7.5264939  48.5045831  55.1699162
   7.9421314  48.1064622  56.5698195  31.3173489  45.7940747   9.5882101
  31.1482338  45.1655461   8.8863678  31.4157204  45.2555610  10.3734226
  21.5962366  30.9876974  16.7196197  22.1268467  30.8657042  17.5068922
  21.0321192  31.7334582  16.9241781  32.4033642   2.8866583  41.5462255
  31.5139437   2.5778908  41.3735199  32.9219508   2.0868035  41.6330147
  12.9147677  29.8288669  11.7442722  13.6271242  29.6711011  11.1246795
  12.1176390  29.7171999  11.2262506  63.1773392   1.4696158  23.6208792
  62.9065577   0.7037343  24.1271753  64.0904895   1.6111745  23.8705797
  56.9076633  29.0997243  51.9105291  56.1016607  29.3258500  51.4463472
  56.6246891  28.5075808  52.6073217  30.6670459  64.7813307  58.9552307
  30.3067478  65.5431573  58.5013151  30.1871952  64.7465049  59.7827339
  64.4017426  33.5154545  45.7130880  64.3778983  33.0359642  46.5411920
  64.4517962  34.4359816  45.9706850  57.5347272  39.9465807  14.7383804
  57.7651731  39.3077393  15.4129238  58.3763901  40.2468635  14.3953533
  29.4430780  12.0538807  29.2267871  28.5240865  11.8677771  29.0342999
  29.9221253  11.3217330  28.8385797  59.3247024  28.4735264  10.6336803
  59.4716469  28.6295827   9.7007913  59.5903531  29.2894949  11.0577745
  70.9360758  67.2068776  56.3637037  71.5060393  67.8782762  55.9887380
  70.4428593  67.6643909  57.0446176  19.9728140  68.2000136  39.0144229
  19.6481022  68.9456870  39.5191646  20.4741462  67.6836781  39.6455288
   8.4824089  32.5699885   5.3076811   7.9991011  33.2481697   4.8357506
   8.0878214  32.5575326   6.1796779  69.0609042  39.8186301   2.8640480
  68.3867756  39.3970655   3.3970280  69.8118512  39.2273547   2.9160471
  28.8318701   8.1865951  45.5677576  28.9393492   9.1078540  45.8043260
  28.3492966   8.2062551  44.7413320  13.2613119  58.2678859  39.0351200
  12.7289733  57.8490119  38.3588123  14.1590317  58.1989436  38.7101889
   5.6141146  60.1289837  58.9321136   4.6764859  59.9364059  58.9317656
   5.6859835  60.9703653  58.4813976  13.2115130  25.5314506   3.5923166
  13.4353832  26.2187846   2.9648752  13.1005005  25.9928842   4.4235725
  28.7959179  67.6937528  39.4843459  28.1300338  68.0962235  40.0418854
  28.3342298  67.4853866  38.6721516   0.9853705  69.7035489  30.6227112
   0.9555944  69.0213786  31.2935233   0.1078089  69.7020461  30.2404618
  43.9356661   5.0381595  33.0606675  43.8655758   4.9592894  34.0120363
  44.8109388   5.3967428  32.9138994  63.9128200  27.9905708  32.4674959
  62.9812018  28.2064552  32.5088949  64.1316358  28.0512221  31.5376158
  67.6914564  37.2741394  43.5759516  68.0803887  36.4598457  43.8951464
  67.8355805  37.2536671  42.6298876   5.6063751  45.8681835  37.2622843
   6.1475424  45.8603717  38.0517835   6.1689190  45.4969205  36.5826197
  31.9321179  12.5969207  45.1964855  32.7372718  12.9016924  45.6149006
  32.1755862  12.4579918  44.2812538  63.5374323  45.6353785  23.3002825
  62.8593866  45.3399183  22.6926679  63.0556504  45.9195460  24.0770502
  72.1490065  61.3631595   5.5555601  72.2556034  61.5336479   4.6197195
  71.3146082  60.8986772   5.6208772  33.4693686  52.1640171  11.6170521
  33.1599609  52.2313978  12.5203581  33.3552811  51.2404121  11.3930673
  12.0579394  57.8301077  60.4511023  12.1909102  58.4606604  61.1588812
  12.2221025  58.3296792  59.6512842  71.5975634  13.1848587   2.3919029
  71.6983429  12.2715010   2.6599665  70.7848708  13.1978191   1.8863458
  20.5065378  66.0454606  28.1223035  21.4068826  66.3612898  28.1989074
  20.0327953  66.5013389  28.8179851  67.9111338  53.8551003  21.5213938
  67.2877455  53.3860737  22.0760317  68.3299637  53.1704384  20.9998102
   2.0357279  10.5703749   0.8739204   2.9143337  10.6749667   1.2390871
   1.4691643  10.4679550   1.6386051  54.4272804  62.5931072  57.1998453
  54.0976477  61.6965675  57.2614717  55.3791809  62.5017262  57.2418499
   2.0373539  26.2082447  44.3626470   1.6117052  26.1417706  45.2174158
   2.2655825  25.3062196  44.1379328  11.6709570  41.1992605  31.1549158
  12.5085930  41.0202230  30.7276697  11.4236120  42.0693834  30.8419676
  56.7805616  55.5259026  21.4921636  56.3766114  56.2502660  21.0142965
  57.7188960  55.7125176  21.4615984  37.5289536  23.9910793  57.3669100
  38.1864309  24.4197822  57.9147863  37.5589037  24.4693279  56.5382910
  30.0639415  12.4098623  47.5646591  30.4051900  12.4394870  48.4584761
  30.8292913  12.2193670  47.0222759  34.6092339   5.4426691  10.3953619
  34.1492339   5.2503463  11.2124557  33.9495869   5.3155491   9.7134991
  66.3502852  38.7331806   1.8277998  66.9969431  38.2797415   1.2870045
  65.7867113  39.1845338   1.1993952  42.0282841   9.0258211  57.1802521
  41.5692043   8.1966454  57.0462894  41.3609028   9.6957755  57.0319366
  63.2948772  28.6688210  15.2486248  62.8260580  27.8372581  15.3189201
  62.7668611  29.1911615  14.6448107  28.7172302  43.9244263  26.2914562
  29.2299732  43.7706153  27.0849705  28.5289463  44.8628132  26.3060951
  56.7665386  10.0925398  37.9012156  55.9130239  10.4807377  38.0936909
  57.3908997  10.8038688  38.0441070  74.3078963  27.2041137   1.8086643
  74.0751616  27.7453895   1.0542888  74.8915354  26.5344776   1.4520378
  62.1671692   8.1128730  19.1674394  62.8822604   7.7552594  18.6411400
  62.2784773   7.7095403  20.0283403  52.5891972   9.1728240  30.9161854
  52.7327061  10.0430846  30.5443215  52.5144720   8.5966539  30.1554775
  11.7209534  46.8254234   1.2490673  10.9588818  46.8119444   1.8281145
  11.3510279  46.8237664   0.3662414  28.2932333  29.7187020   9.4594259
  28.6015562  28.9954693   8.9134378  28.0055479  29.3004329  10.2709169
  42.1435837  43.4012957   5.0091142  42.0172981  42.7398141   4.3288727
  41.3935379  43.2902606   5.5933542  65.9467140  29.2411549  14.2766685
  65.0178257  29.0118576  14.2480011  66.0738818  29.8198338  13.5248775
  68.5652367  13.4252323  25.8912916  68.8337961  12.5200118  26.0483904
  67.7015606  13.3517851  25.4852075  15.1410079   4.0621209  52.4266911
  15.2152610   4.2605639  51.4932346  14.6322525   4.7888064  52.7863121
  12.2743829  40.9731500  52.1803474  12.8432044  41.5183823  52.7238464
  11.4071425  41.0638373  52.5751925  54.7161341  43.1541348  57.9708624
  54.7718382  42.8652334  57.0600033  53.8295317  43.5044289  58.0572414
  66.1837312  60.6202231  59.0623999  66.7916604  61.3184939  59.3054485
  66.7455395  59.8688380  58.8726044  72.6561785  -0.0624103  56.3576317
  71.9501257   0.1838201  56.9551992  72.5160170   0.4830192  55.5836201
  34.1697888  46.4952327   1.9884033  33.8964848  47.3538734   2.3113222
  33.7187008  46.4001335   1.1495275  67.3691436  41.3340561  50.7326460
  67.2288927  41.5307824  51.6588545  66.5549978  40.9172623  50.4503632
   3.7369589  24.7172822   3.4087677   3.1203369  24.0539290   3.7185640
   4.0327839  25.1595141   4.2044706  74.5312134  61.2662782  24.0660162
  74.8994128  61.7839445  24.7820349  74.8183695  60.3709687  24.2454500
  38.9167341  59.0319471  55.1233053  39.3947920  59.7342996  55.5642128
  38.1516489  58.8783090  55.6776285  22.9220518  52.1156852  53.0858517
  23.8761696  52.0787863  53.1531525  22.6442083  51.2002032  53.1163359
  62.2081089  28.8580847  40.8666515  62.9179239  28.2520890  40.6541348
  61.6330385  28.3593082  41.4469528   0.7494930  21.1233224  16.4350004
   1.4254097  21.2536515  17.1001215   0.0551657  21.7366661  16.6757269
  68.9442126  19.9910761   1.0638542  69.0286986  19.6414424   1.9509001
  68.9179198  20.9405733   1.1821527   6.4609083  51.9192164  56.3733006
   7.4061044  51.9453602  56.5221357   6.0870989  51.7459910  57.2372961
  67.4521208  20.3644347  35.3180742  67.0948172  19.4764876  35.3288722
  68.3048773  20.2846789  35.7454848  16.2675365  58.7292711  44.9622631
  15.7667955  58.1360488  44.4022846  17.1475204  58.3532088  44.9831629
  30.0904545  54.5272033  56.4191818  30.1697429  54.2576282  55.5041552
  30.7693084  54.0297024  56.8751240  44.8343388  29.4301016   8.4072084
  44.4124619  30.2178968   8.7501831  44.7044519  29.4817854   7.4602718
  69.2126942   6.5489280  41.3059044  68.7784958   6.3005686  42.1220016
  70.1455164   6.5465188  41.5205479   0.9493593  41.9115795  30.5641336
   0.3723005  41.4399434  29.9634714   0.3646139  42.4908913  31.0527105
  29.7496557  10.8049583  39.7113085  29.4450498  10.0625026  39.1895747
  29.7081041  11.5511096  39.1131759  46.5649176  11.0709119  51.8636894
  45.6873131  10.7828104  51.6126108  46.6526747  11.9401646  51.4726257
  57.4057475  60.1564778  16.2837047  57.3518339  59.3833817  15.7218809
  57.3953120  60.8956493  15.6756372  43.5115608  64.7629623  35.6447816
  42.8359111  65.2123921  35.1371002  44.3332800  65.1562445  35.3509378
  42.0063829  18.2326806  56.7476225  41.6074514  18.4771943  57.5826645
  42.9471588  18.3324564  56.8933010  58.5724115  11.3324749  51.8227434
  59.3058300  11.6705692  51.3089132  58.9464474  11.1544526  52.6856661
   0.7323650  70.0809516  27.2078867   0.2667622  70.0262965  26.3733454
   1.3397841  70.8121957  27.0958204   5.1810936  31.4097161  16.7662544
   4.9306349  31.7815913  17.6119585   5.6829075  30.6255133  16.9886131
  48.8860098  34.3910705   6.7818041  49.5855967  33.8352139   7.1250696
  49.3118755  34.9256626   6.1116667  64.6544281  32.3583175   2.4622125
  64.9122754  31.4369543   2.4911184  63.6974326  32.3391606   2.4569673
  22.1912988  68.3645849  51.2300777  21.4791282  68.7960918  50.7580137
  22.3251899  68.9056034  52.0082808  15.1805433  64.0372150  37.8554010
  14.3044361  63.6783569  37.7143860  15.1260885  64.9363010  37.5315022
  65.7784478  29.9991353   1.9966240  65.4284111  29.1879083   1.6283626
  66.7238585  29.8551430   2.0377416  58.8716841  47.5077295  54.9455738
  58.9342451  47.3316908  55.8843660  58.0121994  47.1689272  54.6951103
  47.0474195   4.5502281  24.8344588  46.5736198   3.8372338  25.2626920
  47.8780937   4.1581032  24.5652819  20.3732014  17.5538862  55.7580805
  20.7210541  16.6812491  55.9417582  19.7212017  17.7009296  56.4432859
  48.4115878  58.3838190  20.1211138  48.6279646  59.3144096  20.0626726
  48.5332552  58.0532731  19.2310781  10.3653236   2.1119711   6.5441437
  11.1501093   2.1555659   5.9978456   9.6634407   2.4393651   5.9816427
  65.2888489  16.4642322  24.3886971  65.5358171  17.3700809  24.2024779
  65.0838041  16.0908306  23.5315180  48.1597281  40.2790976  58.4775877
  47.4177694  40.8500481  58.2782364  48.2268524  40.2981043  59.4322395
  28.9584545  40.3347023  19.7845621  28.6514048  39.6794368  19.1579981
  28.3520607  40.2638067  20.5217810  29.6612235   6.2035009   3.0781908
  28.8803454   5.8314201   2.6682873  29.6610136   5.8431646   3.9649792
  22.5064917  19.9461147  33.3872576  23.2261773  20.5631944  33.2550020
  22.1725865  19.7752592  32.5066061  60.5445091  57.9218210   3.7913627
  60.8459035  58.7062730   3.3330746  59.5959441  58.0321921   3.8567133
  10.6218056  46.5953101  27.1625681  10.9574322  45.9842552  27.8184671
  10.7800535  46.1588932  26.3254709  20.3109411  55.0488628  19.8615999
  20.4648165  55.8590115  19.3755884  20.4739384  55.2830471  20.7752867
  14.9968466  69.5847482  56.1611938  15.3130468  70.4686043  55.9739828
  14.0648588  69.6129436  55.9447813  26.6994496  16.7222330   9.0141029
  26.8834658  17.6562807   8.9144821  27.2976704  16.2936470   8.4019918
  64.8383141  24.2507076  56.6421509  65.5380917  24.1482973  57.2871733
  64.3206167  23.4494710  56.7211533  30.3986473   9.4970199   5.9303303
  30.1091023   9.5251486   5.0184030  31.3286086   9.7206947   5.8933611
   1.7930861   1.3639352   3.8317222   1.3890214   1.8801281   4.5292253
   1.9015332   1.9817182   3.1086607  52.7974033   0.3624770  53.6077785
  52.5280619   0.4727857  52.6958990  51.9802380   0.3986416  54.1049337
  68.0104847  15.0990078  11.3541145  68.8663598  15.3798410  11.0303087
  68.0420609  14.1430685  11.3165159  62.7494355   5.1006099  26.0309286
  63.3864899   5.0473377  25.3184957  61.8985100   5.0885936  25.5927343
  68.7125126  44.5122452  20.6746359  69.1207949  44.9348832  21.4302225
  67.8823677  44.1731502  21.0094614   8.4418381   7.8552723  55.6412458
   8.2128132   7.2427094  56.3402081   8.3337009   8.7205070  56.0361004
  40.9677982  10.1495349  35.7593155  41.6190195  10.6910288  35.3133059
  41.2824965   9.2528999  35.6442475  55.5261222  55.9733428  12.6561041
  54.6960179  55.6003727  12.3593683  55.5664269  56.8325127  12.2360582
   6.8887508  29.9971986  56.2982368   6.5359390  30.8856606  56.3471127
   7.1099460  29.8778033  55.3746271  69.1847229   0.6523711  16.1134040
  69.9772549   0.7690421  16.6373467  68.6812162   1.4532980  16.2591040
   5.1966290  52.6235463  32.8126211   4.3881325  53.1345667  32.8503485
   5.2717976  52.2296609  33.6817808  41.1072222  24.3513776  13.3646555
  40.6390873  24.1015400  12.5679989  40.5373911  24.0630914  14.0776892
  16.8034748  35.3657133  14.5009346  17.5871996  35.8878536  14.3295402
  17.0649819  34.7624739  15.1965971  69.6608813   6.9622490   3.6055631
  68.8137384   6.5167162   3.5965032  70.2421720   6.3620540   4.0725727
  65.8393494  66.8239082   9.3174858  65.4112450  65.9678615   9.3058271
  65.6631104  67.1679367  10.1931639  55.0285784  47.9626657  36.4028044
  55.1566688  47.6038231  35.5247087  55.8109418  47.6975180  36.8863745
  40.3894730  20.6090995  12.2846050  39.9817868  19.8881361  11.8047733
  39.7874852  20.7864830  13.0073566  51.4000463  35.1726460  42.1072388
  51.1420631  34.2585254  42.2258139  52.1458721  35.2892995  42.6957655
  72.1578709  47.0641185   1.8661661  72.2705571  46.1986412   1.4731235
  71.2165753  47.1342529   2.0251531  20.9828619  48.9964248   5.4963417
  21.7097859  49.1758086   4.8999901  20.3252272  48.5662998   4.9497719
  46.4019791  46.6249193   1.4338941  45.9570090  45.9107281   1.8901462
  46.0025541  47.4200941   1.7865820  17.6219277  60.4227079   8.4361763
  17.3497204  60.2802814   9.3427343  16.8599419  60.8229698   8.0173702
  66.5225331  68.0833305  46.0363645  66.3655678  68.6991633  45.3205843
  65.6665770  67.6897849  46.2057657  55.9576750  15.3010666  29.2081451
  55.1279497  15.5510461  28.8015771  56.2075710  14.4908667  28.7638950
  60.6297389  54.5313431  34.0178366  61.2387267  55.2207733  33.7531538
  59.8091642  54.9914433  34.1944570  42.4159050   6.5762204  47.9719305
  41.4957666   6.4385295  48.1969166  42.5839186   7.4906248  48.1996775
  30.5022164   2.9819724   2.4835987  30.0059958   3.8002202   2.4619503
  30.6934424   2.8422901   3.4110422  50.1285668   2.5898072   7.9049845
  51.0833855   2.6206919   7.9649944  49.8817654   3.4511277   7.5681658
  60.5549828  54.5179595  11.2473936  61.2316147  54.1212691  11.7960615
  61.0066072  54.7400786  10.4331846  74.6269639  12.4127885  13.4596176
  74.0076716  11.8790838  13.9574833  74.3470438  13.3144304  13.6174841
  33.1760903  18.9694902  14.7386427  33.4993620  19.7172996  15.2411432
  32.6804705  19.3606111  14.0191812  40.8424572  53.9965440  24.8649282
  41.1010269  53.4424127  24.1285105  40.0369362  53.5974540  25.1937170
  59.3491173  28.5300612  51.1689615  59.9740267  29.2023921  50.8974934
  58.5464525  29.0137911  51.3638067  12.5411705  61.6878690  22.3449011
  13.0591396  62.2875680  21.8079634  12.3176245  62.1965231  23.1243391
   3.0759720  52.7483393  55.3736467   2.7807526  52.5373556  54.4878931
   3.6619619  53.4964670  55.2589674  66.4786831  12.4261106   5.5860538
  66.7236677  12.3050751   6.5034218  66.5215794  13.3725561   5.4495592
  55.1119900   5.1101565  44.5080662  54.6688747   4.2658457  44.5918322
  55.9901047   4.9553728  44.8561907  63.2403476  23.0656644  23.6426229
  62.8708859  22.9497167  24.5180006  64.1656835  23.2561990  23.7965078
  61.4239303  25.7887567   1.7709465  60.8462230  26.4374043   1.3687773
  61.7000357  26.1916305   2.5941677  67.3430367   3.5811898  40.1897592
  66.9467278   4.4490287  40.1121111  66.7634125   3.0074832  39.6886320
  43.8569931  55.6100596   0.3784151  43.9340977  55.4285587   1.3150806
  43.0370525  56.0969390   0.2954883  43.4379244  32.8647542  53.6912394
  43.0321932  32.2301412  54.2819023  42.9954576  33.6907578  53.8866329
   3.7262491  64.3906797  30.7366247   2.9371790  64.6528639  31.2108106
   4.0719465  63.6515654  31.2370558  70.8473364  60.2959408  19.4231577
  70.5687872  59.5008649  19.8775835  70.1058260  60.5234922  18.8622589
   5.8789162  56.6306723  33.5995264   6.6025881  56.0523070  33.8404054
   5.8917336  56.6445245  32.6425142  50.5677366   1.6060708  36.4042687
  50.8533525   1.0768409  35.6595731  50.9347010   2.4739876  36.2360716
  52.3004723   4.1267961  19.7979403  51.4104462   4.4573340  19.9197340
  52.6712322   4.6837577  19.1134250  57.2542572  15.6568027  42.6124573
  58.0305958  16.0329211  43.0272579  56.7443895  16.4148283  42.3266888
  70.1874129  58.1162466  20.6776209  69.6888462  57.4633850  20.1862593
  71.0802475  57.7716721  20.6961031  60.7582188  31.2190461  48.0667782
  61.0524511  32.0265603  47.6453781  60.8394957  30.5505395  47.3865366
  15.4466824  43.1587715  13.8189144  14.7127537  43.7495114  13.6497946
  15.1292137  42.5730009  14.5061655  66.7523495  56.8918766  27.4897642
  66.3615815  56.6830791  26.6412802  66.0075203  57.1147145  28.0481596
  70.9818840  34.0261984  54.4302654  70.6980276  34.6943855  53.8064194
  70.2153969  33.4644055  54.5448017  72.7286434  33.8568568  44.4581366
  73.2921362  34.4489551  43.9600086  72.0444155  34.4222641  44.8164368
  72.4939791  64.1103042  15.6075353  71.9486729  64.5097317  14.9297972
  72.4128071  63.1686438  15.4561491  21.1652660   9.8635691  27.3488617
  21.2362695  10.4652178  26.6077757  21.8436837   9.2071790  27.1903300
  53.2220544  31.6761610  12.5865335  53.6559199  30.9676429  12.1111460
  53.0756421  31.3216516  13.4635277  70.6407229  57.2309388  25.9912271
  71.3604943  57.7880586  26.2875051  70.2445666  57.7161516  25.2674455
  10.3829102  29.6725364  10.8889170   9.5948843  29.7890873  10.3582020
  10.0850824  29.1829242  11.6556043  24.7641739  59.8209994  51.0884809
  25.4936346  59.8317485  50.4687929  24.0118536  60.1205139  50.5780506
  11.7068867  68.2773508   2.8458328  11.4000086  69.0494408   3.3211536
  12.2816137  67.8275551   3.4651871  25.6179909  62.4180712  12.6145000
  24.9989609  62.5851549  13.3252115  25.1047091  61.9522513  11.9543619
  17.7533440   3.6517890  53.3388233  16.9027762   4.0612586  53.4972525
  17.8007893   2.9424556  53.9797783   8.7020020  37.7552514   7.9060097
   8.7029175  37.1293638   8.6302299   8.8043360  37.2150503   7.1224613
  30.0184445  43.0030496   3.5414142  30.8612255  43.4072466   3.3350677
  29.5921091  43.6255140   4.1304893   7.1194605  52.7474452   3.0082722
   7.6938681  52.7634801   3.7738008   7.4450497  53.4532977   2.4497051
  31.7520590   9.3248912  30.8404798  30.9243317   9.1591188  31.2917108
  31.6044302   9.0138742  29.9473352  39.0510682  49.6703400   1.6340132
  39.2173067  49.5107950   2.5630636  38.2050947  49.2547108   1.4672394
  56.1428404  45.5679703  57.1055555  55.9764814  45.0486422  56.3188839
  55.8990002  44.9910641  57.8293991  13.9700909   4.0774199   2.0805473
  13.4247346   4.8190185   1.8181581  13.3692379   3.3324930   2.0977039
  24.7630886  43.0678381  28.6071272  24.2729191  42.9789109  27.7897806
  24.0922789  43.0674530  29.2899580  74.0045658  42.0151914   2.5382204
  74.8603646  41.6188510   2.7017851  74.1903321  42.9470505   2.4226303
   4.3214897  52.5153710   5.6795807   5.0522141  52.2481645   6.2371416
   4.7363190  52.9343988   4.9255485  24.9559927  11.6492200  39.1506290
  24.8199010  12.3865509  38.5556054  25.7980704  11.8305755  39.5680571
  58.5636321  51.8575682   7.8763218  58.4727017  52.3992301   8.6602611
  58.2332150  52.4072458   7.1657486  65.0378100  67.5903357  27.6369066
  65.4028050  66.7207373  27.4731703  64.0938345  67.4790229  27.5239820
  14.7277359  65.5667724  10.5378074  14.2067436  64.9293627  11.0261745
  15.4331545  65.8094062  11.1375923  72.0831028  52.5176383  32.9613943
  71.2579218  52.1531571  33.2814951  71.9008890  52.7623905  32.0541353
  24.9051289  40.9653009  18.8430376  25.0305180  41.0123505  19.7908182
  25.2199749  41.8086351  18.5176296   6.6727594  66.9278706  13.6086435
   6.9983152  67.6404322  14.1586418   6.9238810  67.1777524  12.7194137
  20.4761477   6.6867706  17.5912113  20.7382079   6.2442085  18.3984871
  20.6569596   6.0502454  16.8995685  22.9580788  56.5581764  14.4602508
  22.5959972  57.4434604  14.4977541  22.2070269  56.0006393  14.2570181
  66.7933480  65.9092940  30.0166864  67.7326886  65.7507266  29.9232549
  66.7350975  66.7852010  30.3982897  24.3107891  10.4175580  49.9241352
  23.4995937  10.9137392  49.8146057  24.8296285  10.6326449  49.1490412
   2.6988701  57.9367389  22.8084822   3.3284048  57.2681369  23.0784483
   3.2336191  58.7092651  22.6255197  60.2813530  26.3954210  52.9619265
  61.2069273  26.6361856  53.0016756  59.8963070  27.0242214  52.3515320
  68.2870197  34.5223451  57.5064754  67.8610849  33.9655423  58.1582260
  67.6489162  34.5909309  56.7962980   7.6794668   2.7809617  29.0540476
   7.4127336   2.7906105  28.1348104   7.4130865   1.9181892  29.3716879
  30.0324777  69.3573202  35.2277918  29.7346879  69.9390711  34.5284242
  29.5508272  69.6477879  36.0023088   1.3988594  63.3765973  42.7169580
   1.5381626  64.1933812  42.2376985   2.2766642  63.0114783  42.8282137
  59.9110479   2.1256158  13.1758947  60.6227310   1.6859934  12.7106304
  59.9799092   1.8063542  14.0756531  64.0622330  28.9109182  57.7304411
  64.7468376  28.8642025  57.0630836  63.4446144  28.2207417  57.4887085
  39.8717407  31.9564612   2.5925512  39.2623524  31.2352688   2.7499170
  40.3444389  32.0552708   3.4190006  73.3710162  44.7118802  15.1560469
  73.4887949  45.1509966  14.3137045  72.4464337  44.8420985  15.3668232
  59.1548395  30.4885983  43.3026505  58.6623812  29.7603655  43.6813259
  58.8546515  31.2580156  43.7865067   2.9248718  54.3136193  32.9998274
   2.7254871  54.9146713  33.7176103   2.8999523  54.8611070  32.2150488
  61.7487164  35.7247326   6.2407608  60.8054085  35.6908056   6.0818500
  61.8976708  36.5935918   6.6137619  40.1076873  59.1993992  58.6760044
  39.7788461  59.2496078  57.7784681  39.4213327  58.7370603  59.1570425
  12.4917749   6.2533296   1.7325563  12.8599123   7.1368564   1.7418356
  11.8724016   6.2595834   1.0027857  45.1769193  65.9291653  42.3760986
  45.3356918  66.1697029  43.2888746  46.0505947  65.7998635  42.0070314
  30.4907008  11.7449733  12.0014400  30.1473160  11.4507171  11.1577959
  29.8650523  12.4062845  12.2971887  62.4729744  55.7373394   3.3642502
  61.8136183  56.4193691   3.4919805  62.8136841  55.5661477   4.2422266
  48.8858418  64.8738254  33.0748243  48.4046558  64.6328772  33.8664217
  49.0871529  65.8024730  33.1902380  46.8639556  47.9014219   7.2660608
  46.2537566  48.4622432   6.7871399  46.9486038  47.1191920   6.7209167
  72.1330324  62.9761065  39.4064970  71.9028345  62.1046246  39.7286100
  73.0885474  62.9661168  39.3506021  74.0222088  30.8384548   5.2204294
  74.0454594  29.9371667   5.5419416  74.7676293  30.8989356   4.6229954
   8.5541014  67.8535689   5.0479956   9.3467573  68.3833159   5.1334400
   7.8489498  68.4925689   4.9447174   2.7152924  34.2782468  28.4820814
   2.7138332  33.4630216  27.9804487   3.2845596  34.0980972  29.2302198
  64.9507475  39.6804547  50.1234150  64.1710520  40.0766993  50.5123806
  64.7476101  39.6183372  49.1900826  28.1428623  67.7078754  30.9460993
  27.8034568  66.8759614  31.2761850  27.3700023  68.1699472  30.6214304
  64.9078369  20.8473802  47.5345993  65.0700855  20.1699185  46.8781281
  65.6445694  21.4515090  47.4424648   4.2799715  70.4256047  25.3805322
   4.3943361  70.1613058  26.2933798   5.1037172  70.8555235  25.1506491
  16.7141823  33.3373284  29.0025778  16.2378553  32.9312651  29.7267790
  16.2112860  34.1254426  28.7971468  53.1725454  31.0814977  40.6635714
  52.7787685  30.8788967  39.8149705  52.5250435  31.6331553  41.1024857
  12.0731887  50.2059071  60.9449673  12.7199992  50.7337944  60.4767752
  11.2825354  50.2647083  60.4086447  42.4814896  35.3150739   9.3743439
  42.0958332  35.0412270   8.5421724  41.8553738  35.9440033   9.7330398
  63.2592344  19.4686258  15.2039540  63.6197376  18.9193475  14.5078492
  63.2111311  20.3433275  14.8181856  47.8292342   3.1944224  13.4755106
  48.1948014   3.4128114  12.6182480  48.5507746   2.7743098  13.9436121
  64.1043102   9.8745126  60.7963133  64.0994608   9.8155886  61.7516899
  63.3414161  10.4128957  60.5856800  10.6821159  52.0774390  20.8011312
  11.6195540  52.2095789  20.9424944  10.5917839  51.1351384  20.6592150
   0.7261662  41.6752662  10.6215067   0.6093840  41.9596512   9.7150202
  -0.1334759  41.7989047  11.0239525  18.1498579  58.5243000  19.0652246
  18.3476166  58.5773434  20.0002737  17.8073696  57.6389088  18.9426966
  70.8310143  46.3328363  33.1858129  70.0626150  46.8851282  33.3299036
  70.5105654  45.6140388  32.6409502   9.2167000  23.9420081  19.9108858
   9.5473675  23.0716051  20.1329012   8.9243082  23.8627220  19.0028925
   9.1732490  23.1939173  49.0987825   8.6526001  22.4741912  49.4553566
  10.0038421  23.1461167  49.5721340  61.8411032  50.0367321  40.6644697
  62.1687237  50.4488088  39.8650427  61.1364499  49.4617070  40.3660745
  66.6947174  20.5884790  55.7105064  67.3797703  20.9146833  56.2940502
  67.1100760  20.5549264  54.8487759  42.3959736  37.9926686   4.4385547
  42.1983627  38.8349916   4.0290708  42.8538326  37.4976386   3.7591905
   5.8952574  34.2552911  21.0472555   6.0690455  33.3340694  21.2406034
   5.8250574  34.6712457  21.9064970  68.6914841  58.0114139  34.2207975
  68.3003250  58.4216346  34.9921293  69.3243805  57.3875083  34.5763464
  21.4542473  31.1137629  31.7087078  20.6209076  30.7898402  31.3668680
  21.8630970  30.3466845  32.1095371  42.9921341  18.4579563  47.6955128
  42.9350471  17.8473222  48.4304285  43.9306831  18.5451388  47.5289011
  44.2893238   4.0645382  22.3939199  44.8774453   4.7932312  22.5923033
  43.4720202   4.2883703  22.8390570   9.1192822  52.5747718   4.7321768
   9.7369913  52.4798931   4.0071459   9.4267134  53.3454312   5.2094574
  32.5539990  11.3652155   5.8677120  33.1253977  11.6623708   5.1595945
  33.1394740  10.9100076   6.4728851  43.8803816  35.3175926  59.2515182
  44.6947145  35.8206701  59.2527485  43.6633635  35.2109027  60.1776695
  47.2017781  62.9994120  24.9863405  47.2576419  62.1695532  25.4600973
  47.9593674  63.4997691  25.2895326  69.6249962  20.0869942  39.5420647
  69.9732828  19.2594945  39.8739862  70.2208042  20.3306508  38.8336301
  24.9271989  47.1202469  60.5137062  24.0651393  46.7071199  60.5628204
  25.4875636  46.5710783  61.0620117  21.8568997  46.0630263  13.7136860
  22.6516060  46.3370539  14.1714926  21.2459139  46.7891456  13.8388891
  14.9568276  23.8185026  23.2741136  14.8286299  24.7458996  23.4734411
  14.7255186  23.3650841  24.0847559   7.0344576  64.3221788  59.8032045
   6.3835343  63.8362269  59.2968607   7.8722199  64.0879373  59.4038105
  15.3219688  23.6808157  51.7548037  15.8605182  23.1784391  52.3662090
  15.6158912  23.3982658  50.8887720  63.6718956  59.2089690  15.6979008
  63.5847822  60.0951494  16.0490818  63.6713067  59.3266524  14.7479601
  61.5339804  40.4169703  57.6042747  62.3359680  39.9819350  57.3148060
  61.7070961  40.6574631  58.5144567  26.4130425  15.0760698  48.7886858
  26.8177652  15.6531477  49.4363070  27.1458030  14.7539949  48.2637453
  58.8870001   6.8822855  56.5049458  58.9243650   6.2436712  55.7928991
  59.5613194   6.5945530  57.1203661  65.2963781  39.3862224  42.0551920
  65.7209063  40.0289679  41.4869595  65.4318714  39.7230482  42.9408693
  59.1756765  35.4355592  10.5965109  58.4677664  35.6563071   9.9912329
  59.7223846  34.8180644  10.1106710  34.2102166  20.4100773   1.6733141
  35.0046893  20.2186462   2.1717090  34.3190880  19.9269411   0.8541937
  15.6030087  70.0572671   6.8852777  15.5275015  69.2485918   7.3918075
  14.6991257  70.2976169   6.6816492  62.6789585  20.9942592   6.9645090
  62.2465912  20.9869088   7.8184624  62.9194776  21.9102920   6.8257065
   2.5990522  23.7361145  37.9385376   1.6928947  23.5989332  37.6623368
   2.8312052  22.9334950  38.4055901  51.1151687  38.1107713  13.5736866
  51.0661784  38.6572076  12.7893133  51.4920441  37.2858007  13.2677145
  28.7378681  16.7321444  38.5362959  29.0938461  16.5047324  37.6773453
  29.2753399  17.4671972  38.8313413  64.9472777  61.9637288  14.2397137
  65.6067005  62.2538723  14.8699589  64.1217891  62.0000996  14.7229070
  20.7290367  42.1154071  26.6446466  20.0287346  42.3880811  27.2374792
  21.0408978  41.2864150  27.0076151  12.1712736  56.4967598  12.7060623
  11.9210295  55.5751599  12.7713795  13.0960516  56.5118874  12.9526110
  60.6146760   5.6363126  24.3349714  61.0429449   5.6824419  23.4801645
  60.1169844   6.4515325  24.3978090  59.3679134  20.6207277  16.7693395
  60.1861373  20.2824069  17.1330423  59.2354504  20.1156141  15.9671278
  14.3481497  44.5428230  18.0504722  13.9884333  43.7975563  17.5694198
  15.0330309  44.1641243  18.6016149   6.6480402  52.2063006  10.7264871
   6.6176514  52.0362557  11.6679735   7.2375063  51.5359665  10.3809328
  60.3939676  46.4290333  44.8979425  60.2082920  45.8340311  44.1714954
  60.3504372  45.8757496  45.6778288  71.4967362  38.3561621   3.7238283
  72.2614542  38.5806782   3.1937094  71.4196745  37.4055396   3.6425276
  67.9626290  64.2249717  13.7068672  67.4438969  65.0107468  13.8792343
  68.6013380  64.1985740  14.4193191  23.8963099   1.8911978  13.0906029
  24.7628947   2.2916147  13.1608314  24.0721674   0.9773490  12.8665705
  74.3819968  44.9333961  10.1826830  75.3185288  44.7447832  10.2423687
  74.0857378  44.4365258   9.4200678  22.7511744  51.9564165  25.5017919
  23.6304192  51.8430163  25.1408262  22.8959326  52.3204006  26.3751669
  63.1741667  32.1017814  51.6384125  62.6135540  32.7245426  52.1011305
  63.8418150  32.6454282  51.2201643  56.6122810  49.5571495   5.8288545
  56.3568465  49.3728508   6.7327471  57.1488396  48.8066222   5.5738182
  15.1355890  59.7253240  36.4370317  14.7789911  58.9250673  36.0514707
  15.5446152  59.4365038  37.2528143  33.7565585  23.0191919  20.8238954
  33.2482787  22.4803468  20.2176542  33.7122937  23.9013740  20.4550714
  12.0713985  34.2108464  51.1348820  12.5316513  33.7748671  50.4177189
  11.3056076  34.6090055  50.7210398  68.7397003  31.1410165  46.6170454
  68.0853128  30.7758045  46.0215378  69.5722055  30.7868624  46.3044071
   6.6986899  43.0881424   1.4479847   6.6992716  42.3067148   0.8951731
   5.7807879  43.2088478   1.6911144  46.9630766  18.2760906  40.4684734
  47.6463556  18.8621151  40.7939529  47.2761154  17.9979372  39.6077394
  61.6706363  42.5874753  12.0279951  62.3556248  42.8240295  12.6533480
  62.1459333  42.3322548  11.2373085  45.7626028   6.5933201  22.6023645
  45.9464617   6.3955852  23.5206957  45.1080962   7.2910711  22.6339979
  16.9145159  62.2146739   4.8889227  16.3807491  62.3174895   4.1010446
  16.6291432  62.9232754   5.4657049  15.4196886  59.0297259  21.4575929
  16.3382963  58.8873066  21.2293215  14.9340920  58.4535946  20.8672590
  70.6876659  42.2474241  43.5878992  71.5387201  42.1153927  44.0056324
  70.8436680  42.9324055  42.9377508  18.3763492  54.7819185  53.5859966
  19.2491138  54.4957304  53.8554621  18.3656013  55.7215929  53.7680149
  71.2491051  66.9942774  19.4713087  70.6179920  66.3671244  19.8243017
  71.9586102  66.4519323  19.1267843  35.1116757  63.2808031  14.1768570
  35.6941227  63.1072534  13.4373493  34.3833641  63.7728227  13.7977714
  69.2136589  69.1830124  31.3246507  69.6661345  70.0146593  31.1837072
  69.3484513  68.6962117  30.5115766  14.1905391  34.8064852  45.2200413
  13.4597671  35.2923560  45.6023026  13.8459862  34.4658971  44.3945026
  18.9586500  65.1794256   5.8418960  18.7362961  65.1632537   4.9110241
  19.2155174  66.0858644   6.0110779  50.9578991  12.5885868  53.4536791
  50.6825495  11.6860557  53.6144543  51.8820763  12.5180626  53.2146025
  58.6679570  48.0373646  13.9359541  58.1417242  48.2279791  13.1594343
  59.5393483  48.3711137  13.7225933  12.8795166   9.9699566  38.0375738
  12.9250808  10.8643743  38.3754701  12.1957274  10.0012466  37.3684759
  27.6920323  46.1655916   5.1476068  27.4225239  46.5171517   5.9961386
  28.3515982  45.5053653   5.3604526  44.5143624  36.9834062  10.3376598
  45.1161309  37.1692583   9.6168489  43.8092204  36.4756891   9.9361200
  36.2098236  29.9950620  11.2304563  36.4163466  30.0257894  10.2963085
  37.0461150  29.8024389  11.6544266  50.9542342   2.9126832  13.3804388
  50.6068106   3.7767026  13.1590814  51.4493390   2.6478192  12.6052255
  70.1412916  63.7873840  37.6348257  70.8115625  63.5296249  38.2677031
  70.4827261  63.4921551  36.7907310   0.4533819  36.2166317   1.3077707
   1.3804201  36.3868815   1.4746351   0.3506331  35.2776546   1.4626808
  29.2029162  19.6412012   1.6858167  28.5633536  20.1738903   2.1585007
  28.6743088  19.0143654   1.1919708  31.3204388  55.8086861   5.1384134
  30.3668598  55.8689607   5.0810118  31.5620808  55.1802243   4.4580622
  18.1826866  32.5558424  60.2475691  17.9708946  32.9988742  61.0692167
  19.1121853  32.3404908  60.3242540  20.6035316  14.8016584  56.3316202
  20.5853164  14.6382403  57.2745895  19.6898067  14.9674499  56.0995722
  63.7096310  51.2735701  54.9994230  64.5660686  51.5314770  54.6585035
  63.0891514  51.5580559  54.3283796  20.1664881  57.2129334  16.1992044
  20.5475716  57.2665776  17.0756359  20.7175736  57.7831353  15.6631012
  45.1000376   6.5748235  13.0060596  45.5519886   6.0899803  12.3154850
  45.7403632   7.2212717  13.3032532  27.0767168  69.6741475   5.4192419
  27.3742441  70.5656589   5.2378149  27.3436979  69.1712917   4.6497698
  67.0414702  16.7100550  17.0667238  67.4519888  17.4231328  17.5558348
  67.4543730  15.9167744  17.4079676  12.6517666  35.9863472  53.6928225
  12.6272667  36.3549876  52.8097916  11.7381561  35.7823205  53.8926220
  30.6484281  37.9368196   1.1077156  31.0660731  38.7008439   1.5052929
  31.3501035  37.5082145   0.6176319  15.9963246   9.1980144   4.1186971
  15.9799500   8.8249132   5.0000400  16.8098278   8.8705131   3.7350435
  31.4232635   7.6424384  58.3252335  30.5617738   7.9407531  58.0335522
  32.0421815   8.1982297  57.8516626   1.1218456  49.7656406  35.8045072
   1.4490275  49.5136966  34.9409647   0.8318857  48.9435924  36.1999674
  62.9550000  12.4210664  27.0270605  63.2694931  12.7018568  26.1677046
  62.3133870  11.7370483  26.8355341   5.3280342   9.0866703  57.4660873
   5.0864351   8.2579720  57.0524216   5.4130447   8.8745421  58.3956099
  60.6020117  50.1925087  47.2778845  60.1534700  49.3498802  47.3487329
  60.9090090  50.3758240  48.1657887  33.8904309  52.3620224  59.6280861
  34.5589447  52.0876169  60.2557993  33.2295656  51.6705227  59.6643829
  68.5162687  15.8747518  41.5787029  68.1099653  16.7314267  41.4473343
  69.4473267  16.0233903  41.4135647   0.8918957  58.9013518  24.7887392
   0.3083853  58.1456651  24.7203321   1.5685753  58.7417854  24.1307993
  27.6724438  67.5644721  34.5812769  28.0547241  66.7748846  34.1983290
  28.4141735  68.1586779  34.6952219  23.0563645  37.3892878  30.2287264
  23.9835648  37.2185942  30.3942365  22.6469473  37.3463972  31.0928888
  23.1903000   2.9323551  10.4220218  23.4583636   2.9745099  11.3399572
  23.5627861   2.1110388  10.1012058  65.0870705  64.8356628  36.6750455
  64.3513918  65.4209471  36.4949083  64.8448324  64.0102577  36.2552118
   9.9213302  24.1947770  46.7595959   9.3570411  24.9675560  46.7845726
   9.7693241  23.7599897  47.5986910   9.6982849  59.7773933  44.6399117
   8.9982975  60.3966475  44.4330978  10.1649082  60.1793528  45.3726673
   2.6032150  41.3418436  51.7147350   3.0390251  41.7338991  52.4714327
   2.2303951  42.0854807  51.2411928  62.1841002  47.8155470  54.9968243
  61.3630772  48.3075285  54.9862957  62.2999716  47.5625181  55.9126759
   6.8903816  31.1505532  53.9318132   7.2305191  31.4170003  53.0776787
   6.3066185  31.8637586  54.1902399  23.3220152  59.0688218   1.9633550
  22.5491766  59.5763172   2.2111530  23.9599423  59.7252454   1.6833753
  50.8559513  38.7512112  52.5628376  50.2723551  39.5023274  52.6699352
  51.3971472  38.7539077  53.3523560  73.4893799  29.7531319  58.3203459
  73.1554794  29.6115565  59.2061758  74.2990589  29.2437911  58.2853270
   1.7435539  23.5034823  44.2671061   0.8714187  23.3914280  43.8888836
   2.2811163  22.8435326  43.8292408  32.4235411  30.9177705  18.9475698
  32.5797148  30.6653759  19.8575945  33.0011483  31.6675159  18.8044567
  40.0515179  63.7833608  40.2917166  40.6736282  64.0800084  40.9559603
  39.5621876  64.5707096  40.0532312  12.2189859  56.2064113   5.9768600
  12.3905758  55.2970995   6.2216825  12.6642946  56.7233266   6.6482229
  29.7495480   2.3163149  41.6525621  28.8702603   1.9454500  41.5781183
  29.7890730   2.6617738  42.5443716  58.0867306  25.8850415  20.7967634
  57.8333036  26.2745012  21.6336222  57.8515164  24.9610747  20.8815737
  67.6602570  59.2089094  21.2962026  68.5857931  59.1337026  21.0639162
  67.5832859  60.0751962  21.6960211  73.5668564  41.6632509  16.8562627
  72.9555416  41.3992453  17.5438881  73.6822987  42.6044464  16.9868410
  59.5017139  52.5698282  13.2012482  59.6767417  52.6876427  12.2675915
  59.0576307  53.3756412  13.4652347  62.0509930   7.7533170   5.6167812
  62.7403565   7.2295400   5.2085228  61.2478180   7.2572061   5.4586334
  25.0516943  70.0401224   7.4914570  24.9381975  70.9882392   7.5579662
  25.5174927  69.9120439   6.6651029  17.0379833  64.6175541   1.6985388
  17.0902542  63.6912764   1.4629431  16.7594008  65.0540961   0.8935184
  29.7064467   1.7989823  11.3461370  30.3311367   2.5210592  11.2783356
  29.4542237   1.6147253  10.4413385  11.3938415  27.6370192  55.0283289
  10.9413898  28.4002686  54.6692085  10.7268513  27.1839571  55.5441618
  58.2227755  25.5549479  44.1447115  58.5728741  25.7517600  43.2758427
  57.8377295  24.6831155  44.0559340  16.8542660  39.5685983  51.0439634
  16.5528667  40.4429674  50.7972527  16.2540806  39.2952490  51.7377090
  27.7338032  69.5436181   2.2049494  26.7862991  69.4274534   2.2755165
  27.8459028  70.1667560   1.4870663  16.5358849  25.5552599  15.3882952
  17.2887822  24.9908277  15.5637665  16.7608042  26.0089418  14.5760031
  64.5740652  49.8842764  35.3824830  64.0816784  50.0116539  34.5715809
  64.6874952  50.7669497  35.7349801  61.9523811  40.2951097  24.0234804
  62.3884344  40.8297920  23.3599997  62.6091242  40.1837206  24.7108793
   9.0939987  58.1510210  50.4673243   8.9294422  57.2536469  50.1777124
  10.0250137  58.1641340  50.6893015  68.1781912  17.9471493  54.5099592
  68.5431242  17.5642848  53.7121677  68.8386822  17.7764058  55.1813984
  21.6410545  66.9367517   9.1271467  21.8485455  66.6053380   8.2534523
  21.8447165  67.8710188   9.0835256  10.3518553  20.4869625  14.5791168
  11.2531920  20.5631754  14.8921890  10.1305218  19.5647403  14.7085399
   1.3587101   4.9589512   0.4761190   1.1425694   4.9336454   1.4082498
   1.2109097   5.8695003   0.2206058  62.9017973  25.8298278  40.0413036
  63.8037300  25.5093074  40.0453758  62.9069805  26.5517116  39.4127464
  32.1950503  25.0674698   6.4740295  32.3986550  25.8549043   6.9787330
  32.8755207  24.4415447   6.7218275  22.0739874  65.3119253  45.5403852
  22.7464374  64.6424721  45.4143906  21.4339813  64.9020015  46.1222696
  51.2020922  28.8555360  47.2044611  50.6150198  28.3551931  46.6376829
  50.8506155  28.7279963  48.0856133  11.1463598  10.3333886  44.7358036
  11.6132692  10.9763367  45.2695179  10.5068878  10.8490498  44.2444801
  32.7689175   9.5935567  43.7532663  33.6278156   9.8935063  44.0508270
  32.9362587   8.7344249  43.3658123  65.8121443  50.7794333  41.1843634
  64.9037218  50.7904243  41.4858198  65.7604313  50.4724264  40.2792072
  32.5050453  34.0272568  11.2807770  33.1522564  33.5718660  10.7422895
  32.6093392  33.6473656  12.1531505  21.8978886  57.9958428   6.9055052
  22.3077253  58.7345613   6.4554376  22.2371010  58.0419053   7.7993936
  62.7123499  31.9197249  41.8950176  62.3721218  31.8218255  42.7843380
  62.3593426  31.1677909  41.4194012   8.8024986  45.7960653  50.9801579
   9.6419227  45.3611946  50.8301926   8.1735218  45.2846575  50.4711628
  25.6161722  69.5001243  48.3744287  24.9578079  70.1540827  48.1396389
  26.3699659  69.7105454  47.8232908  65.6474324   1.3610312  12.4717254
  65.5254193   1.7985388  11.6291542  64.9282093   1.6829750  13.0151434
  52.9378128  48.8015270  53.1102848  52.0269442  48.7990141  52.8160906
  53.4505749  48.7907743  52.3020840  72.0592133  58.9126552  10.1611156
  72.1692768  59.0642871   9.2224331  72.7287451  58.2642449  10.3791160
  70.4251957  56.1281300  34.8882890  71.0775423  56.1663532  34.1888523
  70.9008026  55.7754469  35.6403828  45.2578560  68.5091032  38.1650896
  44.6627954  68.0355419  38.7463541  45.5086724  67.8651370  37.5028009
  31.2302132   3.8969537  10.5687876  31.7663355   4.4682237  10.0188274
  30.4502411   4.4161221  10.7645960  50.8370991  19.8428270   6.8835850
  49.9226637  19.9437925   7.1478576  51.0134144  18.9073345   6.9835634
  74.5735455  18.2824397  51.7034245  75.1687193  18.4976125  52.4215460
  73.8447714  17.8267670  52.1247101  26.0541443  41.3234050   2.6485033
  25.8589844  42.1176769   2.1512337  25.3891377  41.3021888   3.3366508
  15.0146965  67.3011507  25.2831335  15.6116346  66.9715108  24.6113939
  14.7284607  66.5185417  25.7541151  68.8982645  58.1439532  10.7519646
  68.9322249  58.9143027  10.1848335  69.7199074  57.6838340  10.5804224
   4.0180401  67.1410645  13.6969585   3.9449267  67.5361503  12.8281708
   4.9238543  66.8355121  13.7456627  30.8523484   4.2431757  18.6209459
  30.8605023   3.2865020  18.5902805  31.2944336   4.4602796  19.4417162
   7.0326793  24.6430469  48.0534172   7.4914062  25.2685666  47.4925900
   7.6957405  23.9893937  48.2754993   8.2165388  49.7589494  34.1166849
   7.8570704  50.0000490  33.2629366   8.8127760  50.4748274  34.3363447
  14.3531120  33.6212492  54.9193716  14.2904365  32.7247190  55.2488232
  13.5393703  33.7553120  54.4334936  32.0928116   1.8318483   7.8303642
  32.8695650   1.3073608   7.6359386  31.8600960   1.5918323   8.7272854
  59.7849512  42.2638941  46.4418983  58.8940096  42.0517349  46.7201900
  59.8193407  41.9956589  45.5236912   7.9439882  52.8232075  31.5740175
   7.6507954  51.9236566  31.7191953   7.4540094  53.3408762  32.2129030
  15.5385769  37.9618645  26.9510698  15.9750641  38.7928939  27.1384168
  15.7431114  37.7855849  26.0327458  38.5902377   5.8454200   5.0446815
  37.6823969   5.5420753   5.0511761  39.0927573   5.1045343   5.3834934
  33.0407448   3.3121583   0.6526728  32.9805680   3.2157346  -0.2977591
  32.1843024   3.0330249   0.9764309   1.7979578  70.1477922  13.5215254
   2.1703056  69.6014894  14.2137260   1.3007168  69.5379437  12.9764862
  68.4510899  52.6208973  43.9086103  68.3403921  52.0935011  44.6997070
  69.2614603  53.1082201  44.0570831  37.7049799   5.0679275  23.5276861
  37.9619570   5.9883901  23.4734316  36.8322678   5.0856611  23.9204855
  14.7141254  42.5967264  52.4845123  14.3754185  43.4065914  52.1029091
  15.0195492  42.0875931  51.7336941  53.7778902  56.6729498  51.1638975
  54.5407295  56.5958595  50.5908680  53.9260769  57.4827099  51.6523170
  56.1397743  55.5291653  60.4465199  55.7045460  55.5579567  59.5944738
  55.4256439  55.5780458  61.0820198   2.2071604  47.2423316  30.0156851
   2.0120815  48.1501497  29.7832174   1.6521172  46.7218138  29.4349832
  51.5253659  12.5927755  11.1663885  50.9296723  11.9274351  11.5109176
  51.3626166  12.5946256  10.2231235  23.4565468  31.1265442  18.6040897
  24.3644066  31.3781997  18.4347219  23.2921906  31.4130804  19.5024843
  28.4098391  62.1406497  12.9828806  27.5554804  62.1114076  12.5522442
  28.9718298  61.5900458  12.4376888  73.9460189  16.0313102   3.0416555
  74.8018797  16.4219114   2.8651256  73.4285338  16.2249967   2.2600384
  10.3804863  17.2977221  48.4385681  10.2222336  18.2323134  48.5717154
  10.0560558  17.1233451  47.5550747  24.0316582  33.1880689  60.4865265
  24.1399550  32.8962445  59.5813513  24.4123411  32.4845028  61.0121775
  72.1912050  56.2890005  42.6214933  73.0756617  56.0002232  42.8463888
  71.9733524  55.7984495  41.8289423  32.2764655  10.2490303   1.3481493
  32.0020171   9.4158336   0.9651394  31.5306063  10.5249902   1.8808527
  30.2778610  65.7942359  26.8436527  30.8573326  66.4787088  26.5090704
  30.1990923  65.9830622  27.7787328  68.9888525  62.8732491  55.8461285
  68.9499617  62.8869486  54.8898172  68.0928564  63.0620527  56.1250067
  24.7630711  18.5167333   2.6353664  23.9866944  18.8807365   2.2099609
  25.4337998  18.5193988   1.9524736  69.7829103   8.5123432  39.6337390
  69.5504045   8.2234156  38.7513018  69.5293570   7.7828288  40.1992035
  29.5107575   7.9216739  20.8236189  30.0252886   7.4082395  20.2008219
  29.5419808   7.4150726  21.6351671  43.1724628  66.9922923  59.4730759
  43.8808426  66.3717045  59.6442509  42.3832163  66.5450858  59.7785759
  47.8864241  39.3341017  47.6354456  47.5761652  39.2796159  46.7315626
  48.1960726  40.2350426  47.7284956  42.4021244  36.5678000  57.1625757
  42.8589916  36.2364721  57.9357004  41.4745903  36.5222192  57.3946142
  37.6227255   3.7423894   1.8489523  37.0211573   4.4760772   1.9756288
  37.0681210   3.0301401   1.5306063  69.8676682  24.3900681  28.1908584
  69.3643951  24.6943188  28.9460945  69.3227625  23.7075210  27.7991486
  67.3990837  47.8679658   0.1984901  67.7982632  48.6132039   0.6473846
  67.3857418  48.1231262  -0.7239800  47.8838797  15.9290144  14.0315599
  47.5113411  15.1099512  13.7050838  48.4992905  15.6575462  14.7125931
  40.6143002  69.8614611  22.0266886  41.5523247  69.6712293  22.0139379
  40.5559258  70.7563056  22.3614759  39.9600907   3.7689635   8.6088104
  40.8551331   3.5954425   8.3172245  39.5196028   4.1192218   7.8345175
  54.6157455  17.6631176  18.1718946  54.5855570  18.6103868  18.3060694
  54.7392893  17.3007667  19.0492034   1.6240013  21.2682366  58.3635616
   2.2694433  21.3995814  57.6690245   1.9773519  20.5480957  58.8858414
  67.1108103  52.9540348  41.4733648  66.6206789  52.1415520  41.3473701
  67.7138090  52.7611160  42.1912813  42.1432976  60.1732363  12.9878206
  42.0620827  60.5123199  12.0963878  42.7659706  59.4500865  12.9132051
  54.0142202  30.9024549  54.0274715  53.8130045  31.8234062  53.8613653
  54.3090677  30.8821464  54.9379063  13.1652916  45.3700542  44.2651796
  12.4111259  45.6642056  44.7760105  12.8275287  45.2704096  43.3751106
  52.7403736  16.4274693  46.8328094  53.3226061  15.6700087  46.7737293
  52.8126574  16.8523645  45.9781313  68.0478859  34.9333715  50.3850603
  68.0165243  35.8885121  50.3306961  67.5984621  34.6336079  49.5948792
  31.4095787  63.1773843  16.9608517  30.9871391  62.3714126  16.6638918
  31.9037918  62.9164709  17.7379675  43.6003876  26.4483404  61.1925888
  43.5180426  26.3887382  60.2407980  44.4062090  25.9724188  61.3935471
   0.8803547  38.9639997  51.8425703   0.0945175  39.4996309  51.7339849
   1.6060102  39.5715642  51.6993141  17.9844193  55.3834118   1.3800592
  17.7912239  54.4524337   1.4904566  18.5328487  55.6050981   2.1325941
  28.8329859  29.6098587   2.7189226  28.1311150  30.1259634   2.3223848
  28.6454888  29.6316597   3.6573286  66.1753893  65.2827930  42.6105595
  66.4680433  64.9882507  43.4730148  65.7476187  64.5165968  42.2282171
  27.1975950  51.4415838  14.8772926  27.4519352  50.7564749  14.2590971
  27.9403738  51.5107812  15.4770584  64.1610833  37.6653692   8.2718534
  64.3752308  37.2257873   9.0947409  64.8953648  37.4607965   7.6928778
  73.8375282  38.6954832  61.0861731  74.1251135  39.3682933  60.4690409
  74.2866468  37.9001498  60.7998705  64.9317122  52.7300549  13.9936888
  64.6310425  52.6438999  13.0890310  64.1334105  52.8892851  14.4972682
   1.7867792  52.2651958  43.8683844   2.0803106  53.1509733  43.6551380
   2.1953905  52.0742226  44.7126579  73.3869520  49.2558707   7.1083040
  73.7696186  50.1210393   7.2541828  74.1119496  48.7261392   6.7766447
  16.0430610  64.1615629  49.5259714  16.4345730  64.8567390  48.9971256
  16.6453254  63.4231949  49.4347525  63.0468321  14.9187839  50.7875919
  63.9882755  14.9916363  50.6307077  62.9384184  14.0620482  51.2004900
   0.8567083  11.7407656  10.9475887   0.4421699  12.0755744  11.7427576
   1.6266430  12.2964752  10.8266699  22.5633577  29.3507816  10.2230663
  22.1751503  29.4503559   9.3538065  23.2250408  30.0408353  10.2703543
  53.8023758  23.1952310  51.9993496  53.8207579  23.9684010  51.4353418
  54.4477701  23.3809185  52.6814222  64.2632333  49.0730847  13.8895769
  63.8250200  49.5041860  14.6233053  64.3455592  49.7566844  13.2246370
   9.0830311  70.7358714  31.8748903   9.4588073  70.8161316  30.9982014
   9.0654525  69.7936425  32.0426035  18.6368708  47.5823976   0.8425636
  19.0226225  46.7094089   0.9154816  17.6924376  47.4268819   0.8328695
   5.9288458  53.1343986  42.9605360   5.8334211  54.0598024  43.1858225
   5.3142695  52.9988600  42.2393102  48.7676430  18.1030393  58.1492710
  47.8881550  18.1493735  57.7743244  48.9553118  18.9983344  58.4311533
  72.3616902  34.5039110  12.5467892  73.0605713  35.1150899  12.7797241
  71.8189923  34.9869035  11.9235487  44.3500519   0.1183089   2.8736573
  45.0946617   0.3741769   3.4180084  43.8527632   0.9271732   2.7525327
  28.2243221  41.8500409  58.8885324  28.0871599  42.7602831  59.1509791
  28.8452785  41.9012556  58.1618824  66.5143315  28.1305535   7.2964926
  66.6259638  27.3096157   6.8170852  66.2576977  28.7654681   6.6277237
  53.8494396   7.9724127  58.3972549  54.2019701   8.1322873  57.5218153
  53.7040329   8.8461405  58.7601423  69.2259947  55.1990332  23.9331312
  69.4427553  54.9395288  23.0376406  68.3711401  54.8010148  24.0975637
  45.1309729   9.4658452  40.2975225  45.0133991  10.2090657  39.7058892
  45.7962561   9.7584713  40.9204197  41.0870361  24.4206142  49.7749949
  41.4165449  25.2872920  50.0127411  41.8354559  23.9827633  49.3695450
  72.6655932  60.5209218  30.8087397  72.2425767  60.8897762  31.5841341
  72.6328035  61.2244539  30.1605129  67.0956421   8.5817307  26.6410279
  66.8785524   8.6110866  27.5728250  66.2612200   8.7295896  26.1959291
  74.4931984  16.2907612  49.6671057  75.2823305  15.7928026  49.8805094
  74.4277382  16.9453919  50.3623772  57.3917659  67.9923998  22.0165253
  57.8485569  68.0924983  21.1813235  56.5197166  68.3535434  21.8573642
  45.2424765  15.6220138  37.5034451  44.5224667  15.3415310  36.9385123
  45.1417112  15.0977838  38.2979655  12.3761181  35.7534658   7.4839182
  11.4567713  35.4924764   7.4298401  12.6624159  35.8122653   6.5724344
  12.7763677  35.3035736  31.3342762  12.7089369  34.3662286  31.1524343
  12.2654414  35.7196116  30.6399441  59.4559479   8.3221310  43.8359165
  58.8044596   8.5531026  43.1737614  59.1865683   8.8066882  44.6162176
  45.3508806   4.0926823   8.3073747  44.6153164   3.5003173   8.4631866
  45.3503799   4.6792871   9.0637654   1.4983563  34.8660215   9.1155023
   0.5966429  35.1674480   9.2263765   1.9699530  35.2429988   9.8582764
   8.4792316  30.3395605  58.7746572   8.2584560  29.9556088  57.9260874
   9.0641582  29.7005415  59.1817856  70.1271248   8.7795621  32.6023102
  69.2023277   8.8943595  32.8209639  70.4178572   9.6489871  32.3269820
  10.0339421  53.2143585  50.9436655   9.1673335  52.8315167  50.8070898
  10.0909408  53.9156799  50.2947187  26.5642361  19.7315635   5.3726740
  25.6153921  19.8564173   5.3543968  26.8993572  20.3466190   4.7202701
  28.2409795  66.7784576  52.6502180  28.2543167  67.2089423  51.7953873
  28.9274820  66.1137567  52.5943899  72.7805444  52.4660413  27.9371691
  73.3386942  52.1342783  27.2338653  72.4894472  53.3237271  27.6275396
  65.6039675  61.0967855  51.4413071  65.6659289  60.5280672  50.6738758
  65.8882793  60.5463044  52.1709442  30.4036030  59.0891807  22.9855585
  30.7530149  58.6538808  22.2079635  30.1799568  58.3734910  23.5805416
  15.9595859  17.2323096  27.6228976  16.0544765  16.4587224  28.1785870
  15.7015026  17.9298437  28.2254505  27.4806579  50.7522075  20.3907776
  26.9745334  50.4336803  19.6433771  27.0317730  51.5536301  20.6599498
  30.0831016  58.9789037  49.5339203  29.7013506  58.1300919  49.7575617
  30.0699981  59.4711594  50.3547382   5.1223552  20.2455974  54.9529839
   4.6382845  19.4468784  55.1626396   4.9191845  20.8443952  55.6715870
   2.6107153  61.2631510  40.2405834   2.1399959  60.8567117  40.9682274
   3.4590515  61.5072738  40.6106663  62.1936464   3.5597998  41.1669683
  62.1244669   3.8883433  40.2705812  62.5490189   4.2958805  41.6650915
  -0.1068779  68.9854516   7.9755421  -0.2985521  68.0541958   8.0862589
   0.8345989  69.0176810   7.8058071  68.4352875   4.7728074  44.4080830
  67.4953318   4.8203117  44.2335653  68.7801695   4.2135528  43.7120056
  66.2821674  46.4093924  19.7016180  65.5890322  45.9292603  19.2485607
  66.6029119  45.7981348  20.3647327  67.1949259  26.6180344   5.2147074
  68.0508295  26.9601138   4.9565573  67.1979872  25.7105101   4.9103660
  62.1088334   5.3235599  11.0007686  61.2758656   5.2657005  11.4687843
  62.6867123   5.7983896  11.5981121  24.7243742  59.3481673  29.8370428
  25.0811724  58.5505570  29.4462175  24.1006760  59.6744503  29.1883726
  38.0216479   8.7882495  46.9448757  38.3751464   8.3863539  47.7384472
  37.8534961   8.0512804  46.3576508  18.8581932  24.7709250  56.8160200
  19.3028915  24.2858052  56.1209440  19.0617264  24.2850161  57.6152039
  38.3624721   7.0948046  30.4427671  39.2460346   7.4568868  30.3760982
  38.3906937   6.2958390  29.9163771  25.6912569  47.1556212  30.9484453
  26.5163998  46.8673302  30.5582304  25.0775913  46.4446558  30.7635851
  33.3773903  60.3554000   7.0670624  33.7223724  61.2411107   7.1798963
  33.4906010  60.1712526   6.1345930   4.6356666  12.3353910  16.2112975
   5.3675449  11.7395818  16.0513139   3.9487160  12.0363033  15.6155825
   3.2071245  35.6996727  60.6536531   3.4870899  35.0540805  60.0047636
   4.0028751  36.1882067  60.8642435  25.6624159  51.4444344  53.2028675
  25.7892593  50.4965131  53.1630039  25.7250150  51.6554944  54.1344070
  23.8880845  14.1021320   7.5909920  23.2243653  13.4370252   7.7735872
  24.6191712  13.6134693   7.2129030   1.4135321  61.6121785  26.3792491
   2.2552093  61.1572306  26.4080977   0.9982880  61.4009039  27.2154140
  63.7816000  24.9298024  16.1930156  64.3566847  24.1716099  16.0898149
  63.6992836  25.0408196  17.1401846  20.2191433  53.9795952  59.4338179
  20.5039486  53.3609025  58.7612581  20.3478655  53.5121982  60.2591658
  23.2436819  10.5676767   8.1698198  23.0805655   9.6343347   8.3058281
  24.1379996  10.7026741   8.4832020  55.4970630  65.9453364  14.8672843
  55.6647285  65.4420571  14.0705216  54.9618372  66.6835584  14.5760942
  10.0964467  64.4919661  59.4735142   9.6184223  64.8186639  58.7112841
  10.9217946  64.1642764  59.1162329   6.1950481  59.4241095  46.6156292
   6.9439972  59.3032837  47.1993303   6.3409317  58.7983418  45.9061432
  62.1859646   9.9747050  45.9356451  62.9300404   9.5392185  45.5197954
  62.5038958  10.8556652  46.1332750   6.4372433  37.3990345  49.5397186
   7.1375740  37.7859044  50.0651741   6.1010254  36.6830111  50.0786972
  38.5533718  49.4890715   6.7722292  38.1955341  48.9710070   7.4931974
  39.2920498  49.9593450   7.1587868  44.0323305  13.9330482  29.5431209
  43.4867477  13.3864355  30.1086164  44.1491222  14.7454512  30.0356579
  25.9602440  36.5721083   2.7735740  25.5902756  36.3358188   3.6241758
  26.7136371  37.1234465   2.9848900   6.5882767   4.5610479  33.2290363
   7.2651184   4.3291447  32.5931549   5.7653606   4.3314683  32.7973795
  71.0059977  29.3317652  53.6776543  70.6302691  30.1108408  53.2676506
  71.8615341  29.6183133  53.9973021  56.7663117   1.5397283   4.7019167
  55.9420987   1.1051628   4.4827003  56.8186016   1.4867255   5.6562157
  61.5652847  58.0465937  47.3118401  61.8434095  57.3272181  47.8787374
  61.1317873  58.6628914  47.9021692  66.4195490  24.1635060  50.2199888
  65.7868481  23.5173130  50.5335951  67.2594309  23.7046957  50.2380180
  27.2780565  38.3746458  22.3766012  27.9732613  38.7570573  22.9120321
  26.5180401  38.9344595  22.5354070  30.7849316  60.9559049  15.2413435
  30.7099442  60.2078642  14.6488542  31.7275623  61.0909356  15.3385134
  43.2966884  69.6057171  22.2681928  43.2347807  70.1296484  23.0668759
  44.1592487  69.1937488  22.3182487  67.6335669   4.3305612  22.6066422
  68.2567406   4.6725476  21.9656038  68.1809759   3.9470941  23.2918620
  26.8599577  23.8956186  48.1305570  26.7271872  23.0964252  48.6403532
  26.5933295  23.6599466  47.2419615  29.8562578  68.9356436  19.2035742
  29.9073509  68.3443130  19.9545450  28.9513592  68.8605036  18.9006824
  39.8212600   5.5519521  20.8775687  39.3989086   4.6930492  20.8658528
  40.6873131   5.3981560  20.5000401  66.6734743   2.8331566  31.9194078
  66.5370798   3.5209101  31.2677765  65.8763742   2.8437638  32.4492717
  37.5320268  37.4483895  53.2572746  37.6568246  37.2744226  54.1902256
  36.8844938  38.1527758  53.2295036  42.6147445  69.7405197  45.6244993
  43.2637676  70.4365479  45.5218077  41.8407949  70.0648775  45.1640368
   5.1565063  54.5854759  57.4214077   4.3526686  54.1023445  57.6128769
   4.8861063  55.2653027  56.8041992  54.6567774  31.0997677  48.3584166
  54.7261286  30.8180404  49.2705870  55.5409098  31.3851619  48.1280041
  57.5614929  19.7755432  43.3869982  57.2677469  20.3359628  42.6687527
  58.5158587  19.7724330  43.3134556  66.8326139  12.3044550  54.2040825
  67.4374104  11.9394350  54.8500013  66.0067511  11.8478513  54.3643951
   2.5164974  11.1242747  42.3644161   3.3779562  10.7302284  42.2271252
   2.2212255  11.3663900  41.4866781  55.7782860  11.0402223   0.9614677
  56.6369553  11.2670347   1.3185186  55.3754826  10.4930231   1.6356678
  60.3355789  25.8343196  27.4843979  60.2008152  25.5057311  26.5955234
  59.8395824  25.2329040  28.0398440  71.3714027  12.3679125  41.8868017
  71.7159557  11.9921851  41.0766506  70.5669403  11.8772829  42.0551920
  63.6552278  52.9736186   2.3894806  64.1623751  52.2831942   2.8164978
  63.3729092  53.5416581   3.1063194  65.3594474  28.0667559  44.1662352
  64.9148206  27.3798481  43.6695485  64.7087411  28.3607665  44.8037057
  54.8026276  16.7744327  60.8053207  55.0851250  17.4019158  60.1399708
  54.8437119  15.9249115  60.3661633  28.3442243  61.1544018  36.6320944
  27.9393657  61.8988763  36.1870360  27.8947385  61.1064129  37.4758315
  69.8652061  46.0605638  48.9237928  69.9637302  46.9886701  49.1362667
  70.2772793  45.9664075  48.0649757  60.1350355  25.6184888  24.8207331
  59.3158913  25.7927632  24.3571973  60.4621267  24.8071146  24.4322562
  73.0086374   8.7604403  38.2175016  72.4427652   8.6651242  37.4513841
  73.6484241   8.0536026  38.1321311   1.3424623  15.0343549  31.9638658
   1.5146387  15.1720250  31.0323977   1.9533479  15.6211519  32.4096417
   5.1356924  26.4046383  54.5593071   4.7597015  27.2609997  54.7630453
   4.3969763  25.8898902  54.2343998   3.2282595  35.8517658   1.8875475
   3.5963253  35.3606119   2.6220722   3.3600477  36.7700426   2.1234150
  26.6706264  19.0110373  50.6690836  27.1223152  18.1672227  50.6826544
  26.3340175  19.1168571  51.5588808  41.5406326  54.6211447  11.9017048
  42.0917610  55.2333666  11.4141817  41.2496475  55.1176883  12.6665611
  60.7368103  32.5618560   8.4519930  61.5633360  32.0864923   8.3676500
  60.2911631  32.1390374   9.1860599  58.7254429   9.3550217  33.5718226
  57.9943895   9.1559446  34.1567683  59.2420006  10.0058842  34.0469790
  68.3924580   2.4020672  35.6771326  67.5345325   2.0543893  35.9206772
  68.7426949   1.7627099  35.0568199  10.2419174  18.6324501  54.2786884
   9.7874534  18.8236129  53.4582329   9.9145210  17.7714300  54.5388556
  34.0973190  48.4230174   4.0600700  33.3722405  48.9755215   3.7681122
  33.6887173  47.7752782   4.6342773  25.6204828  66.4213164  56.0939980
  26.2715515  65.7248406  56.0087681  24.8017296  65.9621947  56.2812996
  61.8102503  11.0762072  32.6540995  61.0070944  10.7684767  32.2340107
  61.5149450  11.4736867  33.4732676  70.5861616  50.3198528  52.9482460
  69.6646833  50.5559683  53.0548000  70.8160734  49.8774195  53.7653303
  57.0957271   7.6787127   4.0382118  57.6933566   7.1390284   3.5207052
  57.6157371   7.9561223   4.7924394  42.0823606  58.1002252  54.9035835
  41.9906171  57.6857738  54.0456486  42.1927246  59.0309946  54.7093678
  34.5468792  65.5058397  56.1331511  34.4590791  66.2781151  56.6918230
  33.8964065  64.8904000  56.4713049  43.7517118  32.3495197  56.8078852
  43.5444880  31.7264128  56.1114454  44.6048164  32.7077579  56.5627098
   8.8517845  25.6495094  51.0790968   8.8892925  24.9161029  50.4651403
   9.7639549  25.8022714  51.3257456  21.0652022  29.3409379  20.7813711
  21.0547737  28.5634149  21.3395567  21.3610319  29.0201945  19.9294061
  29.0998244  27.7179050  58.9774799  29.3601370  27.9224396  59.8756075
  28.1474924  27.6304817  59.0181494   5.0020922   7.6116794  43.8931847
   4.4608152   8.0571759  44.5449448   5.8914459   7.6658803  44.2429733
  40.3336815  61.4231266  18.3664055  41.2400059  61.7266811  18.3147545
  40.3446011  60.5636109  17.9452820  65.0411987  29.7336912  26.4816594
  64.4829130  29.8062873  27.2557926  65.6096554  30.5026841  26.5233493
   4.2409075  39.8097730  23.7000227   3.5402382  40.3242159  24.1008282
   4.0841091  39.8839855  22.7586722  25.9939547   5.9498569  33.2105799
  25.1363631   6.2497350  33.5119695  25.7976265   5.2512237  32.5864000
  12.0831383  17.0815706  44.3506241  11.8998802  17.0436144  43.4118986
  12.8702343  17.6219368  44.4193411  28.1492777  25.7325432   6.8541975
  27.6370926  25.6443569   6.0503788  28.7124892  24.9586603   6.8654461
  59.6512842  47.6630402  48.0205011  59.8048258  47.3157358  47.1418428
  59.1748905  46.9671297  48.4732485  70.2267933  63.3092308  45.8100128
  70.0567818  62.4082088  46.0847616  69.5851851  63.8315392  46.2914276
   9.3730315  67.2814237  24.6275115   8.4446510  67.5024982  24.5535469
   9.4602402  66.9033922  25.5025649  35.7610420  52.2282554   1.9574756
  35.7877831  52.4681152   1.0312052  34.9667553  51.7014064   2.0456285
   5.4385746  19.9217236  52.1563625   5.6975735  19.0813315  52.5343704
   5.1840532  20.4548478  52.9095078  60.6440338  70.5875774  43.0804300
  60.9479889  69.8923744  43.6639881  59.7146877  70.4001913  42.9483891
  25.8112736   2.3587486  28.9182443  25.5954476   1.6584775  28.3023996
  25.2940007   3.1071874  28.6207647  72.3845291  20.9994555  55.8085918
  73.1863642  21.3930941  55.4645777  71.7290354  21.6937757  55.7416630
  10.4329113  48.3235968  11.3416500  10.6629995  49.2488755  11.2570829
  11.0134510  47.8752555  10.7266731  12.5934017   1.9058509  26.3181877
  12.3749054   2.7764970  25.9858251  12.9575050   1.4453036  25.5621767
   5.1062878   6.2200710  12.3964901   4.8596295   5.2952406  12.3877878
   5.3022202   6.4243099  11.4820928  28.8212951  68.2615136  54.8470545
  28.5546144  69.0963911  54.4622278  28.5685476  67.6063482  54.1965866
  20.3021038  15.1805449  38.6073971  20.8753479  14.4358981  38.7894011
  20.7978332  15.7193375  37.9908013  60.5231285   0.1837363  43.8739777
  61.2498140   0.7317728  43.5776520  60.0572443  -0.0508132  43.0713749
  72.7958266  31.9465942   7.4287243  71.9005219  31.7679070   7.1410913
  73.3406226  31.7063655   6.6792459  16.6785578  69.2145599   4.4284124
  17.4999241  69.2168154   4.9199219  16.0442070  69.6190847   5.0201816
  51.9309711   9.8659235  55.6101274  52.0917797   9.0910864  55.0716114
  50.9782696   9.9582022  55.6185913  66.2176085  11.7088628  29.0172720
  65.4598093  11.6376376  29.5977020  65.8458233  11.9345319  28.1645823
  34.2902298   6.5963527  15.7481355  33.7627430   7.3826143  15.8887834
  34.8361321   6.5308401  16.5316744  67.9756419  43.8814063   3.6068363
  68.4055344  43.7287767   2.7653379  67.5366465  44.7255064   3.5019131
  45.0713925  67.5405539  20.0435610  45.4605679  68.2056226  20.6114168
  44.7654728  66.8614806  20.6448240   4.8324450  56.1882310  46.2376356
   4.0604075  55.6264524  46.3054085   5.2554020  55.9167878  45.4229832
  58.7920841  70.0067285  18.5001588  58.5259899  69.0947810  18.6175394
  58.4108814  70.4656985  19.2486656  23.6870798  58.1352167  24.6066284
  22.8923591  58.6626785  24.6868730  24.2396387  58.6256902  23.9980674
  44.6746163  39.6179728   7.9398603  45.3458885  38.9679853   8.1475563
  44.5159058  39.5072312   7.0024319  69.7399870  39.5290111   8.8626594
  70.2632204  39.3968646   8.0720920  70.0155274  40.3844811   9.1920252
  21.5582136  58.8594831  14.4702310  21.0665897  59.2922152  13.7721748
  21.9913677  59.5743169  14.9367304  62.6307440  45.0284672  39.1645074
  63.4941959  44.8244953  38.8052440  62.1929836  45.5215168  38.4706020
  33.8931307  69.5086665  15.1738918  34.0077003  68.9108999  15.9126616
  34.7509464  69.9183970  15.0620627   7.2253406  48.3714581  58.2942820
   6.4458740  47.9401875  57.9440403   7.0783890  48.4008741  59.2396784
  66.5525015  46.3335745  41.8420935  66.1465462  46.5480630  41.0021973
  66.9662174  47.1495955  42.1234846   9.3459877  60.4745464  60.0508928
   9.5798000  60.8836548  60.8840752   8.5161289  60.0309710  60.2264118
  17.0943979  43.8674535   0.8920450  16.3556961  44.3812276   0.5655641
  17.0597366  43.0527951   0.3906841  59.6795988  23.1961727  45.6771326
  58.7668562  23.1881785  45.9653568  60.1754618  23.4399319  46.4587545
  49.4167709  22.6232409  49.6251774  49.9254751  22.8460574  48.8455629
  48.5950613  23.1028128  49.5201397  29.2782183  18.0659410  22.8056211
  29.7867365  18.7418911  23.2536478  29.6812792  17.9971954  21.9401426
  73.5764980  47.9551268  50.6836176  73.8143873  48.8259459  51.0019159
  74.3655014  47.4289227  50.8132696  14.2288069  60.7179965  10.7935114
  14.3491177  61.2337030  11.5908832  14.8355631  59.9838890  10.8892317
   3.7428749  16.7717302  59.0600967   3.7123239  16.2029564  58.2908106
   3.8307798  16.1701393  59.7994137  59.4680882  19.2169607  47.7816296
  59.1949797  19.5820248  48.6232758  60.1080799  19.8440623  47.4449015
  52.3981762  11.0938990  45.6654072  53.2692099  11.4069295  45.9094238
  51.8207073  11.8390346  45.8313322  49.7244692  20.8312535  57.4972725
  49.5909977  21.7502046  57.2650099  49.8307180  20.3848815  56.6572142
  65.7745552  15.0890684  43.8267899  66.6144180  15.2562964  44.2544603
  66.0001707  14.5857871  43.0444622   2.5106911  44.7840209  10.4629679
   3.3763317  44.5322533  10.1412315   2.1499876  45.3385390   9.7711344
  72.9614353  51.5580654  47.4692583  72.8400373  50.9923935  46.7066908
  73.8968325  51.5001392  47.6639605  25.3386692  45.7029213  22.2284193
  24.8141483  45.8642198  23.0126924  26.2451319  45.7682885  22.5288935
  27.4249001  45.0708982   9.6173448  26.7755385  45.4751417  10.1927967
  27.4955578  45.6724188   8.8761206  18.2584413  65.1564990  24.8410583
  18.3442911  64.4068764  25.4300642  18.9277157  65.0131999  24.1719031
  63.6522182  69.8935428  46.1831522  63.4536346  69.0842406  45.7121706
  63.3005127  70.5875870  45.6256247  13.4891466  38.0132194  31.4211149
  13.5182432  37.0908819  31.1667986  14.0592198  38.4535761  30.7907743
  11.7349422   0.7225030  54.9128771  11.1721599   0.1496038  54.3920183
  12.4841202   0.9029588  54.3450737  64.6018457   9.7223836  39.1432476
  63.7065172   9.5186853  38.8728333  64.5031643  10.4165268  39.7949052
  38.7906727  68.7741175  16.2824082  38.1591924  68.6323723  15.5771637
  38.6173900  68.0676864  16.9046295  43.0062393  51.1934520  18.8095636
  43.2267384  50.3095783  18.5156650  43.5047249  51.7698087  18.2302971
  54.1820574   7.5293738  43.5391998  54.7195578   6.7763966  43.7848616
  53.4819508   7.5469708  44.1917086  46.0925341  21.9215035  39.4385529
  45.4967451  22.2386432  38.7598133  45.9167433  22.4834728  40.1932144
  68.9623928   9.7704941  51.5131760  68.5509205  10.5661547  51.1757708
  69.9017477   9.9273980  51.4170980  50.8744129  65.1009916  57.0040512
  51.6311725  64.9621306  57.5734949  50.3258165  65.7228453  57.4821424
  50.9589100  23.4968400  47.1036768  51.9129848  23.4915376  47.1807671
  50.7581520  22.7337003  46.5618801  70.4593531  37.4510112  24.4153852
  70.9806601  36.6715555  24.2232485  70.7157341  38.0823280  23.7431211
  19.2162263   4.8117176  37.1267486  20.1327324   4.6624410  37.3590565
  19.2409039   5.0615734  36.2030625  59.3982601  11.5527236  57.6480675
  58.6448669  11.5937817  58.2370853  59.4511604  12.4285328  57.2654533
  53.5690006  52.6077871  54.8843384  53.9836487  51.7462306  54.9292898
  53.5062011  52.8912525  55.7964420  74.1183615  38.2162666  45.5914783
  74.6375465  38.4052277  46.3731241  74.7092819  38.4000659  44.8612356
  36.7623266  65.0299744  21.3817310  37.0325645  65.7397632  21.9643140
  37.5425705  64.8363851  20.8621407   9.0777767  27.5342965  13.5172331
   8.2246769  27.9237437  13.7090385   8.8729847  26.7400336  13.0238330
  48.3242893   5.1515502  42.0650387  49.0586519   4.7357982  42.5168085
  47.8000498   4.4208220  41.7372656  49.0284713  68.1221622  55.4366112
  48.4279522  68.8345103  55.6560755  49.8617061  68.3815974  55.8298635
  10.0180996  14.0422475  38.8576388  10.4168308  13.4237695  38.2454872
   9.2358768  14.3570435  38.4045911  30.4821706  19.1639316  52.7617073
  30.2002907  19.2668068  51.8527555  31.4157343  18.9612830  52.7014828
   9.5737704  46.3632338  53.8411522   9.8560556  46.5756051  52.9515219
   9.1331156  47.1555679  54.1481781  68.2892195  41.5914579  25.5783434
  68.6540762  41.4562149  24.7038050  68.6258284  42.4457235  25.8488245
   9.9884037  36.5417573  20.0146169   9.7316126  35.7622647  19.5219869
   9.3719582  36.5766941  20.7460565  12.6677326  42.8146036   7.5602646
  12.9054598  42.4624963   6.7025108  13.4760527  42.7677370   8.0708093
  42.2917747  63.4710598  51.0471869  42.0469093  62.9162550  51.7877722
  41.6060448  63.3189106  50.3969097  22.8444183   4.6884033  60.3716040
  23.7559688   4.5072126  60.6006813  22.3636520   4.5709440  61.1909342
  30.9836185   5.8025408  56.0079670  30.5653084   6.1607414  55.2250624
  31.1760509   6.5687007  56.5485239  64.2695999  35.8994484  49.7787762
  63.7222433  35.1147461  49.8084211  63.6989975  36.5758419  49.4139004
  26.4269451  42.6001216  10.4563351  25.8641771  42.5875248  11.2305231
  26.6982988  43.5142012  10.3723259  56.0479927   5.4752994  48.1878662
  55.8502722   6.2718761  47.6953173  56.1982012   5.7784408  49.0832853
  25.1704411   1.4955504  48.9279890  24.9878744   1.5486081  49.8661184
  26.0765652   1.1912663  48.8771582   9.5035827  42.9619074  30.4132247
   8.6650932  43.1572580  29.9948907   9.3472278  43.1133366  31.3453507
  66.9402266  27.7868414  41.6666937  67.3549318  26.9340277  41.7969179
  66.4849329  27.9600883  42.4906635  52.2474674  60.2413286  11.5018482
  52.9825977  60.8237876  11.3106270  51.9919113  59.8902215  10.6488294
   8.7340820  65.3724003  57.3894453   8.1630314  66.1348772  57.2958231
   8.3078277  64.6889830  56.8722630  33.0955668   3.8212010  12.5637121
  33.6175843   3.0192134  12.5870914  32.4131508   3.6440059  11.9163008
   9.7699917  12.2319853  43.4803200   9.3400848  12.5577939  42.6895857
  10.1865089  13.0046117  43.8621473  35.3726216   5.5340311  13.4561891
  35.9127779   4.8033258  13.7570734  34.7917385   5.7219478  14.1934080
  52.2661734  51.1382961  46.1083841  52.4067068  50.5627537  46.8602037
  52.6120615  50.6473970  45.3629923  33.1468363  18.3101436  23.5006971
  33.6852999  18.4024021  24.2866869  33.3624096  19.0778658  22.9712076
  73.3159208  58.8897133  54.9195099  73.4301662  58.4537792  55.7639885
  74.1267061  59.3824387  54.7926950  61.4853716  33.4116173  46.9602680
  62.0999432  33.3861279  46.2268591  60.7344580  33.9025307  46.6265583
  26.7229069  59.6181917  57.9784775  27.3892391  59.2485857  58.5578108
  27.2159279  59.9537849  57.2297907  52.3555756   7.5403970  19.1100585
  53.0870342   7.3101556  19.6829343  51.7565012   8.0316472  19.6722102
   1.0809267  19.6042252  55.6043434   0.5696142  19.6833992  56.4096498
   0.6679237  20.2181363  54.9970722  13.5648636  55.5445804  18.0559463
  13.2428555  54.6769585  18.3004350  13.2149271  55.6910480  17.1771259
  72.3812580   3.7137005  30.6214046  71.6903830   3.5441628  31.2618589
  72.9086018   4.4081923  31.0161448  13.8000445  48.3463169   1.8198747
  13.1227688  47.6940633   1.6407318  13.3344750  49.1826488   1.8147344
  69.2688675   5.9645673  17.0732899  68.9585514   6.8398830  16.8414182
  68.9663239   5.8334324  17.9718990   4.0750873  29.4317961  52.7139616
   3.6302841  30.2225113  53.0191708   4.7636783  29.7537518  52.1322250
  12.1896637  39.5070314  49.7920084  11.9079578  40.0827694  49.0810919
  12.0487869  40.0213957  50.5868769  67.2183275  55.9141493  37.1548748
  66.9100618  55.2945852  37.8161955  67.7508783  55.3851891  36.5608883
  59.9302197  13.9678717  54.7295332  60.8399916  14.0373719  54.4402075
  59.9603176  14.1689968  55.6648827  61.4288664  16.8469906  56.3579750
  60.9911013  16.6892886  55.5214787  62.3460484  16.6281486  56.1933136
   0.5840290  27.4172211  17.7883101  -0.1464331  27.2280312  17.1993566
   0.8526600  28.3067822  17.5586402  62.9745189  54.6833350  32.2940988
  63.5569159  54.7309567  31.5359564  62.0956127  54.6336938  31.9182081
  35.6471189  66.9603626  44.2301273  34.7504934  67.2202049  44.4417286
  35.8000072  66.1762385  44.7573900  17.9971493  31.0746980  56.8689919
  18.9533603  31.0964274  56.9066572  17.7323520  31.9880986  56.9776964
  43.9691973   0.3385919  55.6606627  43.0219507   0.4695734  55.7029867
  44.0741539  -0.5207575  55.2523327  28.2917881  44.6713305  59.1485405
  27.7056360  44.7979927  58.4024763  27.8655910  45.1349688  59.8693895
  34.2314005  24.1676235  44.9717951  35.0960493  24.1343164  45.3810692
  34.0391803  25.1020718  44.8937702  56.8423891   2.8209165  55.4823828
  57.3361111   2.5890732  56.2689686  55.9419870   2.5632182  55.6801271
  12.6210773  26.8567848  58.3224154  11.6954601  26.6207051  58.2613134
  13.0883968  26.0363650  58.1650877  48.5176277   2.8089434  55.2471876
  49.0156460   2.4946044  54.4926023  47.9179239   3.4605002  54.8837900
  72.3496675  39.8664308  47.5173092  73.1804085  39.4772029  47.7904606
  72.5888586  40.4759884  46.8191290  51.1202320  65.8351474  51.9911385
  51.1268982  66.2109123  51.1108065  52.0135006  65.5173375  52.1226740
  49.3977531  65.5039279  54.1006136  49.2339548  66.3858671  54.4346571
  49.7354015  65.6418838  53.2156324  64.3929005  40.2166080  36.0299444
  64.2227459  39.9221611  36.9246960  64.4512510  39.4092202  35.5191135
   0.8612049  28.8761091  21.2646055   1.2241447  28.7538004  22.1418452
   0.2493322  29.6062326  21.3582063  29.4696415   6.2989092  40.4895735
  29.1743362   7.0668811  40.0004482  30.2711761   6.0247439  40.0439119
  25.8471426  67.7430750  53.7273741  25.6607088  67.3079573  54.5593309
  26.7046913  67.4062283  53.4678078  62.0042133   5.6239486  54.1113663
  61.2461329   5.1635057  54.4712782  61.7581415   5.8204365  53.2074451
  74.2183971  11.7030227  41.8402910  74.5664644  10.9891498  42.3745775
  73.3067369  11.4594710  41.6796970  74.3599415   5.2347445  28.1815648
  75.2506828   4.9191782  28.3339691  73.8014317   4.6046132  28.6367941
  51.3188267  37.3125410  47.4178314  50.5372477  37.1751595  47.9530811
  51.0154772  37.8465199  46.6836119  22.4262989   0.6376709  48.2862902
  23.1194961   1.2115418  48.6124611  22.7070606   0.4015313  47.4021864
   0.1981628  54.0724134  21.5414810   0.6150282  54.0924358  22.4029064
   0.3243625  54.9552393  21.1937451  28.2272691  29.9206568   5.3030319
  27.9664633  30.7116981   5.7746906  28.6122558  29.3574323   5.9744425
  43.8370482  62.0118560  27.7236719  44.1712061  61.1734809  27.4047632
  43.3775941  62.3878015  26.9728060   4.4016084  64.6877050  56.2263918
   4.5910051  65.4368687  55.6614923   3.4948477  64.8196316  56.5031815
  58.3749290  20.3778907  11.3950605  58.6263127  21.2447521  11.0763283
  58.1922658  19.8746368  10.6015892  64.4778211   4.7450849  20.1521654
  64.5989890   5.0574800  19.2555303  63.8866944   3.9970180  20.0673456
  41.3187233  56.6783680   0.5157060  40.9499005  55.7951201   0.5243654
  40.6371096  57.2186388   0.1160307   7.8927797  23.6660075  42.4116516
   7.7215236  24.3516016  43.0572987   7.0830882  23.6068988  41.9045639
  18.1381033  37.2297916   0.1393814  18.3329485  36.3152234   0.3439112
  18.7942783  37.7290083   0.6256456  63.4438816  68.6253370  14.7081728
  63.6444393  69.5611061  14.6896381  64.2536179  68.2127465  15.0087185
  16.7273281  66.0590328  28.4241075  17.1785752  66.7227758  27.9025240
  17.3574153  65.3421010  28.4964437  23.3772488   8.3065292  14.6564073
  22.6395579   8.6034509  15.1892109  23.7547465   9.1109296  14.3005056
  43.6008549   7.3299581  50.9697676  43.5535526   7.2934341  51.9251013
  42.6972866   7.4780411  50.6907129  52.8735081  24.2001666   0.7853813
  52.2042242  24.2938746   1.4632530  53.6154190  23.7962259   1.2355251
  47.8890840  59.2038478  25.6109209  48.7625042  59.3016876  25.2317114
  47.4151698  58.6583294  24.9831838  66.7471964   9.1117260  13.6618967
  67.6217110   9.5000383  13.6877556  66.8206627   8.3980676  13.0282326
  36.2403265  66.3351263   7.2611399  35.6566874  66.5279259   6.5273685
  35.7343916  65.7465447   7.8213472  54.1565338  59.8603286  38.0686064
  53.7709276  60.3692235  37.3554678  54.5879093  60.5117000  38.6216516
   8.1234403   4.4639918  40.5401201   8.5620494   4.0337488  39.8061342
   8.5556384   4.1108271  41.3177557  45.9722678  55.3668608  23.8298483
  46.1346046  54.9431254  22.9870386  46.8367306  55.4318584  24.2356939
  62.3464210  16.9346639  38.7271662  61.5077646  17.1639511  38.3267755
  62.9555900  17.5984975  38.4039469  10.2003522   6.4239093  18.4255476
  10.4308601   6.5701791  19.3429918   9.3849535   5.9237549  18.4602661
  61.0955436  19.8989460  20.9062452  62.0439549  19.9041340  21.0355539
  60.8493586  20.8239338  20.9017820  18.9515038  17.3244497   2.0256347
  19.5118447  18.0367443   2.3336668  18.3383150  17.1738550   2.7450485
  60.3554741  56.3371242   0.6978149  60.3354756  55.9491505   1.5726347
  61.0117093  55.8260621   0.2241010   3.4300156  24.2054102  34.9223299
   3.4377094  23.5382959  34.2359419   3.9813300  23.8422844  35.6154508
  47.2626511  61.5769423  14.8204918  46.4140526  61.6276707  15.2604265
  47.7555720  60.9296955  15.3248043  61.2644096  15.4861709  33.7738485
  61.2249584  16.4216253  33.9728422  60.5421610  15.3406212  33.1627817
  11.9809866  17.9383636  58.3253908  12.7498555  18.3726048  58.6948633
  11.4436424  18.6528552  57.9833508  14.6394447  27.6877416   1.9758720
  14.3771449  27.7343626   1.0564966  14.0555207  28.3004655   2.4229021
  32.3987410  54.0741826  14.7421617  33.0427698  53.3737530  14.8463602
  31.5730623  53.6852123  15.0305862  53.4234117  11.5511295  29.7582407
  53.2002316  12.4496528  30.0013037  53.1094722  11.4614078  28.8584490
  21.8675379  67.9173507   3.0821342  21.2451605  67.9880966   3.8059254
  21.5252976  68.5102667   2.4131412  65.5301634  65.8676876  58.1932897
  65.1116387  66.5739788  57.7011366  65.6645218  65.1732792  57.5483293
  48.5622708  46.1629285  10.7574911  47.9808585  46.5756191  10.1188345
  48.2593528  46.4909328  11.6041822   7.9851194  15.6906101  17.3183079
   7.3349281  15.8122703  18.0101747   7.4684282  15.5082819  16.5334387
  54.7911350  54.7165085   5.4641075  54.3518153  54.2566205   4.7487564
  54.5176116  55.6285585   5.3662367  28.9772499  64.1974844  19.9320288
  28.2107375  63.9626373  20.4550333  29.5789335  63.4616674  20.0450868
  54.8291746  36.7022800  12.6112385  53.9499799  36.4663125  12.9071588
  54.9512712  36.2048517  11.8026085  50.3802053  58.0659951   0.5035944
  49.4445721  58.2679857   0.5083055  50.7787339  58.7648858   1.0222072
  54.6212959   0.4119938  60.7124615  53.9640570   0.4141049  61.4083481
  54.2839098   1.0283838  60.0624895  14.8369856  16.6943809  15.8789272
  15.5872555  16.2802145  16.3052959  14.2541261  16.9338295  16.5994615
  15.8626099  11.8561527   2.7759809  15.7498522  11.6686985   1.8441124
  15.5787297  11.0556480   3.2173796  56.1241070  41.9292362  12.9762096
  55.6931988  42.7706028  13.1267137  56.7028681  41.8182398  13.7304993
  36.0289545  38.7974998   4.0930528  36.1977168  38.2357856   4.8495073
  36.0208912  38.1981727   3.3467455  11.8686457  13.7673113  16.8495245
  12.4954410  14.0521928  17.5145073  12.2485323  14.0602323  16.0212011
  37.6594229   7.4495289  20.8762808  37.5961311   8.0470392  21.6213960
  38.3781738   6.8593809  21.1028833  20.7775612  62.2511121  14.7540874
  20.3798933  63.0140230  15.1736851  21.6150589  62.5714132  14.4190616
  69.8340125  23.9087888   5.9069986  70.3487499  23.2200452   6.3276071
  70.3718860  24.1921302   5.1676483  30.4731631  66.6990280  41.5164232
  30.1393461  67.0022631  40.6721210  30.6043744  67.5000334  42.0237684
  28.9715453  21.9862672  18.3666820  28.3817835  22.6219913  18.7719698
  28.3903237  21.3744136  17.9149694  68.9769757  61.5019703  53.0526829
  69.4764316  61.1111736  53.7696600  68.0887633  61.1641550  53.1675339
  60.0883813  10.0056907   2.5761957  61.0102804  10.1434633   2.7938051
  59.6602477   9.8710701   3.4216566  48.4889936  47.7612925  54.8578835
  47.8347063  47.5340033  55.5185509  49.3288565  47.6381826  55.3002691
  66.1594645  70.0998081  43.8429708  67.0448271  70.0880588  43.4793444
  66.2204615  70.6781257  44.6032781  35.3181863  42.6890898  58.0636644
  35.0636959  43.0743456  58.9021444  34.5389533  42.7747107  57.5143909
  35.5312109  68.8535213  19.4124830  35.7787251  67.9746723  19.1250956
  35.8830142  68.9232588  20.2999520   1.5436025   9.1656706  18.5295362
   1.1450596   9.4922706  17.7228613   2.2347255   9.7974607  18.7280865
  32.7705769   4.2862065  54.3409491  32.2404865   4.6291049  55.0604343
  32.3059467   4.5592196  53.5498667  45.8686514  19.3427774  14.1136617
  46.6962214  19.4481918  13.6443538  45.9103175  19.9870369  14.8203583
  19.9303401  56.6866446  41.2000799  19.5325208  55.9840918  41.7142725
  20.7438803  56.3082457  40.8666182  11.7816539   5.3324768  13.6285086
  12.3694249   5.8616659  13.0893249  11.2345477   5.9717962  14.0847702
  41.0649586  14.3707621  52.8250170  40.4559994  14.5908213  52.1200562
  40.7027769  13.5750163  53.2146883  14.3426561  51.4410782  59.2745018
  13.7661314  51.3143873  58.5209751  14.2162704  52.3572063  59.5214176
  21.8349409  64.1758585  59.0524387  21.5961862  65.0836086  58.8647795
  21.0003495  63.7387705  59.2216682  63.6570266  48.6232067   9.5735330
  62.7401355  48.4308113   9.7698231  63.9847497  49.0568556  10.3614254
  34.0132065  15.7723209   1.1769266  33.6017056  15.6887266   2.0371075
  33.3027096  15.6146404   0.5551834  63.9339820  57.1650757   1.5239830
  63.6273829  56.6218985   0.7979078  63.4372321  56.8552579   2.2812719
  62.9605217  29.6168443  28.5295076  62.5769849  30.3044387  29.0738840
  62.2355254  29.0164396  28.3559389  23.8631792   4.2524573  38.7037630
  24.5741959   3.6314842  38.5453958  24.2643137   5.1126310  38.5795564
  11.3873477  36.6202518  29.2392702  11.7082973  37.3908779  28.7709112
  10.4469128  36.6063520  29.0614481  14.7447741  34.6628976  52.0308590
  14.3648875  33.9202619  51.5613842  13.9940119  35.1052022  52.4270344
  16.3318797   6.6778776  36.2818785  16.1708422   5.8825657  36.7895956
  15.7462283   7.3301431  36.6663141  17.0124769  59.5392704  55.1543570
  16.2478030  59.3867397  55.7095480  16.7101407  60.1661921  54.4972467
  15.1551791   5.3895017   8.8051767  15.3853054   4.8623583   8.0400677
  15.9295340   5.3480074   9.3663187  46.8603611  11.7325783  58.6722469
  46.9009447  10.7909954  58.8395977  46.0875273  12.0282745  59.1534185
  51.7749754  63.8987101  22.5628824  51.0068003  63.6693992  22.0398588
  51.7002026  63.3570374  23.3485288  72.8536875  17.4364540  21.9493837
  73.5821898  17.9657432  22.2739858  73.2723267  16.6899416  21.5207929
  24.8869868   8.8225767  17.3800297  25.6556673   9.1688797  16.9267769
  25.2456303   8.3352157  18.1217069  19.5927449  19.2514726  37.9282541
  19.0579529  19.1599247  37.1396799  20.4428978  19.5524379  37.6074858
  23.8896103  33.8228294  25.8643312  22.9973860  33.9753791  26.1756105
  23.7790318  33.3206054  25.0570078  55.9617598   4.3845555   3.1373997
  55.7546450   5.2205679   2.7197666  55.8452983   4.5489308   4.0731592
  15.0667997   1.7847821   7.5473375  15.9274550   1.3664791   7.5702972
  14.7915192   1.8167636   8.4635420  32.8824778  19.9974081   5.3238411
  32.7612849  19.7758600   4.4005508  33.0882616  19.1630193   5.7453556
  70.5960209  10.6612417   9.9390478  70.1882227  11.1306974  10.6667442
  69.8983820  10.1055881   9.5915146  19.5306893  39.5036337  15.0427217
  19.5056410  40.3672334  14.6306486  18.6386605  39.3639442  15.3605432
  16.8887568  22.6612759  49.6601105  17.7224255  22.7905989  50.1123285
  17.1305323  22.5412059  48.7417650  63.5052164   7.2607681  27.4272890
  63.3388872   6.4692327  26.9154043  63.8319130   7.8946754  26.7888040
  22.7190609  18.4527609  11.5953893  23.0098029  17.6648208  11.1361999
  22.3335762  18.1274006  12.4088878  15.3613873  18.3511802   5.4913778
  15.3201695  18.0656788   6.4040775  14.9777980  17.6272413   4.9964065
  46.6303603  54.2531897  18.3313722  46.9380108  54.2574896  17.4249716
  46.8677727  53.3863796  18.6607761  25.8436747  16.5087387  18.9823694
  25.9161015  15.6573698  19.4138307  24.9084731  16.6081592  18.8041849
  29.1734953  42.4593326  17.1746654  29.5912190  41.8488237  16.5671987
  29.5990439  42.2897503  18.0151338   5.8726172  68.8564338   2.2036857
   5.6796984  68.2500233   1.4886446   5.1294140  69.4595803   2.2133131
  12.5217410  21.6661140  28.6928434  11.8373771  22.2746488  28.4143419
  12.4850698  21.6857883  29.6491403  29.3904018  66.2809038  56.7805386
  28.7378192  65.6714916  56.4356041  29.4569755  66.9636631  56.1129761
   0.6834217  21.1755535  25.6143827   0.1112218  20.5649969  26.0791750
   0.4458423  22.0362684  25.9592886  63.0046336  63.7453069  27.7671404
  63.2893578  64.5987762  27.4404020  62.3991004  63.9513172  28.4792585
  66.3000102  53.1950781  28.3653326  67.0368619  53.5821268  27.8926058
  65.8223732  52.6995489  27.7000875   6.3559552  23.7012407   9.1069670
   5.4875584  24.0389320   8.8876886   6.2500449  23.3143112   9.9760456
  68.7547731   9.3410289  58.9506054  67.9595661   9.8531884  59.0974760
  68.4672546   8.4299612  59.0099525   9.7275537  66.9903898  40.0271225
   8.9590502  67.0554447  40.5940437   9.6713495  67.7582741  39.4584179
  59.5861927  68.2378377   8.5303993  60.2535430  68.4215320   9.1915579
  59.9444524  67.5083412   8.0247135  67.1000333  15.0484058   5.3119058
  67.9610152  14.8040649   4.9724312  66.9883723  15.9613916   5.0469179
   6.3256522  18.1612083   0.9683819   6.7858453  18.6692306   1.6364832
   6.7162867  17.2888395   1.0195083   5.7529207  29.5768854  18.8003177
   5.1554675  28.9268419  19.1700811   6.4642520  29.0603563  18.4215851
  35.8806248   5.5962869   2.5900192  35.2252360   4.9792549   2.9155464
  35.4059906   6.4221355   2.4955387   4.2151932  13.7295850  54.3405390
   4.9890284  14.0189107  53.8571119   4.3720774  12.8006490  54.5099497
  39.1014925  69.0586294  24.3671293  39.9891225  68.9014210  24.0452165
  38.5665706  68.3980931  23.9269228  53.2864562  63.9759864  28.2264585
  53.3839456  64.5677389  27.4804277  53.9415256  64.2754330  28.8568945
  60.0857178  58.2453407  21.5643854  60.9631459  57.9228414  21.7701692
  59.5349280  57.9086722  22.2711534   9.2305179  38.0941555  10.7117863
   9.4377060  37.2379514  11.0862512  10.0117798  38.3327648  10.2128668
  66.0452048  10.5869801  59.0505648  65.4018370  10.3465684  59.7172832
  65.7797924  10.0953706  58.2733202  41.2132016  58.8599099  27.0960970
  42.0066038  58.5321440  26.6726370  40.4962245  58.4719361  26.5944452
  14.2612004  60.2967405  59.3950939  13.3787811  60.4855156  59.0758228
  14.1259074  59.9213743  60.2651644  13.6168404   7.0205375  12.1634598
  14.5657607   7.1368524  12.1159954  13.3791418   6.6431019  11.3165397
   4.3767352  16.3755294  14.8367710   5.0081630  17.0733949  15.0114555
   3.6579104  16.5449783  15.4457159  30.3694077  33.2419798   4.9623937
  29.7594281  32.8721592   4.3241234  29.8395892  33.8538667   5.4733867
  35.4070349   7.5103876   8.4873266  36.2421580   7.9001304   8.7459774
  35.0214453   7.2037384   9.3080063  58.8927126  41.3612986  58.2600212
  59.4555616  40.5918837  58.1738329  58.0755329  41.1096764  57.8297520
  55.1717583  64.3985452  12.5254745  54.8666445  63.6034454  12.0884914
  55.6003109  64.9026073  11.8337412   3.2275633  41.3626362  14.1352291
   3.5339645  41.0158993  13.2973022   4.0086416  41.7430426  14.5370312
  15.6925030   2.7892014   3.5266943  15.1622553   3.4928486   3.1525965
  15.1192303   2.0228264   3.5106010  42.1059350  67.3131193  34.8578806
  42.3880354  67.4052061  35.7679243  41.1978082  67.0164956  34.9174852
  66.5610424  68.2780589  30.8901281  67.1758095  68.7526788  31.4496202
  65.7059161  68.6518611  31.1028738  56.9043866  38.0843361   5.2522154
  57.4728528  38.8205744   5.4781122  57.4601022  37.5032010   4.7328920
  38.8197255   9.1054344  52.1514845  39.4927549   9.6205658  52.5963497
  38.6125088   8.4009099  52.7654362  68.9707012  11.9569608  20.3833933
  68.1234582  11.5902111  20.1306028  69.2937346  11.3666174  21.0641165
   5.6516413  62.4696030  19.3921728   5.9094814  62.8377165  20.2372999
   5.6125979  61.5253462  19.5441027  14.5887125  38.6541557  52.5224590
  14.2889130  38.6678028  53.4313965  14.0477192  37.9858565  52.1018267
  65.5351515   2.0989033   9.9416418  65.4044111   1.3644811   9.3418426
  64.7836537   2.6712152   9.7869129  41.0117165  42.2394998   2.4247475
  40.3623740  42.7235080   1.9145269  40.7702175  41.3204510   2.3096008
   4.8290352  16.8352349  50.5060291   4.6079306  17.7200730  50.2155113
   4.0952162  16.5756829  51.0631418  20.8845921  25.3572580   3.2261867
  21.4932843  25.3145000   2.4886961  20.1897450  24.7392103   2.9993982
  62.6691909   1.8684694   4.7097893  63.5222168   2.3016402   4.6790953
  62.8151150   1.0219261   4.2875261   5.4764028   0.6814953   7.0340319
   5.4916568  -0.0874546   6.4641924   4.5492812   0.9088108   7.1047945
  23.1210208  57.8888559  46.9860315  23.7067747  58.6158419  47.1972609
  22.5016928  57.8606081  47.7153206  62.1067929  34.6731091  43.7117577
  63.0618632  34.6340609  43.6612844  61.8381369  33.7682009  43.8704872
   8.9702181  29.4387640   2.6309843   8.1838635  29.9385889   2.4117727
   9.6892778  29.9463476   2.2547598  17.2362252  35.6499073   7.6687116
  17.9329605  35.8459446   7.0423288  17.2117062  34.6938345   7.7082271
  71.9172771   6.7731163   6.2976188  71.7217620   6.8553373   7.2310276
  72.5332148   7.4835703   6.1184378  64.4001579  63.3406925  40.6387234
  64.9952078  62.6522160  40.9356308  64.9438763  63.9078236  40.0919437
  15.7937928  41.1836025   7.4847908  15.4410096  41.2279483   8.3735008
  16.3997193  40.4428550   7.5043077  51.8873453  30.1904464  50.4934216
  52.2553682  29.4460082  50.0173950  52.6435518  30.6096601  50.9040833
   9.9621201  28.3399010  49.5136547   9.0229446  28.2202148  49.6545696
  10.3706968  27.6264477  50.0038433  62.2996298  64.3450869  35.5469198
  62.1606389  64.0532626  34.6459455  61.4468495  64.2368926  35.9679766
  70.1735146  18.5053703  35.9595747  69.4528647  18.0545446  36.3996382
  70.9533222  18.2468912  36.4508123  23.2039900  66.9946787  23.3233328
  22.2871132  67.1256277  23.5650415  23.5837527  67.8731748  23.3394403
  20.4910918   0.9324905  29.6791334  21.1348553   0.7592079  28.9922781
  19.6509047   0.6992313  29.2842836  15.2836724   5.4344007  14.4363661
  14.9821349   6.1837074  14.9500294  14.9372383   4.6716210  14.8993749
  70.1906887  51.5789927  28.3189840  69.6951262  51.3742794  27.5260515
  71.1062208  51.5628423  28.0401010  55.2171961   6.4640649  51.7293024
  55.1322047   5.6689484  52.2554207  55.9063951   6.2603743  51.0970497
   1.8165059  31.7613289  29.4799871   2.0295306  30.8367035  29.6061487
   2.5911541  32.2301122  29.7904558   5.2024996  59.9533558  53.0906153
   4.6526679  60.7368755  53.0941677   5.4257387  59.8215866  52.1691895
  58.6545916   3.8007971   4.1371174  58.8924540   3.0204961   4.6379013
  57.7894790   3.6012789   3.7793417  27.6565714  13.4497902  46.6817541
  27.9500599  13.7208769  45.8119173  28.4501524  13.1358644  47.1152372
   6.9786210  15.9636709   3.1369562   6.7683120  16.6748115   3.7421675
   6.2917467  15.3133413   3.2836122  23.0023833  10.9902069  17.9310818
  23.5811730  11.5941974  18.3962984  23.4866543  10.1648924  17.9072733
  35.4299974  68.8198900  55.7847595  35.8527327  69.2005157  56.5545988
  34.4955945  68.9741373  55.9237957  16.3746820  66.0825671  12.6389141
  17.3235700  66.0425485  12.5195808  16.2373880  66.8333305  13.2166166
   9.6694225  15.9385788  36.3627028   9.9862242  16.3489258  37.1673679
  10.2389848  15.1789737  36.2409163  69.0060539   9.3570539  17.4519844
  68.2524653   9.2463705  18.0317087  68.8790293  10.2191993  17.0559997
  42.4664580  41.4378176  12.4259033  42.9046237  40.9014044  11.7652168
  42.1411454  42.1964369  11.9412365  16.8780013  12.2238132   6.9567413
  17.1041222  12.5935241   6.1032696  17.6428147  11.7033502   7.2025366
  47.6259486  27.8748544  48.0349970  47.4006311  28.5778935  47.4257326
  46.9278375  27.2293408  47.9246044  32.4406099  56.7239714  58.4887362
  32.2114754  56.6859436  59.4173241  32.7796006  55.8512068  58.2897472
  21.7059346   9.3214294   2.3428411  20.8855219   9.0055963   2.7215309
  22.1330805   8.5338422   2.0059652  64.6590376   8.7204194  45.2077723
  64.9033689   9.0185934  44.3316317  65.0560141   7.8528404  45.2848911
  44.0146366  65.7202042   4.9576778  43.9065472  66.2961425   5.7145424
  44.9581829  65.5677952   4.9054975   6.1221381  18.2954380  15.7611723
   6.2720175  19.1562196  15.3702516   5.4121776  18.4370968  16.3873691
  59.6155453  38.3807278  59.5158291  60.0788641  39.0647960  59.9991703
  59.5196056  37.6659012  60.1451540  38.9977999   8.1434652   3.2900352
  38.3114787   8.1347438   2.6228638  38.9290495   7.2888157   3.7155647
  56.2506468  30.1830932  13.7595196  56.1676915  31.1314937  13.6601085
  56.4507945  29.8665306  12.8786344   5.0811867  69.0953554  11.1986751
   5.9130386  69.2018284  11.6601057   4.7062306  69.9757327  11.1746473
   6.8131832  52.1951558  13.4812994   5.8987073  52.2026886  13.7639828
   7.2280935  51.5297629  14.0302391  45.7926989  52.9079866  60.5666590
  45.6049395  53.0454350  61.4951420  46.6401243  53.3310795  60.4284716
   1.2152580  46.6075028  12.5001497   0.7485012  45.7994880  12.7134104
   1.5843395  46.4487304  11.6313572  64.9939410  68.1854309   1.0154219
  65.9218899  68.4173406   0.9785576  64.5463482  68.9215220   0.5982132
  65.0070853  27.6798650  19.6007795  64.8234697  28.3356449  20.2734442
  64.5659108  28.0097028  18.8179655  19.2169447  17.7794239   8.0509777
  20.0853510  18.1820413   8.0497141  19.0900679  17.4864885   8.9533777
  51.9081737   5.8447334  16.9989128  51.8440203   6.1918613  17.8886432
  52.2709887   6.5666982  16.4857216  22.2863169   3.4413525  43.4308977
  22.2696276   3.2597038  42.4912424  22.2314568   4.3950578  43.4914942
  26.8961258  30.0120279  15.3779478  26.3277550  30.0118181  14.6077604
  27.7839442  29.9976894  15.0204439  58.3246080  67.4993409  19.2054338
  57.5529066  67.1693386  18.7452144  58.8905135  66.7336239  19.3037386
  22.0578694  68.4267187  47.7701807  22.9099917  68.6585188  48.1394911
  21.8230152  67.6072836  48.2056189   9.2424126   6.3197920  14.7617884
   9.0235587   5.5501482  15.2871342   8.6748333   7.0113632  15.1021070
  19.0614005  17.9350921  50.5922861  19.0505667  17.6217624  51.4966841
  19.2682667  18.8669082  50.6640978  67.4347079  62.4713945  37.2773194
  67.8282028  62.2314787  38.1162667  66.4922911  62.3864794  37.4217892
  20.6741496  46.5048238  25.1951380  19.8056908  46.9069120  25.2133531
  20.8758564  46.3286802  26.1141176  73.0065782  13.1231329   5.2828426
  72.3442395  12.4534246   5.4532213  72.9847152  13.2456276   4.3337650
  55.8684317  58.5882510  23.0582304  55.6230346  58.1952108  22.2206564
  55.1642219  59.2084016  23.2472677  67.2827498  57.2898735  24.2329569
  67.9321305  56.5924372  24.3230886  66.4920203  56.9348325  24.6390695
   8.8731571  33.3600113  21.1262483   9.0333529  34.2667934  21.3876314
   8.9123364  33.3759138  20.1699800  52.7057639  58.0058802   9.9129457
  53.5809532  57.6405848   9.7832031  52.4065081  57.6235188  10.7378597
  66.9784752  24.7767384  60.3083038  66.8689791  24.3864281  59.4411802
  67.3071638  24.0616067  60.8530855  31.7692490  47.0347425   4.7479362
  31.2928696  47.1704885   5.5669994  31.2284108  47.4606725   4.0828771
  36.1029434  66.5215826  48.5004139  35.4885221  65.8340693  48.7574005
  36.8569660  66.3965797  49.0766573  12.9062800  67.7980365  19.3741579
  13.1475643  68.6270656  19.7873564  12.4755529  67.3004378  20.0692148
  29.6296930  57.6292753  55.0171661  30.1630497  57.5097322  54.2313719
  30.2467322  57.9375505  55.6808424  55.6654302  23.2717641  60.5089426
  55.8264939  24.0511258  61.0408068  54.9868337  23.5404618  59.8896456
   7.5861926  15.2147171   9.4453640   8.4760471  15.3536293   9.7695513
   7.6391287  14.4031402   8.9406223  42.8917722   6.0657294  37.4855900
  43.5283307   6.7767222  37.5598669  43.0530397   5.5185921  38.2542634
  62.1839030  10.5398103  11.7550917  61.6916068  10.6884548  10.9477634
  61.9482525  11.2769004  12.3184748  46.5858765  10.9846660   8.6620922
  46.6878291  11.5158340   7.8723450  45.8447285  10.4100963   8.4702654
  53.1000519  45.1282215  48.0216455  52.5602007  44.4330788  47.6453972
  53.9656544  44.9948454  47.6354218   3.4165561  69.5065403  55.8362341
   2.9847086  70.3590631  55.7819986   4.3516672  69.7100639  55.8167410
  66.8695942  62.1821464  16.4063425  67.3043743  61.3922848  16.0849161
  67.4243752  62.9010047  16.1035366  31.8078823   0.3880855  52.0415754
  31.6983195  -0.4450324  51.5831632  31.4447661   1.0405537  51.4426870
  29.1561289  12.9863712   9.2577810  29.4576569  13.7542984   8.7723894
  29.6877594  12.2655937   8.9200325  24.5458002  35.0122568   4.4756431
  23.7894555  35.3833791   4.0212841  24.7267266  34.1949340   4.0114422
  11.0826774  31.2396738   1.6012878  10.8689495  32.1599933   1.4477987
  11.6340418  30.9946748   0.8581848  34.1108517   8.5359938  23.3413434
  33.9224533   9.3909629  22.9543424  35.0663475   8.4975846  23.3837390
   2.9110022   1.8208238  32.4687071   3.2741709   2.7057954  32.4346037
   2.3047181   1.8391010  33.2091875  57.3785631   1.6619857  27.4950647
  58.2885829   1.9497998  27.5675750  56.8842665   2.4670871  27.3410892
  36.8352528  41.5375969  13.7924070  36.5341540  42.1203109  14.4895572
  36.0958929  41.4869043  13.1865997  68.6139345  38.0901670  61.0290766
  68.2656097  37.4409699  60.4179716  69.5358992  38.1767368  60.7867527
   1.5716310  24.7468874  17.5591583   0.8855768  24.2997858  18.0548019
   1.3574667  25.6764290  17.6386757   9.2216639  14.1365559  25.7664275
   8.9642910  13.2434876  25.5374789   8.7472252  14.6892102  25.1453686
  42.0816469  30.8280063  55.0356865  41.3171148  31.1897516  55.4838657
  41.9857645  29.8798990  55.1258516   2.5797152  21.8896441  28.1861181
   3.5026353  21.6394476  28.2291288   2.4078227  22.0113711  27.2523851
   7.8047645  34.6037769  54.1072512   7.3987377  35.4493999  54.2977524
   7.7656353  34.5286632  53.1538057  38.6333799  15.3978550  59.9362898
  38.5486817  14.5107758  60.2857876  39.5157814  15.6709528  60.1873255
  29.0083821  18.4581348  16.5883512  28.7242372  17.9833481  15.8072824
  29.9620350  18.3758661  16.5849514   2.5972927  54.8320866  46.8795347
   1.7187345  54.7653818  47.2535992   3.1542051  54.3465328  47.4880743
  12.7777048  34.0835783  43.0166025  11.9001193  34.4130441  42.8228826
  13.0812760  33.7099001  42.1892900  55.9932925  18.9529535  14.9649830
  56.4216436  18.8062784  15.8083267  55.3319283  19.6210357  15.1452465
  14.6023460  61.1869070  -0.1614218  14.5725675  61.4966699   0.7437820
  15.3446694  60.5830118  -0.1836138  58.7265874  17.4040672  35.4415483
  57.7973135  17.3805210  35.6698675  58.7413408  17.6840231  34.5263262
  18.6215019  64.5034933  43.7873936  18.5742068  65.3071451  43.2695770
  17.7569532  64.1044283  43.6897516  65.7423587  38.5771581  11.1086149
  64.9865027  38.2631895  11.6049404  66.2149282  37.7817413  10.8632107
  70.1244767  11.7131206   5.9114332  69.5562585  12.3870536   6.2845011
  69.5375509  11.1683628   5.3870458  68.9710966  50.9729673  23.1475134
  68.2530991  50.6077696  22.6304598  69.6608034  51.1502839  22.5079031
  36.2322779   1.7829057  22.4029131  36.1183186   2.2853610  23.2096262
  35.3411265   1.6245505  22.0914621  42.5364494  52.2192478  58.2568169
  43.2961273  52.7889824  58.1362724  41.8002272  52.8213644  58.3648157
  45.0432301  68.7531614  54.1827106  44.4022942  69.3061638  54.6295071
  44.5837164  67.9269171  54.0330553  19.6956273  24.4383690  27.1196432
  19.8043890  25.1533100  26.4925356  18.7482138  24.3175718  27.1832056
  28.3237858  14.5458910  17.0039863  28.8361903  13.7472030  17.1295614
  28.4849234  15.0606414  17.7947492  46.3361168  22.5879383  56.5805960
  46.6866255  23.3180428  56.0703802  45.9822607  21.9861555  55.9257126
  71.0930522  49.3276140  11.8822212  70.8824451  49.5814630  12.7807970
  72.0492394  49.3506262  11.8446941  39.1133221  55.0219183  51.4094162
  38.6154648  54.7650151  52.1855450  39.9262591  55.3887920  51.7569351
   8.5556084  34.3525410  44.4875097   7.9671890  35.0157309  44.8483038
   9.2551368  34.2745924  45.1362133  15.9471750  17.5375628  25.0401831
  15.3878653  17.0186687  24.4621229  15.7681048  17.1963108  25.9163737
  36.9423389  17.1888602  52.6651287  37.4100614  17.2812331  53.4951544
  36.9674778  18.0636537  52.2773981   4.0170920  15.5751419  56.7053556
   3.9008129  16.4547193  56.3461113   4.2032400  15.0275815  55.9426260
  40.1614237   6.4710361  45.0516272  40.3620625   7.3521549  45.3672314
  39.3879509   6.5847927  44.4993305  43.5836009  50.8242513   6.7557926
  44.3396822  51.3041092   6.4176960  43.8067333  50.6373943   7.6676721
   9.8856288  10.8299899  33.5835075  10.1002681  11.7351985  33.3582115
   8.9601308  10.7396734  33.3565092  31.6882944  10.1417661  47.0530891
  32.1499228   9.3485355  47.3249626  31.9041395  10.2385008  46.1255741
  68.2760254  29.5770062   4.5732279  68.5883299  29.8150481   3.7002821
  68.4350888  30.3566076   5.1053495  43.7890959   7.5966829  41.9961834
  44.2999125   8.1608367  41.4156389  44.0800762   7.8331351  42.8768921
  18.2134461   7.0008636  22.1064854  18.1914485   7.8726453  21.7118406
  18.6913383   7.1214008  22.9270458  69.2472287  40.7165210  19.5128047
  69.6653326  40.2360575  18.7982571  68.3098825  40.6476133  19.3315160
  26.7169789  64.1261996  17.3259325  27.1853324  64.2026628  18.1572170
  27.4060430  64.0010823  16.6734238  39.2504235  67.6334117  54.3269634
  38.3451696  67.4028580  54.1181755  39.3984803  67.2597648  55.1956940
  43.3367201  67.9960598  41.9189930  43.8711580  67.2035949  41.9700575
  42.9283287  68.0655438  42.7819061  51.4120427  36.8367149   6.8669720
  51.0141722  36.5380370   6.0492201  52.3538772  36.7460163   6.7222137
   5.2835377  47.9780142  56.4627504   4.8685630  47.3059671  55.9220266
   5.0310310  48.8051574  56.0524988   3.2554249  59.8101081  14.4509668
   2.4479202  59.4449653  14.8126812   3.2706408  60.7145156  14.7640962
   5.2509677  20.1235223  59.1982508   6.0622662  19.9461281  58.7222719
   5.5396199  20.4208851  60.0610876   7.9971755  15.3014851  47.3000431
   8.0687100  16.0936809  46.7675591   8.7693602  15.3223121  47.8653145
  11.2432456  10.1979434  13.7225902  10.8336604  10.4401696  14.5531309
  11.6679966   9.3588489  13.9007413  12.6145566   7.8984338  40.7878733
  13.2133865   8.1608582  41.4869928  12.7925265   8.5137200  40.0765467
  67.6105316  10.3285524   7.1441383  68.0057199   9.6790764   7.7257223
  67.3486335   9.8294231   6.3705034  55.1050282  16.9484651  49.2293596
  55.1521444  17.7970243  48.7889528  54.1786432  16.7104316  49.1921759
  34.4252101  46.6546513  25.8969564  34.3309752  46.0756232  26.6533155
  35.3708760  46.7578842  25.7906980  38.6908610  14.4605467   9.3434734
  38.9504166  15.1396867   8.7208671  38.6076815  13.6682674   8.8128061
  23.3167324  44.0144373   2.4465914  23.0270397  43.7314410   1.5792818
  24.2721118  44.0246726   2.3884744  38.1829552  25.4716213  14.8943920
  38.9928547  25.6674899  15.3654880  37.6081196  26.2120683  15.0881262
  49.5726148  61.0049711  47.9408646  49.9490017  60.6560306  48.7488270
  50.2216910  61.6343753  47.6265669  72.1934482  51.9786482  56.1460781
  72.5310155  51.1994271  56.5877724  72.9713794  52.4083118  55.7904863
  40.0112581  22.8757191  59.4177580  39.4168591  23.4103537  59.9441481
  40.3286743  23.4695959  58.7374687  29.6005082   9.4727635  32.7143908
  29.9034882  10.3390241  32.4423122  29.3573999   9.5818931  33.6337519
  61.1385909  69.7839154  17.2249336  60.6597678  69.1637982  16.6750068
  60.4947344  70.0802769  17.8682442  26.8039942  16.8270576  54.8039627
  26.0128498  16.7736351  54.2677975  27.3278809  17.5130308  54.3901777
  67.8981453  19.8312211  50.9302139  67.7571094  19.4507587  50.0632715
  67.9381180  20.7747555  50.7740831  24.2941093  18.7381053  56.5810204
  24.8705149  17.9833555  56.7007828  23.9048815  18.6074030  55.7163525
  42.2996227  51.9552685   2.3550005  42.3792008  52.9068602   2.4211283
  42.0815924  51.6708971   3.2425947   6.3104852  48.7562673  35.6849933
   6.0352620  47.8981893  35.3622150   7.0935711  48.9640252  35.1752400
  70.3058719  33.4271026  17.1617532  70.0377005  33.5487866  16.2509799
  71.0332691  34.0377831  17.2808886  27.9980460  58.6947311   5.4301519
  27.4215790  58.0766262   5.8794470  28.5848189  59.0160312   6.1147661
   6.1565598  69.4026946  39.4948721   5.7224067  68.5800211  39.2691469
   6.1624440  69.4156582  40.4519653  39.5127348  28.2357968   3.3323927
  38.8232759  28.8972874   3.2748813  39.8052648  28.2732840   4.2430229
   2.0870324  12.2085878  39.9874658   1.2206312  12.4885627  40.2827520
   2.4186392  12.9500600  39.4810171  68.3689308   8.6111748  54.1168976
  69.2720842   8.3006555  54.0526628  68.4066677   9.5205593  53.8205433
  67.6028567  52.2866392  52.2253227  67.6430869  52.6743269  51.3510752
  67.7849042  53.0151033  52.8189802  39.6478561  44.0844525  -0.0027876
  39.1563062  44.6363945   0.6054659  39.2298440  43.2257666   0.0616760
  17.0986541  61.3315140  41.9763756  16.5190872  60.5760257  41.8785524
  17.1276077  61.7256479  41.1045647  46.6559458   7.9579145  42.8464460
  47.1002865   7.5080651  43.5650730  46.2116146   8.6957628  43.2640409
  60.0195948  57.3354710  10.5334730  59.9051515  56.7635526  11.2924452
  60.0523297  56.7381491   9.7862310  15.9234059  12.6532185  30.5690980
  15.8846951  13.2807744  31.2908363  15.7673228  11.8037343  30.9817076
  19.0575524   2.3441073  20.5643053  18.3625527   2.9878232  20.4270525
  19.1833468   1.9406554  19.7054453  11.3244295  19.6235371  61.2123394
  11.0922575  20.5516267  61.1811066  12.0386827  19.5339572  60.5814314
  34.0670538  23.4679437  52.9407310  34.0321922  23.9745879  53.7521076
  34.9618316  23.5870218  52.6222610  25.5375691  24.1120598   4.2502708
  24.8666974  24.4238063   4.8577041  26.0805817  24.8812315   4.0778084
  59.2807461  22.2477791   0.7856054  59.9291880  22.3775694   1.4776392
  59.7847368  22.2950527  -0.0267916  25.7972956  18.8881397  40.7101059
  26.0387444  18.1554210  41.2767220  25.8062124  19.6510088  41.2881899
  34.8525739  45.3947544  57.4241924  35.6832194  45.7778549  57.1422482
  34.7551656  44.6102810  56.8844318  59.4341671  -0.1336203  49.8288536
  60.2766680  -0.5853120  49.7798824  59.6405232   0.7801568  49.6322298
  69.4311285  52.5673056  55.4887056  70.3059340  52.5315905  55.1018333
  69.0575838  51.7030048  55.3164291  24.0339489  13.3457395  11.5652151
  24.6590395  13.1473276  10.8679886  23.7920494  14.2599317  11.4170141
  62.2405831  58.4888400   5.8623285  61.4628688  58.2823790   5.3439016
  62.9752914  58.2406081   5.3012438  42.0995617   2.4719964  58.1287289
  42.8499651   2.7724266  57.6160192  41.7586184   3.2653424  58.5417557
  54.7764383   2.5120088  28.7048502  53.8641544   2.5334331  28.4158678
  54.9222715   1.6040465  28.9704962  60.2579327  60.0385301  42.7737141
  61.0973485  59.9004154  42.3349237  59.9639519  59.1589491  43.0106640
  40.9420939  10.0458309   2.9057092  40.3136511   9.3251774   2.9498453
  41.2533350  10.0371095   2.0005627  46.0104052  59.4525207  27.5254316
  46.7235223  59.4606961  26.8869753  46.2519637  60.1244391  28.1629343
  29.2795968  13.7589049  37.9839826  28.8865089  13.6894178  37.1139908
  28.8154578  14.4858456  38.3991504  30.1450276  18.8396776  40.0248671
  31.0654998  18.9536250  40.2614594  29.9698663  19.5423400  39.3989134
  55.1535336  31.3037704   8.9760561  56.0817186  31.5363647   9.0006609
  55.1359001  30.4297037   8.5862751   5.8837275  58.3729686   7.1443863
   6.3044933  59.1705335   7.4654407   6.5706543  57.9199876   6.6553325
  40.2948479  61.7294086   1.7106552  40.9795955  61.0700406   1.8228454
  39.9531571  61.8724383   2.5932760  64.7458506  47.5865650  59.2519426
  64.7540617  46.6689205  58.9797497  64.5895529  48.0747795  58.4435797
   8.2817370  28.9860201  32.7196240   7.7751541  29.7675562  32.4987006
   7.8262526  28.2715535  32.2743130  48.7278605   7.2300023  53.4362316
  49.0842676   6.7209119  52.7081966  49.1257191   6.8433696  54.2162657
  47.7285671  29.5041919  57.2533417  48.4722900  29.1704297  57.7550554
  47.2879648  30.1080370  57.8512287  12.1919473  51.1040799  44.8803997
  12.1781405  52.0479147  45.0391960  12.5206121  50.7285564  45.6972170
  26.1461711  11.6151106  59.3425083  26.4122915  12.3897552  59.8378229
  25.5742621  11.1334836  59.9401617   8.3797497   6.5614408  30.6980348
   8.1207997   5.9140694  31.3538456   7.5538504   6.8610495  30.3180933
   9.2813448  70.4576339   7.5737400   8.9143852  69.6759476   7.9867048
   9.4289641  70.2007688   6.6635437  38.1471220  54.2641963   4.9273891
  38.8693944  54.8734106   5.0804014  38.3326677  53.8834931   4.0689821
  73.1422392  63.0131663   7.4767227  72.8981224  62.3494638   6.8316336
  73.7384764  63.5961141   7.0067139  35.9020853  14.6276176  48.6101913
  35.8020425  15.3262389  49.2568398  36.8303394  14.6478045  48.3774567
  48.6192242  49.4791855  -0.3216248  48.4585062  48.5841848  -0.0226669
  48.8681809  49.9552597   0.4705925  57.4380196  10.9981844   3.4174318
  56.7813761  11.4466926   3.9502449  57.9260196  10.4605362   4.0411444
  51.0884666   7.6353729  39.9355078  50.9088087   6.7370313  39.6581316
  50.4963398   7.7811843  40.6733131  51.2533092  15.9657049  55.5081940
  50.5617762  16.5226102  55.1505995  51.5466833  15.4403389  54.7637796
  26.4217544  12.5020218  31.2105036  25.7470942  12.4807632  30.5318189
  26.0984159  13.1367898  31.8498421  43.4272221  67.4407424   6.9423218
  43.2427946  68.3631147   6.7649956  42.9457489  67.2507109   7.7474947
   2.5753311  38.3055807   7.6438255   2.0669798  38.2612224   8.4536714
   2.3722605  39.1675375   7.2804756  16.2856408   7.1527740  11.7696543
  17.1138449   7.2568771  11.3011761  16.5027304   6.5992710  12.5198145
  25.2565833   2.4202105   1.3082905  26.1694880   2.7073285   1.2883777
  25.0888462   2.2188994   2.2289247  22.0723518  63.7026839  38.5997581
  21.2348875  63.8862984  38.1741190  22.7299246  63.9269160  37.9413128
  66.2755457  69.1232194  14.1321821  66.3738838  69.6570577  13.3437795
  66.3421503  69.7479762  14.8543138  10.9974436  53.5770596  18.1626482
  10.9604207  52.9930807  17.4051351  10.7587878  53.0218650  18.9049692
  47.3112074  68.0035819   1.4948530  48.0881063  67.6591600   1.9353409
  47.1684877  68.8607277   1.8963070  49.4571267   3.5195848  24.1556425
  49.1399702   3.0824730  23.3653421  50.2967386   3.0991146  24.3413515
  49.4526494  63.6745624  51.1057711  49.2673878  63.3420889  51.9840479
  50.0776863  64.3858580  51.2458420  39.6108456  10.0642654  15.0071115
  40.4023571  10.5046245  15.3166694  39.6478053  10.1470682  14.0542145
  37.0171261   0.4248587  55.5046844  37.5184131   1.0196967  54.9469090
  37.3525643   0.5840403  56.3869381  18.0515186  63.7659706  20.1803465
  17.8950284  63.7991990  19.2366094  17.4347339  63.1086387  20.5024118
  59.8098961  61.2287868   9.0925331  59.7277180  61.7351378   9.9006719
  59.6087138  61.8542875   8.3964701  65.6995312  63.0732931  24.5749636
  65.7855336  62.5502671  25.3720064  65.3934637  62.4529995  23.9133043
  13.6036018  59.3974675  23.6721296  14.3954376  59.1673077  23.1860704
  13.3608202  60.2614297  23.3391828  42.1067925   1.7795679  15.4100437
  42.9469247   1.3492510  15.5689068  41.4557667   1.0907671  15.5440302
  20.5549595  48.4101452  18.1305427  20.4036585  48.5908951  19.0582628
  20.2226431  49.1854836  17.6781626  21.7828564  52.1755077  47.9380865
  21.7837433  51.2196232  47.9882402  22.6170305  52.3943271  47.5227518
  33.7246958  30.7610290   1.6550512  33.1321756  30.6562544   2.3994798
  33.9356539  29.8660643   1.3890285   3.4427647  58.4184684   8.7182827
   4.0928129  58.2950891   8.0265827   3.9298348  58.8251842   9.4349260
  38.7863588  21.5566444  56.3061810  38.3066082  22.2671700  56.7318821
  39.2622495  21.1288118  57.0180225  44.1384478  13.9512750   1.7793484
  44.8215075  14.4478962   1.3287659  43.3729144  14.5255872   1.7606468
  15.0480361  23.4144279   4.3544931  15.2390643  23.7501117   5.2303142
  14.6450038  24.1527340   3.8976545  70.0618894  31.3941261   7.2050352
  69.7969885  31.2555477   8.1143493  69.2802019  31.7455122   6.7787428
   1.7226589   6.7528337  46.4720440   1.6899526   6.1092919  47.1798706
   2.6230133   7.0775312  46.4849615  44.1683538  22.0522281  14.2653341
  43.9320750  22.9797289  14.2535372  44.8582892  21.9892093  14.9258299
  74.7574965  57.1150912   7.7445574  74.1148201  57.5381984   8.3139248
  75.1022021  57.8252853   7.2032327  42.6051188  21.9457722  55.6843567
  41.9288874  22.1574116  55.0408077  43.2660580  22.6287603  55.5707026
  24.8941215  56.3877182  60.4274035  25.0182232  55.7726280  59.7045660
  24.7908291  57.2391216  60.0023460  56.0943953  66.3375820   6.3228483
  56.5291563  67.0594300   5.8688087  56.7519776  66.0098208   6.9363565
  39.4554952  46.2150468  12.9368992  39.5388428  45.2639653  13.0056591
  39.6053258  46.4022316  12.0102138  34.1592399  63.0285562   6.3946743
  33.2246325  63.2128848   6.3010568  34.3929062  63.4013261   7.2447796
  31.3905845  68.4077586  15.1886053  31.1690525  68.4645094  16.1180849
  32.2656981  68.7906827  15.1271458   0.5740360  44.0663065   3.6590977
   1.2164311  44.5422257   3.1327314   1.0698036  43.7513114   4.4148941
  26.3529110  19.1217792  58.4670544  26.5003633  18.8643658  59.3771219
  25.4758453  18.7959111  58.2650709  29.0548491   5.4701930  36.8809795
  28.2379270   5.2018881  36.4604092  29.5655656   5.8716500  36.1779618
  23.9332056   4.7197890  50.1997232  23.0824113   4.2919657  50.2963924
  24.1398263   5.0429320  51.0767174  21.9590139   0.7716999  60.8881998
  22.2223806   1.2989031  60.1339245  22.5069380   1.0897177  61.6057444
  28.7764597  38.7150478  60.9538937  28.0594230  39.3359184  61.0827684
  29.5633650  39.2595148  60.9301043   9.7523932  55.2034320   4.8987264
   9.6249251  55.2770676   3.9529152  10.6025795  55.6131877   5.0584431
  24.5883532  25.9967157  15.4962416  25.1024075  25.1914856  15.4363890
  23.6911269  25.7227775  15.3060360  18.7402090  50.6820111  48.8334608
  18.9283022  51.0832791  47.9850292  19.5953163  50.6043915  49.2565441
  71.2518040  52.3117651   8.9907188  71.0924116  53.0799033   8.4422798
  71.3671318  51.5932537   8.3688898  71.6278320  53.8866806  46.8993521
  71.1913529  54.6016026  47.3625994  71.7337179  53.2024050  47.5602484
  32.0194912  22.0323730  54.2740345  32.2655749  21.1345840  54.0512133
  32.6435137  22.5776696  53.7949944  21.7238617  21.5394807  50.1378918
  21.4480472  20.9587812  49.4287062  22.5905538  21.8469691  49.8723173
   6.2898369   4.8542997   5.7983799   6.3776346   5.6892463   5.3386135
   6.7000218   4.2155263   5.2153320  39.6877408  12.9661989  56.7779255
  40.0301933  13.8407850  56.5933800  38.8159060  12.9620671  56.3828087
   7.8856329  46.7783214  26.9444246   7.9853300  47.4712671  26.2916441
   8.7172608  46.7742850  27.4183531  61.3374329  25.0552559  42.3208475
  61.9348526  25.3604341  41.6380692  60.4846764  25.4095435  42.0688295
  12.5645336  67.6303847  59.2904282  12.3084983  67.8815468  60.1778984
  13.2512149  66.9753738  59.4155788  49.4503194  15.7241270  26.2895174
  49.1913765  15.1546785  27.0140238  48.9308964  15.4173633  25.5463285
  58.7923614  42.9995967  -0.1263838  59.1089526  43.0039240   0.7769317
  57.8404013  42.9397227  -0.0462561  13.4291931  25.7024357  28.7235040
  12.4906440  25.7119629  28.9112921  13.6730690  26.6267559  28.6746282
  62.7276198  52.9235960  11.6593666  63.2456795  53.4116436  11.0193224
  62.3078576  52.2307397  11.1494798  27.3371959   5.5671138  57.6114511
  26.5396261   5.9080780  58.0162430  27.9038048   6.3327420  57.5165796
  50.9757820  54.3328501   6.7859001  51.8442885  54.0356327   6.5146227
  51.1199585  54.7504748   7.6350374  47.6563632  35.7439017  46.1654806
  48.4100783  35.2218318  45.8905458  47.9326403  36.1489820  46.9875574
  69.7951714  49.5510794   5.6970377  70.3049294  48.7414266   5.6679840
  69.5645253  49.6558989   6.6200991  53.0125046   2.3968969  58.8018417
  52.6527405   1.5101600  58.7795401  52.4542046   2.8969300  58.2064438
  27.9496785   6.1900303  24.2784376  28.5383339   5.9047243  23.5796423
  27.7096339   7.0851347  24.0388555  57.6545492  32.5776361   7.8281326
  58.5173837  32.7120162   8.2201691  57.7872626  31.8746103   7.1922273
  45.6228534  33.7946875   1.1041231  45.9333865  34.6244222   0.7417126
  45.2882234  33.3131666   0.3475542  45.1216173  12.5242531  60.5423641
  45.5011797  12.6616251  61.4102888  44.2115355  12.2826564  60.7144547
  32.8991445  63.5886018  58.2182503  32.0565304  63.9738975  58.4586239
  32.7276930  62.6480667  58.1710434  43.0432148   4.8757812   5.1343841
  42.7603455   5.1559278   4.2639036  43.4426566   5.6559822   5.5190439
  69.2289988  53.5096206  11.5653820  68.9139859  53.1736387  12.4044962
  69.9868695  54.0484358  11.7924185  22.3691559  24.8720050  59.0009165
  22.8651357  24.2456746  59.5281219  21.5221262  24.4489241  58.8602877
  41.2506057   3.6117050  25.4725904  41.2919415   4.1427943  24.6773119
  41.8637611   4.0336057  26.0744829  67.3576466  53.8312389   7.2467918
  67.4689642  53.5310460   8.1488581  67.3954502  54.7858788   7.3056621
  25.3274225  34.6270799   8.4946699  25.3142432  33.7661554   8.0764980
  24.4587908  34.9903974   8.3222980  66.7620106  28.9676639   9.9193067
  66.4071484  28.3246681  10.5332012  66.5091379  28.6398145   9.0562887
  41.1294855   1.4762303   4.9313516  41.6429533   1.3082549   5.7215185
  41.5124436   0.9000250   4.2698641  54.8977629  44.1255124  14.0699549
  54.3608443  44.1984822  13.2808895  54.7900692  44.9678398  14.5116777
   7.4981064  27.1212673  53.7628937   7.7068740  27.1441174  52.8290176
   6.7322439  26.5502596  53.8232088   4.6341900  39.5031558   5.0737352
   4.8473267  40.4117681   4.8610706   4.6281294  39.4762038   6.0305376
  28.1512356  46.0050964  54.5240068  27.4266315  46.0129499  53.8986111
  28.9378738  46.0370207  53.9795685  62.9217497  59.0319837   0.0164528
  63.2543126  58.4592761   0.7075662  62.2269169  58.5237683  -0.4020624
  56.7771665  65.4037727  10.4416199  57.3040406  66.1059822  10.8231134
  57.4134842  64.8360504  10.0068493  34.7901297   6.2711102  54.3386126
  34.2960954   5.4726845  54.5248318  35.3086090   6.4217776  55.1289988
  11.7842440  66.1371626   0.5868931  11.6082911  66.8755401   1.1700458
  12.4356608  66.4696254  -0.0306492   4.5005719  43.0229570   3.3987923
   5.3546349  43.3666248   3.6608953   3.9344827  43.1875355   4.1529054
  19.8894048  10.6314337  40.4436016  19.5385504  10.1771212  39.6776199
  20.8365941  10.6371856  40.3056431  43.4054422  30.4067540  58.9502478
  43.1249332  31.3219070  58.9436483  42.9881096  30.0339174  59.7268200
  57.7027623  45.1328911  11.9022388  58.2276002  45.0269182  12.6956768
  58.3425013  45.3190137  11.2149830  19.1093302  42.8883028  57.7451992
  19.0906668  41.9630384  57.5007153  18.2191765  43.1981373  57.5782919
   6.0240002   5.1964733  24.0908403   6.6930147   4.7124836  23.6066885
   6.2682791   6.1156770  23.9830274   6.1323933  67.7328886  26.7442770
   5.3082995  68.1978096  26.8890161   6.1652378  67.5925769  25.7979841
  24.1041775   3.6732456  52.9057569  23.7007590   3.3939740  53.7276335
  24.4039078   4.5659801  53.0772753  53.8698975  57.2359718   0.5570955
  53.4094278  57.0267691  -0.2555733  53.8821546  58.1926574   0.5859823
  54.0287466   6.4224931  26.5023870  53.8190623   6.5661403  27.4252195
  54.5778532   7.1689388  26.2625284  73.6882607  70.5648054   5.1443024
  74.4189802  69.9674333   4.9848432  72.9299704  69.9913420   5.2555151
  10.9359022   5.6846019  30.9195680  10.0390406   6.0157510  30.8725614
  11.2465330   5.9561798  31.7832727  29.2211934   4.2867729  14.4905729
  28.6937638   5.0133821  14.1587753  28.7748118   4.0131494  15.2918882
  39.3892169  19.5358074  57.9238987  40.1070356  19.2478824  58.4878731
  38.7950516  18.7860680  57.8908682  22.1376629   0.6243679  27.2719354
  22.8548642   0.8701893  26.6876287  21.3591118   1.0112855  26.8714590
  40.1611614  31.6242623  59.2531681  39.4810414  32.2859907  59.3788195
  40.8703709  32.0907164  58.8108206  52.7824560  49.1040565  11.9765110
  52.3230783  48.6607207  11.2633104  53.7102810  48.9640964  11.7873449
  71.2779195   6.1906883   8.8358469  71.3159306   5.3952905   9.3670006
  70.3725655   6.4904186   8.9178533  47.3752832  15.2267230  47.3369646
  47.9644823  15.6529772  47.9593658  47.7330542  14.3449080  47.2338438
  48.0979048   9.5006029   4.8444023  47.2603070   9.8657696   5.1295604
  47.8886592   9.0167348   4.0454521  51.4130020  32.8823495  50.0432777
  51.5611744  31.9668984  50.2803993  50.7760811  33.1959891  50.6853008
   5.4765801  56.1446751  17.0887251   5.1516346  55.6279720  16.3513918
   5.5033926  57.0427145  16.7585201   5.8023186  21.1361095  14.7288484
   5.2929135  21.3842413  15.5003233   5.4547758  21.6847965  14.0257187
  53.7122861  24.1426875   8.3978433  54.2815582  24.8129333   8.0197782
  52.9435364  24.6251274   8.7019939  27.3466349  13.6857426  60.3928995
  27.4853778  14.3587351  61.0592842  27.3665476  14.1625690  59.5631599
  19.1016964  68.4965385  14.8416204  18.5357670  67.9548491  15.3916426
  18.5843662  69.2826785  14.6667309  15.1180128  54.0634371  14.4197388
  15.2164654  54.9462320  14.0630693  15.9980253  53.8225354  14.7091789
  30.5662680  13.1277966  56.5986156  31.3410735  13.4837103  56.1636066
  30.7076550  12.1811056  56.6029119  47.9651371  57.7268471  10.7309980
  47.1516935  57.4511160  11.1535044  48.1412641  58.5948767  11.0939522
  71.7355553  61.5309180  24.1195459  71.3661972  60.7389916  24.5102568
  72.6823965  61.3938202  24.1499872  44.9189690  65.8709420  29.6604891
  44.1967276  65.2490367  29.7489710  45.6428305  65.4670442  30.1391573
  26.0734198  60.7558311  25.0597067  25.2010400  61.1187853  24.9065752
  26.1261706  60.6518067  26.0097761  61.4990099  33.9418241  20.7914419
  60.5936654  34.2493936  20.7469148  61.7622991  34.1026327  21.6975660
  34.8230243   1.7699936  46.5529919  34.6229482   2.5594085  46.0499763
  35.4111266   1.2686977  45.9881306  54.9272457  41.5983911   7.2526092
  55.3801075  41.7280055   6.4193315  54.2173806  42.2404261   7.2418184
  13.3571167   1.7246601  14.6106882  12.7690907   1.7151901  15.3659124
  14.1003890   2.2579023  14.8925228  68.3305164   0.4154226  19.5122404
  68.4415729  -0.1661375  20.2643556  67.7053137   1.0760137  19.8105211
   2.7518220   2.5969264   8.5056085   3.2841821   3.1423542   7.9265280
   2.6057001   1.7918488   8.0088920  10.6883283  24.9857446  25.6656618
  10.1644416  25.4253456  24.9959440  10.3539939  25.3285047  26.4945001
  67.7256647  67.2221269   0.8220692  68.5376612  66.8980302   1.2117596
  67.1604267  66.4513625   0.7705135   4.0082792  58.2391061  29.3676920
   3.3840231  58.1175054  28.6523218   4.1053824  59.1884602  29.4420595
  50.1602045  64.7709574  16.9857521  49.6580044  63.9883174  17.2126884
  49.5343033  65.3331293  16.5291948  52.6866646  15.8457491   8.0602999
  53.2812806  15.1159069   7.8871126  52.8621741  16.4699527   7.3561735
  61.3586108  36.7346638  27.0474596  60.6771771  37.3961763  27.1669645
  61.7902318  36.9805246  26.2292452  50.8989859  22.3161674  51.8580770
  50.3745556  22.5789309  51.1016607  51.8045950  22.4589443  51.5828943
  21.4317532  37.0387050  24.6336145  20.6203909  37.5199720  24.7958155
  22.0735760  37.4490377  25.2132006  54.2410946  11.8365467  41.0004139
  54.1319895  11.7057347  40.0584936  53.9630365  11.0081124  41.3910675
  59.0119314  22.8773952  40.5070639  58.2229280  22.3354912  40.5002499
  59.1811228  23.0424595  41.4346170  51.2540980  52.0636007   3.0891294
  51.8166514  51.3122102   3.2766838  51.8453331  52.8161356   3.1082506
  30.3368974  45.9609652  52.9784536  30.6228328  45.7770061  52.0836735
  30.6983256  46.8258381  53.1723595  12.1447320   8.2177564  17.2458715
  12.0796700   8.3408901  16.2988539  11.5819760   7.4653789  17.4287958
  57.3731104  69.9020423   0.7861156  56.9359104  70.4653968   1.4246435
  58.3066622  70.0590457   0.9277553  73.1451861  53.5541285   5.6184454
  72.5357262  53.0763043   5.0558872  73.0089585  54.4741548   5.3921194
  73.8324181  48.3253671  14.5676346  73.8266817  47.4497022  14.1811008
  74.7487418  48.4798159  14.7972650   0.3328804  18.6268307  16.0970373
   0.6172899  19.5123698  16.3232298   1.1357407  18.1058909  16.1134500
  47.4298143  16.4638054  60.2428675  47.8075361  16.4146543  61.1210155
  47.9941940  17.0780754  59.7734165  66.8029562  67.8532733   6.9233675
  66.5068404  67.2908486   6.2076635  66.3793246  67.4927081   7.7023144
   6.2930270   7.6040146  53.9886350   6.8215771   7.5326273  53.1937952
   6.9300599   7.7534839  54.6872587  15.8890934  11.6842291  13.0844374
  15.7392044  11.0020038  12.4299640  16.3002081  11.2264988  13.8177223
  11.6641331  62.8545427  31.2966704  11.2604094  63.3660316  30.5955172
  10.9578741  62.7130175  31.9270682   8.9582304  54.7936047   2.1148128
   9.7767071  54.7315408   1.6223926   8.4564833  55.4707946   1.6610546
  26.5449686   2.6937076   3.8821907  27.2350235   2.9612681   3.2751770
  26.8735905   2.9465720   4.7449179  10.4101296  15.7035848   6.9330473
  10.4235859  16.5636560   7.3529548  10.0575633  15.8694050   6.0587282
   2.3726086  64.3799390   2.3813743   1.4694885  64.0759100   2.4717731
   2.4131493  65.1726521   2.9163475  59.0800539  49.0926064   8.8198395
  58.3430473  48.9676238   9.4176931  58.7833635  49.7701444   8.2122631
   1.1777405  59.9717654  42.4726648   1.7329363  60.0452031  43.2489366
   0.9818749  59.0372051  42.4058218  61.7077605  47.3105968  16.4863462
  62.2831336  48.0741097  16.4391537  61.7249957  46.9427289  15.6028242
  57.6217969   4.5759818  17.7803583  56.6986354   4.7251960  17.9846639
  58.0749394   5.3320190  18.1535883   1.8871311  52.7802254  15.4635639
   1.1989693  52.8712489  14.8044891   1.4268021  52.8416981  16.3005514
  40.3416891  28.5769865   6.9127006  39.4239111  28.3874103   6.7178268
  40.4879589  28.1906101   7.7761526   8.2715944  41.4577873   5.5182094
   9.0313343  41.0256530   5.9084482   8.1809382  41.0508402   4.6565790
  35.6525922  17.6435566  33.7401032  35.3039789  17.4879658  34.6178794
  35.8535552  16.7701578  33.4039187  11.6439171   7.7501842   9.1008015
  10.9834929   7.4336836   8.4844465  11.9520708   6.9616720   9.5474787
  55.1411954  68.4996475   0.2449722  54.7390357  68.1431259   1.0370560
  56.0357705  68.7166585   0.5074091  59.9164391  11.2748265  54.0869665
  60.0935411  12.1445429  54.4453764  59.4811344  10.8063531  54.7991991
  32.4046679  16.9538232  38.4367628  32.8198643  16.5061065  39.1739149
  32.4121828  17.8787061  38.6832590   6.6060229  30.0592252  47.2886629
   6.0622712  30.7863399  46.9855566   7.5033136  30.3843900  47.2153921
  28.0500050  36.7209312  20.5333204  28.8916560  36.5286657  20.9467096
  27.5836153  37.2547409  21.1765737  46.4989853  21.0486674  59.0867758
  46.0225439  20.2239251  58.9917135  46.5300703  21.4107585  58.2012463
  46.2504662  14.6666309   7.6549263  45.7303391  14.7070572   8.4574623
  46.1614625  13.7612840   7.3571749  62.8002182  67.7614774   9.2901678
  62.7201144  67.5856484  10.2276630  63.5950152  68.2892073   9.2125053
  25.6244159  65.8407068  60.4458284  25.1868939  66.3884926  61.0975504
  25.2596116  64.9665833  60.5838680  26.5536995   9.6490404   3.9297075
  25.6124611   9.8069832   4.0029020  26.8685646  10.3425762   3.3499641
  52.2296087  47.1102346  13.9348669  51.4738122  47.4144865  14.4373007
  52.2982422  47.7285386  13.2073898  61.7449350  15.9685585   9.3802614
  61.6363485  15.2992365   8.7046547  60.9084017  15.9772798   9.8454161
  48.3130455  20.6109166  39.5471668  48.9022589  21.0166025  40.1831532
  47.4632978  21.0188723  39.7137094  41.9193856  65.2351107  24.7390432
  42.2143821  64.7663797  23.9583368  41.1043421  64.7985948  24.9868078
  14.1940836  64.8044075  29.4058294  14.8303751  64.5298256  30.0661058
  13.5198073  65.2689661  29.9015779  33.3433461  38.5902214  56.4727736
  32.4082994  38.7613106  56.5852499  33.6815500  39.3782139  56.0474300
  20.6206532   4.2951676  10.2371950  19.9836083   3.6160990  10.0152178
  21.4499731   3.8256022  10.3264589   1.8828634  53.2416285  10.8059282
   2.0618967  54.1707422  10.9505863   2.5800947  52.9521502  10.2174492
  66.8570153  59.5541991   3.2071085  66.2965361  60.3229107   3.3128424
  66.3877980  58.9995779   2.5838346  29.3404553  57.1938647   9.1202135
  30.0707558  57.6387991   8.6901827  28.5586343  57.5864090   8.7317581
  56.2332924   5.0994703  28.6102075  55.9942932   6.0158559  28.4710855
  55.6152548   4.6062133  28.0707998   0.6237034  63.2165231  10.8529491
   1.4485172  62.9618348  10.4393692   0.1966671  62.3869075  11.0665197
  27.9245669  59.2861999  30.3012533  28.7987140  59.3717803  29.9207563
  27.9851947  59.7356881  31.1441774  49.4993674  32.6843319   1.9058170
  48.9663350  32.4267803   1.1536350  48.9819562  33.3583746   2.3464813
  70.9292209  46.0666656  53.8866234  71.2562227  46.8901730  54.2487526
  71.3817668  45.3882027  54.3877459  73.9779956  12.2857496  18.6166639
  73.0684383  12.5765297  18.5504408  73.9759786  11.6549703  19.3366213
  73.6118809  58.9956607   2.5424881  74.2147652  58.3260192   2.2194691
  73.7997834  59.7659053   2.0061655  29.6341181  31.7299771  54.6650314
  28.9054704  31.9707680  54.0929031  29.7168899  32.4667788  55.2704287
  52.1696935   2.7955672  32.5705595  52.6906271   2.8396651  33.3723802
  52.6779403   2.2339508  31.9853182  31.8923140   1.2574132  25.2073288
  32.8002238   0.9656565  25.2898479  31.9239473   2.1951792  25.3966069
   3.8849469   4.3177244   3.1630392   4.6357437   3.9805624   2.6743097
   3.5023947   4.9800464   2.5875301   7.5942822   8.6994478  33.5489816
   7.0762463   9.0485021  34.2742605   7.1609087   9.0323707  32.7631159
   6.7244621   9.3412372  25.1816912   5.8886810   9.8030349  25.1150102
   6.7682047   8.8092348  24.3871469  16.2960275  55.5437522  55.6595325
  16.1233791  55.9260003  54.7991180  17.1431431  55.9071998  55.9174681
  45.5502701   0.6713218  42.5491428  46.3834095   0.2027153  42.5992966
  45.2258730   0.6801934  43.4496498  48.3858410  50.9229089  17.8468056
  48.4435026  49.9715091  17.7587957  47.8044120  51.0594477  18.5948200
  54.8253051  56.5944518   7.9327268  54.9549905  57.5211514   7.7311392
  54.7780315  56.1675848   7.0772857  68.1899515  70.1059378   1.0536594
  67.8685681  69.2054666   1.0994596  69.0967099  70.0522651   1.3555498
  45.2570982  18.3792135   2.3357315  45.7361050  18.3968565   3.1642647
  44.3468352  18.2251617   2.5885649  15.5581582  11.2446296  47.8262281
  15.8610237  12.0238268  47.3600101  15.8842993  11.3578081  48.7190056
   3.5161014  18.5009739  16.9246216   3.5944291  17.6632902  17.3811121
   3.1721230  19.1024038  17.5850696  54.6007423  20.6509897  18.8036508
  54.2730142  20.8228561  17.9208774  54.0421258  21.1794826  19.3736334
  48.7461439  55.1326324   5.7851953  49.5530716  54.7622146   6.1428089
  48.4734074  55.7826222   6.4327736  69.8207346  58.2171763  31.8840856
  69.5505635  58.1200518  32.7972193  69.1295115  58.7452926  31.4846773
  66.3472287  44.6371425  10.1878710  65.7671372  44.8603625   9.4599314
  65.9098879  44.9942173  10.9608288  73.8128693  50.3672144  19.3453665
  74.7196467  50.1500246  19.5617266  73.7299211  50.1512071  18.4165544
  23.4048704  43.7651922   6.5900440  23.0944351  43.3915271   5.7652778
  22.6069311  43.9415408   7.0884580  61.2609187  33.7210515  52.5929231
  60.8174053  32.9929520  53.0281229  61.0924236  34.4757617  53.1570692
  37.4134322  25.1676437   3.8069458  36.5896721  24.7077676   3.6451979
  37.1986075  26.0928127   3.6880035  21.0329695  28.2581588   3.7733240
  21.1995812  28.1570598   4.7104711  20.5788393  27.4537012   3.5226364
  49.7990580   4.3254849  32.2502870  50.5056067   3.7146327  32.4597711
  50.0554629   5.1434442  32.6762457  24.6913433  47.0664740  57.8028727
  25.4562235  46.5558720  57.5373983  24.8465085  47.2681427  58.7256336
  53.4962455  44.7319104   9.0076322  53.6042324  45.6087364   8.6391945
  52.6703588  44.4175745   8.6397524  16.3258135   0.4219520  58.8101959
  16.2494743  -0.3228012  58.2137489  17.1131933   0.2386321  59.3226957
  64.9602604  56.5287590  34.4644547  65.3067303  56.7843294  35.3193665
  65.0422335  55.5752134  34.4481182  67.7535359  55.6278671  10.4471893
  68.3323733  56.3500394  10.6914015  68.2732359  54.8399807  10.6064958
  32.9103585  11.0630104  16.3811464  33.3319493  11.2692758  17.2153826
  32.0519562  11.4829275  16.4363022  35.7260323  12.4941456  58.6818123
  35.2209401  11.9379508  59.2749071  35.1134348  13.1803417  58.4170675
  34.9729419  18.4084105  55.1824045  34.8315930  18.3989930  56.1290598
  35.2929449  19.2912328  54.9967861  47.2876787  37.1366286  43.7580061
  48.0004311  36.5221334  43.5830307  47.0066404  36.9299316  44.6493673
  69.1428772  31.7458810  23.4890051  68.8223568  31.5309067  22.6130552
  69.9574915  31.2505357  23.5742254  45.3260962  33.6659908   9.7578211
  45.0779334  32.8163236  10.1221199  44.4950227  34.0752011   9.5167847
  51.6689953  12.6223680  18.8287277  51.9846925  12.7810976  17.9391355
  52.3414771  12.0693323  19.2264147   4.4387432   7.9790374   8.1586571
   3.8311549   7.2681066   7.9545803   3.9376350   8.7774822   7.9924984
  69.4416904  29.9307990  56.6730642  68.8905764  30.3569603  56.0166407
  68.9017582  29.9116659  57.4632168  61.0015575  67.3525776  26.4548082
  61.5895716  66.8370999  27.0068521  60.1252357  67.1451892  26.7792864
  35.6529049  25.1314856  12.8946657  34.9449543  25.2051212  13.5346813
  35.9868626  26.0238601  12.8031988   3.9804742  38.3345556  45.6538439
   4.7712594  38.4815669  46.1727619   3.3783516  37.8949094  46.2541723
  49.1009561  51.2509776   1.7117615  49.9497000  51.6046072   1.9778604
  48.5027901  51.9961549   1.7677994  30.0022765   5.3729507   5.8487625
  30.9332629   5.4326889   5.6344623  29.8730822   6.0237047   6.5387316
  65.8797756  54.8906220  19.6389360  65.8505646  55.8442987  19.7156019
  66.5688912  54.6224667  20.2467508  64.7113609  55.0941181  51.2292480
  65.3009892  55.8447599  51.1577654  65.0583029  54.5860004  51.9625092
  22.7007218   2.5467512   4.8734064  23.0567141   1.6791245   4.6817703
  23.0120488   2.7435919   5.7568998   1.2360163  23.7612173  20.6711836
   1.8295117  23.7409469  21.4219065   1.3258119  24.6466133  20.3187055
  15.7725783  19.2250177   2.3101635  15.1239367  19.6151659   2.8960628
  15.3997584  18.3764049   2.0712108  24.1811872  17.1749651  50.5798006
  24.2965961  16.5779757  51.3190651  24.8089075  17.8794777  50.7406092
  74.5381323  16.3317646   5.7044477  75.2628771  16.9493808   5.8020325
  74.2394749  16.4534153   4.8032064  32.9875302  47.3440790  58.1847334
  33.4600329  46.8052483  57.5501919  32.2150803  46.8259621  58.4108019
  30.1929287  67.7285708  23.7163420  30.6116394  68.3569969  24.3045587
  30.4162315  68.0369891  22.8381414  31.4549685  67.0722342  34.7312641
  31.1817145  66.9204664  33.8265371  31.0641789  67.9152107  34.9612856
  25.8652043  54.2907238  52.6671600  26.0141873  53.3485985  52.7473783
  26.4235687  54.6796846  53.3403397  36.8235707  35.1332641  58.6062670
  36.1731601  35.7677197  58.3051586  36.3302779  34.3211842  58.7220955
  66.9571638   6.2691492  60.6620312  66.7736626   6.3011873  59.7231293
  67.8838491   6.0358006  60.7171345  12.0459958  16.8868562   0.2272720
  12.1408387  16.8011305   1.1758966  11.4703436  17.6427957   0.1114626
  11.9646259  10.3932115   9.5450468  12.1882363   9.4677898   9.6441765
  12.4156113  10.6642696   8.7454386  11.0537398  24.1291547  55.1811504
  10.4876006  24.8544693  55.4450369  10.6394851  23.7762141  54.3937111
  62.9108492  62.0347251  16.1398811  62.9923979  62.7292336  16.7935152
  61.9962803  61.7581095  16.1971493  33.2551356  31.2876865   5.6008358
  32.5791235  31.4357826   4.9395389  32.7837296  31.3067886   6.4336891
  34.5952435  22.0270940  37.4311704  34.7209282  21.5756771  38.2658357
  33.6595602  21.9388553  37.2496672   4.9129625  27.2209093  22.0347376
   5.1205106  26.3778993  21.6316480   4.6841450  27.7884742  21.2987108
  19.0391703  30.3082153  30.8875341  19.0572949  30.1450512  29.9445124
  18.3417674  29.7404882  31.2154741  32.1183796  26.6088983  23.5583181
  31.2984820  27.0804187  23.4110994  31.8547507  25.6934902  23.6519117
  71.9286791  50.8492888   4.3061085  71.4385573  51.4863218   3.7862987
  71.2611739  50.3961743   4.8212404  26.6976662   3.9849636  11.3170738
  26.6167279   3.2339689  11.9050283  27.1320267   4.6558377  11.8438454
  10.1889534  39.6327135   1.7519588   9.7284027  40.4531213   1.9281883
  10.2526017  39.2055008   2.6061649  58.6407852  57.5818968  50.0593424
  58.9854527  58.4407997  49.8149681  59.3352270  57.1861410  50.5859900
  56.0591745  46.5203381  53.0812836  55.8187342  45.8239603  52.4701548
  55.5222988  46.3548136  53.8562632  52.5001192  22.3261833  57.0782042
  52.7840900  23.1805086  56.7530537  51.6041565  22.2324896  56.7546177
   2.6029773  21.0438844  18.8885994   2.7460952  21.3936445  19.7680445
   1.8926998  20.4111263  18.9951486  58.3748102  33.8767672  59.7132778
  57.4271679  33.7441254  59.7380209  58.7033033  33.1576514  59.1736507
  22.6711340  65.6650755   6.3822717  23.1756277  64.8757860   6.5790958
  22.8393574  65.8317873   5.4548378   5.6509117   3.1077369  51.5068054
   5.7523159   3.7408955  52.2174788   6.4343742   3.2235701  50.9692192
  26.3469286   5.5915233   2.6760692  26.3422985   6.4190265   2.1949787
  26.6175480   5.8312580   3.5623665  15.9975485  11.4935239  54.9709940
  16.9244007  11.6612084  54.8005342  15.9971289  10.8286794  55.6596279
  66.0318275  22.8675672  24.0659780  66.2386997  23.7346718  24.4146414
  66.8267925  22.5986215  23.6056204  28.5050507  51.0777685   4.2881651
  28.8465949  51.4382669   3.4698601  29.2708655  50.7020876   4.7224636
  36.7827129  69.2428303  58.1084061  36.7460322  70.1046228  58.5233736
  37.7157497  69.0868807  57.9622746  69.3972154  47.4526045   2.8801031
  68.7290867  46.7705175   2.8123112  69.0246756  48.0934450   3.4857149
  56.5037203  61.0304117  56.0922575  56.6718435  60.0927639  56.1859608
  56.9975376  61.4347506  56.8056202   2.0147415  46.4554044  19.4379206
   2.6267834  45.9107706  18.9429350   1.1655565  46.0299322  19.3192453
   5.0803585  30.3335878  36.3893957   5.0456663  29.4363043  36.0578604
   4.3123718  30.4095575  36.9556589   7.8940491  51.2479044  21.3204069
   8.5540966  51.7387916  20.8309240   7.8109411  50.4202856  20.8467264
  14.5776911  27.4622699   6.1323232  15.3296824  27.0905801   6.5933914
  14.2951317  28.1917068   6.6839666  24.2365714  35.9325906  23.7809439
  23.3458634  35.7975694  24.1044206  24.6002026  36.6068050  24.3549127
  61.5699530  53.5377741  36.5488315  62.2928810  54.1177320  36.7881131
  61.2572384  53.8781118  35.7106113  46.2803765  22.9477951   5.1211901
  45.5682631  23.1661722   4.5199938  45.9074469  23.0809852   5.9926386
  60.5762215  51.1392137   5.9102125  61.0551186  50.3129121   5.9743757
  59.8177166  51.0214731   6.4820928   3.4982796  12.6293823  10.6159801
   3.4345670  12.8629133   9.6898956   4.1403456  13.2424328  10.9739609
   3.4690432  44.6149380  18.0348940   3.9279465  44.6122743  17.1948738
   3.9821152  44.0276696  18.5899658  74.6090698  37.5000381  26.1930895
  74.7728205  37.5047970  27.1361661  73.7811375  37.0295525  26.0961223
  47.8785038  29.6822929  44.4648504  48.2896996  28.9036655  44.0894938
  48.4758806  30.3975630  44.2463112  21.4462872  12.4275180   8.1746740
  22.0963688  11.7287847   8.1012220  20.9707852  12.2284528   8.9812107
  61.7003623  60.1049222   2.7727527  62.2395150  59.8070396   2.0400781
  62.2767989  60.6799258   3.2760639  72.9181988  18.8187572  14.2811270
  73.1775816  18.5037300  13.4152717  73.6937053  18.6863920  14.8263807
  20.5253811  54.8995420  14.3700905  19.8538371  55.5180093  14.6577711
  20.8493586  54.5041868  15.1793880  33.2013579  32.7103779  13.6516399
  34.0135641  32.7985164  13.1528492  33.3946152  32.0406171  14.3076153
  57.2881842  58.3304024  56.7228746  57.0134878  57.4141312  56.6878986
  57.7298164  58.4159613  57.5677824  35.2577996  22.6055050  48.3369350
  36.0477567  22.0834661  48.1966734  35.5576944  23.5129213  48.2831621
  69.5135561  64.7524060  11.5064306  68.7493340  64.4807090  12.0147390
  69.1637484  65.3587378  10.8535690  54.9828196  32.3507380  44.6952295
  54.0925646  32.4240804  44.3512869  55.2236366  31.4368224  44.5435858
  29.5286866  27.9866430   7.7398891  28.8806553  27.2967073   7.5974817
  30.1874991  27.5834486   8.3052463  20.7361336  24.9168035  12.4130411
  20.4785128  24.2173740  11.8124885  19.9225254  25.3862974  12.5970239
  51.2161080  63.6422671  36.2213487  51.0881702  64.3023480  36.9026346
  50.3297750  63.3815898  35.9709520  15.8312197  40.6529400   3.6437483
  15.5566140  40.0001880   2.9997415  16.6342802  41.0254976   3.2797022
  34.2253375  54.3105888  57.7938128  33.8081813  54.0879965  56.9615459
  34.0477800  53.5589695  58.3592987  21.6305895   2.5010153  14.7525568
  22.4036713   2.0858833  14.3701382  20.9024020   2.1955558  14.2115707
  38.6763878  21.8243810   7.6805706  39.4107218  22.4238130   7.8134889
  39.0753718  20.9543153   7.6752682  24.7598191  55.3586408  12.5446195
  25.4781409  55.1374838  13.1373567  24.0751000  55.7049772  13.1168432
  66.7177248  41.1074734  56.7338276  67.5338602  40.8899164  57.1841860
  66.1509466  40.3514004  56.8866396  29.7319098  15.3449651  23.6449880
  29.2405672  16.1271116  23.3938665  30.1434346  15.5776045  24.4773168
  11.5182538  39.8059818   6.0859365  11.1407085  40.0008175   6.9436855
  10.8510085  39.2806646   5.6442852  21.5584631  16.0222170  10.0670500
  22.5140400  15.9691974  10.0841493  21.2695666  15.1132700   9.9858923
  27.6218863  14.4252083   2.2703571  26.9222851  14.9752924   2.6227732
  28.2476206  14.3431780   2.9900474  69.5381117  63.4879255  16.1244416
  69.8947668  64.0692472  16.7960751  70.3076458  63.1543827  15.6631398
   7.4436812   6.4874347  57.8110027   6.6007284   6.6711314  58.2256317
   7.3140434   5.6502469  57.3654222  69.5956261  23.0031654  20.2042551
  70.3795416  23.5495207  20.1476354  69.6750064  22.3936149  19.4705171
  24.9763699   4.0209934  24.7980661  24.6192475   4.1741654  23.9232797
  25.7588072   4.5709941  24.8370237  32.5131770  19.8606893  40.6656427
  33.4633799  19.8125860  40.5605860  32.3320599  20.7932779  40.7827349
  45.6597376  26.1900759  47.9818821  44.7859240  26.5221262  48.1878471
  45.5200148  25.5824327  47.2556067  65.0837675  62.6844157   7.6306934
  64.6306888  61.9389428   8.0246706  65.3121249  62.3876108   6.7497892
  40.8591084   8.5629447  50.5188799  41.0159401   9.5059998  50.4710627
  40.2769665   8.4547885  51.2709713  30.7387189  -0.1210277  55.1285028
  31.1454264   0.5239375  55.7071543  31.0296885   0.1272567  54.2510509
   9.6305040  58.6130465  24.7832651   9.9844841  59.3615664  25.2635259
   8.8602881  58.9598764  24.3330355  27.0178814  41.3264009  28.3226366
  27.8892918  41.7217704  28.2990141  26.4285250  42.0567581  28.5109587
  67.2143221  48.8698626  42.7518272  66.6717768  49.4689322  42.2389936
  66.9067383  48.9789295  43.6516762  45.6945149  59.1274513   4.7187633
  45.7040945  59.8996891   5.2842636  46.1439816  58.4525360   5.2273912
  74.8546330  29.3959172  49.7274780  74.0677277  28.9069588  49.9681520
  74.8133007  29.4617207  48.7734365  19.1480465  31.9807264   2.2131080
  18.4226771  32.3232385   2.7353687  18.7267704  31.5726253   1.4566631
  17.0327444  42.0619699  11.9382829  16.5509100  42.5358745  12.6161356
  17.6886530  41.5572330  12.4191732  40.4588433  18.0747053   1.0134716
  39.7597142  17.5506994   1.4044494  40.0566073  18.9280578   0.8515282
  16.6489208  10.4509604  35.5424976  15.9887493   9.8481649  35.2003789
  17.3384178  10.4529774  34.8785615  57.2187368  68.3437432  24.6696157
  56.7083875  67.6654495  25.1119966  57.2917119  68.0373253  23.7657327
  12.2676933  62.8174114  43.1906223  12.5372303  62.5539541  44.0704966
  12.4223602  62.0423603  42.6506186  44.3043593  14.3572266  55.5242157
  43.6957899  14.9045689  55.0279379  43.9223234  14.3081219  56.4004993
  65.8880158   8.6125776  19.0106649  65.4188939   9.2705938  19.5236654
  65.5208798   8.6890241  18.1299801  29.7130604   1.6064688  14.0973348
  29.6823807   2.5622913  14.1385240  29.5719834   1.4019152  13.1729526
   4.1357426  21.5732224  57.2049618   4.2660145  22.4765904  57.4933767
   4.4112686  21.0413392  57.9515696  27.3694058  35.4816362   9.8008413
  26.6606779  35.1562664   9.2458076  26.9840308  36.2194177  10.2734871
  48.3351250  16.8518516  18.6821432  48.3687039  15.9115240  18.5063953
  48.6373015  16.9374582  19.5863504  72.7422769  41.6440841   6.5919370
  72.2390301  42.4306509   6.8023891  72.4742777  41.4195606   5.7008715
  50.7284355  65.3102922  38.2720399  49.9996853  65.8584499  37.9810357
  50.7395077  65.4120159  39.2237544  22.3007126  31.0153791  26.3450594
  22.8696986  31.0211775  25.5753488  21.5100642  31.4746448  26.0619135
  35.9733248  54.1186047  49.8912954  36.3818908  53.5839510  49.2105246
  36.3593388  53.8023329  50.7081175  58.7368059  61.5982151  52.0432949
  58.2880402  62.0266914  52.7721596  59.4634914  61.1283350  52.4524021
  35.9220810  15.9278557  18.5507984  35.5386181  16.7889949  18.3845777
  35.1857968  15.3202316  18.4807415  22.0333167  53.9209768  11.0381145
  21.2715121  54.5004579  11.0474081  21.7179985  53.1174585  10.6244058
  12.5933810   2.6064989  12.1343298  12.9263659   2.2853228  12.9722996
  12.0095773   3.3277842  12.3691768  52.2466796  30.9601280  20.8552236
  52.8289829  31.5868160  21.2846536  51.7924835  31.4739296  20.1874323
  28.9308377   2.6786014  34.1453142  29.0578146   3.2538053  33.3908243
  29.6322842   2.0312425  34.0736933  11.3832589  25.3281042  48.7948007
  10.9857698  25.2578851  47.9268713  11.9990249  26.0569116  48.7179823
  54.1351509  60.0276089  54.8150635  54.9561977  60.2651501  55.2459764
  53.8381290  59.2454720  55.2801132  39.0759201  18.5384294  11.0772581
  38.2487698  18.5033819  11.5577001  39.3985339  17.6373216  11.0897608
   6.3497341  47.0765638  51.3582516   5.6648243  46.8297386  51.9797134
   7.1152485  46.5715504  51.6324282  12.4650331  34.4191858  21.3665266
  11.6063972  34.6314356  21.0005731  12.4495073  33.4686395  21.4781256
  25.9943505  40.2709505   8.2185716  25.0643607  40.4789945   8.1287308
  26.0201044  39.3171665   8.2951422  41.0718937   4.7225973   2.9450531
  41.4309426   3.8407942   2.8463573  40.1319714   4.6162721   2.7985401
  15.7986899  26.6454145  25.9413786  14.8897906  26.9050333  25.7906027
  16.1637755  27.3507520  26.4756460  59.5673561  42.0740652  49.6119690
  60.1725292  42.6539469  50.0742769  58.9444733  42.6655197  49.1895580
  51.7383671  69.6596050  51.4788961  52.2862244  69.7905874  52.2528028
  52.3415184  69.3338585  50.8108139  54.3794870  47.3068333  60.3817368
  53.9606810  46.7657280  59.7123814  55.1682281  47.6447582  59.9575663
   4.2404313   9.1418335  50.1727171   4.6430846   9.7368070  49.5401735
   3.5738106   9.6720001  50.6094904  13.9351507   8.1705448  47.1960230
  13.4771533   8.9995929  47.3343916  13.6649700   7.6218578  47.9323454
  67.2395523  23.8111374   4.8514767  67.0967312  22.9724952   4.4127149
  68.1886084  23.8638088   4.9643965   7.3300922  18.2580280  46.0720682
   8.2554710  18.1166577  45.8722687   7.0996750  19.0523911  45.5902767
  13.0981974   3.8597806  55.8402395  13.3049826   3.1292088  56.4231110
  13.2061628   3.5013087  54.9592924  74.0665054  62.9914379  55.0089025
  73.4133053  63.3758593  55.5935240  74.5980835  62.4340391  55.5772018
  23.3337469  65.7428476   3.6226768  24.2127819  65.8871481   3.2723827
  22.8319045  66.5041372   3.3314342  37.9311371  62.9610205  44.9086952
  38.3093286  63.7780094  44.5835304  37.7625990  62.4447155  44.1204977
  72.1778185   2.7207705  33.6562128  72.8491576   3.1728431  34.1672582
  71.7509158   2.1378538  34.2840547  38.0747672  33.1805917  11.5112181
  38.6342211  32.7485058  10.8658142  38.1712981  32.6524707  12.3036833
   8.9873938   5.4005463  11.7652595   8.5490421   6.2508471  11.7979610
   9.8752264   5.5766423  12.0766687  19.9468203  60.5600282  13.0056686
  20.2822466  61.0668012  13.7452001  19.5179720  61.2077066  12.4463529
  58.5334607  37.2504875  12.7405901  58.9513226  36.6540405  12.1194048
  57.9669781  37.8010151  12.1999903  41.8698521  51.0815641  12.9758138
  42.2197504  51.2919256  13.8415832  41.6666861  50.1472303  13.0201359
  29.4447871   8.9790031   3.0051155  29.4827433   8.0360481   2.8450413
  28.5402890   9.1401216   3.2737417  26.0211392  50.4220792   4.5912380
  25.8261938  50.5056116   3.6578293  26.9178362  50.7454225   4.6785135
  17.7682705  58.8780328  12.3956985  18.5767098  59.3900224  12.4186153
  17.7862282  58.3657095  13.2040520  26.8894601  48.9157677  60.9279203
  26.2808228  48.1964874  60.7593107  27.1190381  49.2440271  60.0585699
  61.4647666  23.9656480  32.9448271  60.8754007  24.5577271  33.4120822
  62.1452991  23.7520726  33.5831809  53.4745932  22.8597546  48.5112476
  53.7436628  22.2547102  49.2024469  53.1888056  22.2930384  47.7947330
   3.7662569  62.0897627  52.8420973   2.9320985  61.8138742  52.4622345
   4.1917443  62.5915623  52.1468353   3.9518924  25.9543344   0.9927196
   3.8373132  25.3970882   1.7625112   3.0689330  26.2597677   0.7845754
   1.2282360  33.5592675  54.9304867   1.2359274  34.4836569  55.1788330
   0.3086365  33.3015728  54.9949932  70.9922314  38.0105734  46.1760616
  70.5820322  38.3973551  46.9496012  71.8486452  38.4346485  46.1217880
  16.1504638  67.1465683  31.0327053  16.2656105  68.0959892  30.9930706
  16.2539089  66.8547344  30.1269674  29.3544503  44.1978141   6.0709829
  30.2287741  44.0388223   6.4266796  28.7737723  43.6675855   6.6167898
  40.3877230  17.6909563  15.0321359  40.8620377  18.1838915  15.7016678
  39.7908802  17.1289751  15.5262966  12.6995854   5.0795920  28.8446593
  12.0977787   5.3673060  29.5311570  12.4912171   4.1542704  28.7158418
   9.9334244   0.2318890  39.4015765   9.6258978   1.0315545  38.9747310
  10.7489685   0.4885657  39.8319745  19.3582840  58.4155962  25.8238191
  19.7590371  57.5955412  26.1121340  18.7983818  58.6783907  26.5543623
  23.7542315  32.7948496   0.9037847  23.1674548  32.7628204   1.6593618
  23.2804032  32.3320266   0.2127619  52.3665448  49.5701048  19.6586485
  52.6420517  49.5843145  20.5752249  52.6903124  50.3957197  19.2983980
  62.2204065  44.5137930  60.3663445  61.8587780  44.1521025  59.5572519
  63.1612301  44.5760202  60.2013779  11.9891747   4.7534057  21.8591566
  12.3116406   4.4167539  22.6951666  11.6515072   3.9817568  21.4044351
  12.7313999  30.6029828  14.3692696  12.8130869  30.0087006  15.1151824
  12.8377012  30.0404771  13.6021173  28.9683366  62.3157930  54.1038418
  29.3914890  63.1115294  53.7813759  28.2448888  62.1657801  53.4952784
  64.9873082   1.4045508  49.6834135  65.1218573   0.9836562  50.5325127
  65.8335081   1.3298400  49.2422819  10.2028127  24.1387483  14.1488952
   9.3137832  24.2993852  14.4652052  10.0934096  23.9350721  13.2200355
  34.8934908  26.8188163  24.6154280  33.9921351  26.7126009  24.3112821
  34.8781844  27.6235172  25.1335497  24.2891526  69.7636890  54.6468019
  24.8753214  70.3101444  55.1702690  24.7736359  68.9483452  54.5174694
  67.3258515  48.0954668  12.5779934  67.6214619  47.2918340  13.0058069
  66.3899632  47.9583666  12.4312277  37.5522399  66.2720203  51.1789799
  37.3070979  66.4333582  52.0900822  38.4815717  66.4975166  51.1374664
   8.1445984  20.7113679  54.9063396   7.2373060  20.4233487  54.8058653
   8.6443857  20.1344807  54.3287182  11.9766335  68.3506049   6.7129440
  12.6608376  68.4907616   7.3675079  11.2778334  67.9021372   7.1891661
  36.9942208  28.9971229   0.7522220  37.2937889  28.0890295   0.7091970
  37.5751086  29.4694683   0.1558227  17.8038601  17.7545674  39.0318441
  18.6257366  18.0495770  38.6397791  18.0191330  16.9135316  39.4350219
  56.2754937  15.6463358   2.9355116  57.0227547  15.6952163   3.5317011
  56.6667672  15.5234214   2.0706243   8.1419806   7.1769126  40.4668808
   8.9152388   7.6220973  40.1203060   8.2051615   6.2853988  40.1241827
  27.2830824   1.1061509  60.4664230  27.9771141   0.5205853  60.1636696
  26.6585354   1.1322387  59.7415161  33.9740153  29.7640917  14.3996591
  33.2812233  30.0664493  14.9868984  33.5271759  29.5915958  13.5709162
  46.9062519  67.8773260  57.4646187  47.6381540  67.4985123  56.9777393
  46.9474554  68.8134384  57.2691059  53.0886221  62.1583509  53.4835100
  53.4436750  61.4738894  54.0506840  52.4970245  62.6549244  54.0488958
  25.2386097   4.3731768  56.0672760  25.8767466   4.5506079  56.7583179
  24.5369248   3.8928731  56.5068007  72.8717820  26.0071118  38.8713837
  72.5388209  26.8841584  38.6812067  72.4221054  25.7495053  39.6761560
   3.7021784   7.2406514  22.9012060   4.4086317   7.4228175  22.2815514
   3.7504486   6.2960894  23.0485392  45.7205124  15.9265730   0.9480257
  45.8442898  16.7437669   1.4308376  45.7323428  16.1881897   0.0273437
  49.9245683  30.8745061  11.1668033  50.1921192  31.5134813  11.8273754
  49.5296899  31.4002199  10.4711504  63.6405865  13.5000290  24.3719168
  62.9553739  14.1661109  24.4271345  63.6302320  13.2210912  23.4563131
   3.8517183   4.4573912  59.6792412   4.6324390   4.6855032  60.1838923
   3.9287573   3.5147491  59.5318556  25.3856087  10.3965902  26.2203312
  25.9224749   9.6982092  25.8458066  24.7325921   9.9389249  26.7498088
   6.8000730  32.6976864  38.7144041   5.8983310  32.5928657  38.4109139
   7.2264966  33.2085697  38.0263686  28.1838965  16.5912271  50.6377411
  28.6631227  15.8519983  51.0120630  28.8298512  17.2959995  50.5901051
  49.1345236  69.5081581  51.9785023  50.0811118  69.6495178  51.9636679
  48.7632995  70.3836393  52.0878553  67.8354728   8.5910875  47.9261208
  67.8263622   7.8839087  47.2811031  66.9697940   8.9929700  47.8531694
  43.1304435  31.6534771   5.2273435  44.0089825  31.3944138   5.5053539
  43.2623891  32.4713574   4.7478695  12.6228841  52.5617294  47.2171021
  13.2884868  52.9715590  47.7695894  12.4768742  53.1913130  46.5110302
  61.5915823  67.5969630   4.6151371  62.2947979  67.6677447   5.2606697
  62.0174837  67.7747112   3.7765379  28.1950077  60.5063586  16.5120852
  28.4321197  61.2949042  16.0240233  27.5750812  60.8119158  17.1743250
  54.4644538  21.1471344  15.8512087  54.1285077  21.7898013  15.2264280
  55.3020970  21.5091933  16.1401720  55.2440490  61.9987975  30.0247383
  55.6271931  61.1603163  30.2823830  54.5662292  62.1638797  30.6801319
  54.5062256   6.7415249  20.5482650  54.5658922   6.4658129  21.4629531
  54.9470186   6.0465890  20.0593925  36.0116220   1.8506815  58.3148575
  36.5378451   1.9614075  59.1067314  35.7872128   0.9202156  58.3045721
  45.2765560   7.7140439  46.6082191  45.6963205   6.8730921  46.7894125
  45.4613209   8.2457036  47.3824501  71.0506121  35.6235748   3.8482685
  70.3625933  35.7223633   4.5063753  71.4402071  34.7695109   4.0354128
  55.6356303   9.6169986   8.9578647  56.2779347  10.2297319   8.5997648
  55.6960384   9.7336377   9.9060077   2.6906428  15.2797925  24.8699927
   2.9044625  14.6080780  24.2224503   3.3903581  15.2170753  25.5201459
  37.1561503   6.6617525  49.5642757  36.5742779   6.2681895  50.2144766
  36.5831947   7.2160226  49.0344286  38.9456487  10.5039525  11.4318228
  39.3796325  10.9118283  10.6824708  39.5862484   9.8768795  11.7674482
  58.4027656  58.0443887  26.1009789  58.5346796  58.9766841  26.2731862
  58.5986902  57.6167683  26.9346380  26.5116262  19.0669537  22.6779366
  27.3955917  18.7021112  22.6363897  26.4504290  19.4472849  23.5541987
  18.6718762   6.4783221  53.2822037  19.4597960   6.9412518  52.9974079
  18.8086736   5.5748600  52.9971170  36.6472610  67.1241136  53.4042215
  36.0987362  66.3651516  53.6025333  36.2474188  67.8430395  53.8936138
  52.8878069   8.2034403  51.3651180  52.9706335   7.6825678  52.1639109
  53.6409903   7.9471582  50.8328962  47.9647318  21.6302217  13.8301487
  48.5221807  22.4083353  13.8346834  47.4924485  21.6690887  14.6618194
  68.4581486  62.1175970  39.8853273  68.6903254  62.8836383  40.4102106
  67.7362362  61.7095364  40.3634043  54.3206166  54.7470085  39.9037147
  54.7902455  55.3779297  40.4492617  54.9710848  54.4494490  39.2676473
  61.4864608  61.9716869  26.1715508  62.1349831  61.4317058  25.7198071
  62.0055636  62.6043759  26.6680074  60.9156243  38.6332486  10.9131975
  60.0225440  38.4106438  11.1760444  61.3716284  38.8062133  11.7368336
  21.8377346  31.9582422   2.8521890  20.9099699  32.0499699   2.6352329
  22.0331675  31.0365180   2.6834793  69.5000332  16.0415351  58.4154320
  69.3267828  15.1371634  58.1540346  68.7165630  16.3057268  58.8977242
  14.1425022  39.9492089  58.5158920  14.9269684  40.3510825  58.8891792
  14.4417342  39.5562164  57.6959801  65.4568728  32.3135512  43.5032558
  64.6898909  31.8960325  43.1112766  65.1028260  32.8404300  44.2196941
  33.6864090  11.1362040  22.2774076  33.6933661  12.0770764  22.1015048
  32.7733850  10.9382498  22.4858117  16.3033044   9.2608923  56.9384384
  16.5337873   9.5867580  57.8084469  16.5683031   8.3411688  56.9492054
  73.6334108  11.1032069  45.6000376  74.3316776  10.6959665  45.0873899
  73.2693669  10.3869820  46.1203480  54.8865028  55.4430215  48.2430983
  55.5134525  54.9687557  47.6969862  55.4233774  56.0514037  48.7509060
  24.8901638  69.3699860  19.4241631  24.7937664  68.4827434  19.7701979
  24.3144926  69.3928023  18.6597574  12.5322632  13.6075176   1.1623354
  12.7562956  12.9954304   0.4613418  12.4049381  14.4452847   0.7171793
  32.4957037  15.9189188  22.5047731  31.6722369  15.6538165  22.9144740
  32.7174616  16.7484903  22.9276991  40.5882788  20.5572343  48.1402922
  40.0022125  20.1768947  47.4860001  41.4611006  20.2628279  47.8800201
   4.4035276  60.2160923  22.1609354   5.3563079  60.2399521  22.2496533
   4.0947756  60.9472959  22.6959538   2.4147161  56.6541056  31.5306902
   2.9473504  57.1968238  30.9493232   1.5462454  56.6528694  31.1282134
   9.5570012  18.1996032   3.4523792  10.1573320  18.6762449   4.0256567
   9.8717041  17.2958824   3.4742946  31.9447740  59.7379021  52.6973581
  31.6059860  58.9283507  53.0795622  32.8962454  59.6392088  52.7318668
  59.2428795  62.6051320   6.7640419  59.9675552  61.9885792   6.6594477
  58.7284724  62.5083126   5.9626407  73.6091395  66.5924068  53.7170744
  73.6335083  67.1237142  52.9212427  72.9159327  65.9521668  53.5564947
  46.9336184  61.5633981  47.4361849  46.6481431  61.4571600  48.3436251
  47.7971103  61.1513798  47.4069500  72.4985234  33.1624335   4.6356935
  72.7195374  32.2891374   4.9593277  73.3442131  33.5942523   4.5149870
  48.4767103  13.1792271  34.4958186  48.7827253  13.2768261  33.5941195
  48.4650946  14.0712917  34.8426867   7.6592597  35.5781572  29.2078161
   6.8034180  35.4827301  28.7898922   8.2219609  35.9376471  28.5219836
  29.5147347   1.2861040  18.3392453  29.4102764   0.4702348  18.8288140
  28.6201167   1.5919869  18.1898296   0.8865555  69.6339509  59.0458298
   1.7564090  69.2345123  59.0518665   0.6330665  69.6698309  59.9681568
  59.9443909  69.1820973  24.7888398  59.0788027  68.7757243  24.8318481
  60.5395254  68.5147615  25.1304674  39.2202417  36.2681342   9.8406524
  39.5545462  35.9956766  10.6951923  39.6966544  37.0745031   9.6430893
  26.8511295  22.6121783  35.5872631  26.3548684  23.3420897  35.9576535
  26.3481855  21.8340850  35.8277822  27.6347494   1.6806898  57.0471716
  26.8953085   2.0543092  57.5266171  28.2350278   1.3797334  57.7293158
  24.8939260  68.8482705   1.8785968  24.8249420  69.7893225   2.0395122
  24.1648134  68.6517827   1.2903640  65.6897863  67.5966071  39.8434138
  65.3484424  67.7454837  40.7252026  66.5557059  68.0044994  39.8497510
  45.3831279  29.8409581   5.6698895  45.4556477  28.9669871   5.2862906
  45.6795561  30.4317522   4.9775559  55.7508661  53.3507793  11.5159702
  56.6147383  53.6540250  11.2366879  55.9128191  52.8931920  12.3409653
  50.8473349   2.0451942  46.2371635  51.4019680   1.5183839  46.8125677
  50.2821779   1.4081030  45.8001947   9.5553021  40.3218509   8.2737179
   9.5031742  39.4017063   8.0151672   9.3354420  40.3216906   9.2053242
  48.1812716   1.7079663  44.9837780  47.4274445   1.8050870  45.5656242
  48.1557655   2.4860403  44.4268370  72.1928378  64.8044597  34.0498257
  73.0577656  64.4029407  33.9666748  71.5827843  64.0674452  34.0201807
  28.8606000  24.7407174  25.9875441  28.3343172  25.0387144  26.7294717
  28.2746911  24.1675615  25.4931378  69.5677801  44.1301338  37.2229338
  68.7499352  44.1052882  36.7262006  69.6527406  43.2496326  37.5886297
  71.8211146  54.8305969  40.3706026  72.3817225  55.3922062  39.8353004
  71.6505071  54.0670471  39.8191357  64.7484513  64.5129012   9.7089815
  65.2093860  63.9833854   9.0583014  64.1188284  63.9106797  10.1053846
  59.5133305  10.6004572  45.5426645  60.4181099  10.4483521  45.8155584
  59.5424414  11.4320529  45.0695562  36.7443347   5.2881467  41.8815804
  35.9978342   5.6653100  41.4160538  36.8304992   4.4056857  41.5209293
  22.8006148  26.0031772  28.9585781  22.3920989  26.7893958  29.3208075
  22.2550654  25.2827334  29.2741203  72.7331988  27.9963697   4.9450702
  73.2926813  27.2871442   4.6285124  72.8858439  28.0183877   5.8897657
   0.4374348  27.7668214  37.3521805   0.4884597  26.9328046  36.8852282
  -0.4472429  28.0866337  37.1752715  16.7486894  11.9297743  50.2988720
  16.9006240  11.2033653  50.9034204  16.6558337  12.6965261  50.8642912
  10.6066259  49.0904300  37.1612191  11.1144813  48.3897774  36.7520714
  10.3838786  49.6778886  36.4390635   6.0189232  46.7583863  29.1092134
   5.4711493  46.0460965  29.4390893   6.3549646  46.4347498  28.2734108
  47.6765060  25.7203746  59.6198225  47.8435469  25.9922934  58.7173891
  47.2163200  24.8851490  59.5370245  20.2241373   2.1373558  58.3801937
  19.7578132   1.4378962  58.8379383  19.8915577   2.0999719  57.4834108
  32.0613456  13.8642132  36.5171695  31.8069696  12.9767454  36.7700028
  31.4463902  14.1010213  35.8229184  11.4669025  27.6900601  37.2145629
  11.5680122  27.3644328  36.3201475  11.7209685  28.6115456  37.1641231
  23.2632041  18.4269583  35.4656601  23.0185533  19.0203631  36.1757660
  23.1236196  18.9374816  34.6680927  71.2932221  41.8637879   9.2881508
  71.2433449  42.5920911   8.6690206  71.1704079  42.2699709  10.1461477
  37.4811760  40.4809351   2.4205751  37.0158509  40.0725718   3.1506033
  37.8492299  41.2835647   2.7901048  66.7504903  60.1015858  43.6962700
  66.9075151  59.1745810  43.5167265  67.1917756  60.2620964  44.5303774
  50.0189558  50.6373156   6.5499897  50.0196353  50.7881845   5.6047554
  50.9326974  50.7512583   6.8113775  22.2912947  36.7444406   3.9410181
  21.3714460  36.5057398   3.8264198  22.3799363  37.5818208   3.4858579
  39.0247408  24.1955723  11.4873380  39.5774678  23.8477398  10.7875223
  38.3829943  24.7436453  11.0356636  74.4604492  22.9737782  42.4693298
  74.7584057  22.8359151  41.5701914  73.9702177  22.1800470  42.6835585
  10.0487196  16.8609691  38.9997602   9.8940760  15.9439123  39.2263079
  10.6883287  17.1624839  39.6449113  27.2345686   1.6694716  26.5712309
  28.0978394   1.6528621  26.1580467  27.1650815   2.5476766  26.9456100
  73.5133263  66.0109948  56.4507008  72.5669070  66.0094543  56.5939379
  73.6204573  66.3490339  55.5616093   3.0826620  27.3553522   4.3228025
   3.1024174  26.6233624   4.9392671   4.0025715  27.5169833   4.1133470
  15.8041605  35.6386201  59.0350962  16.3608249  36.4107005  58.9338589
  15.2064308  35.6747215  58.2883358  62.1437943  33.2841492  55.6418371
  61.5783345  33.0382776  54.9096918  62.0420146  34.2331147  55.7148933
  16.9778860  10.4335725  59.0797758  16.6174686  10.8923221  59.8386431
  17.5040352  11.0936880  58.6285067   4.5091280  66.9234400  54.4357872
   4.2500147  67.7015375  54.9294043   5.3658804  67.1454065  54.0711832
  27.4566635  57.6055126  52.0714998  27.1791347  57.4000065  52.9642391
  27.4765810  58.5620217  52.0410728  63.1011232  49.8525922  20.2087235
  63.9265271  49.6233384  19.7816610  62.6597281  50.4277150  19.5837176
  69.7704426  69.9042357  37.4570532  69.2689864  70.5155887  37.9965277
  69.8756996  69.1289581  38.0085058   3.8121065  46.6943900  52.4533653
   3.3533581  46.2134759  51.7645264   3.4028825  47.5597040  52.4546003
  73.0037063  40.0592089  33.5161757  72.8581547  39.2941070  32.9597020
  72.7795483  40.8056641  32.9604864  56.8756008   9.2660093  59.1264868
  56.7175817   8.3706421  58.8271904  56.0011673   9.6385211  59.2397594
  73.6947246  61.9407748  42.5678158  74.5901223  61.9384311  42.2294521
  73.7657996  61.5444116  43.4361935  28.7093496  16.6700053  19.0640295
  27.7522898  16.6628134  19.0786660  28.9330554  17.1197426  18.2492137
  47.0077669  67.5951608  13.9585471  47.1357503  66.6998868  13.6449587
  47.5861638  67.6679994  14.7177458  73.0506869  45.2265541   4.8596898
  72.4885579  44.5204203   4.5409179  73.9208671  45.0095265   4.5251498
  49.2966080   1.8026489  41.4444494  48.3436966   1.8837984  41.4845514
  49.5349693   2.1921729  40.6032085  61.5738455  34.0275496   0.2255506
  62.2676102  34.4261296   0.7509632  61.0212818  34.7629894  -0.0390845
  28.7304760  62.6941789   3.0799026  28.7871502  62.7895082   2.1291466
  28.0311338  63.2939829   3.3394880  14.7887953  61.2928943  30.4012156
  15.1911148  61.3457565  29.5342803  14.0282806  60.7248358  30.2780962
  65.8770736  62.8318457  48.0173349  65.0155838  62.5004707  48.2708263
  65.9189101  63.7080209  48.4004784  44.6149015  22.6736951  53.5455084
  44.4768620  21.8722677  53.0406427  45.1774263  23.2130122  52.9896927
  59.5557737  13.2950866  44.1745758  60.1900005  13.9824009  43.9706373
  58.9232302  13.3323336  43.4571266  15.9692987  52.0832162  46.0288763
  15.0311764  52.0454566  46.2152338  16.0680231  52.8380124  45.4485607
  31.8454695  15.6677675  47.2096252  31.5069675  16.3846338  47.7460480
  31.4918351  15.8347309  46.3359547  42.0416355   5.9254622  60.2553177
  41.5999031   5.0872725  60.3914785  41.6133213   6.2996364  59.4854021
   1.8717440  42.6483075  37.0892596   1.4899214  41.8897907  37.5309587
   1.6718944  42.5118653  36.1631536  36.5469503  17.5945604   7.6838630
  37.5017262  17.6179290   7.6198882  36.2451673  17.6289082   6.7761308
   5.5611515  10.8170760  44.6638060   6.2663186  11.2657583  45.1303434
   5.5654079  11.2079418  43.7900543   2.2540812  47.5478209   1.5296764
   1.2976889  47.5802077   1.5072412   2.5148682  48.4044184   1.8679972
  58.8043197  65.1640479  55.2910948  58.4279903  66.0350050  55.1644421
  58.2913574  64.5956354  54.7166348  58.0528942  30.4181213   6.1857624
  58.9155260  30.4405643   5.7715196  57.4354044  30.4641084   5.4558153
  18.3254322  65.1218222  32.1260262  17.9091390  65.9055345  31.7672396
  18.7876304  65.4314081  32.9049730  26.5430045   4.9317127  49.1426277
  25.6412792   4.6333405  49.2613554  26.4717841   5.6790030  48.5487270
  50.1615191  34.6975899  45.2675772  50.2972221  33.7845516  45.0142431
  50.9740496  34.9473524  45.7076311   6.5319685  42.5229938  13.8783951
   7.1911911  42.2883232  14.5315332   6.9536165  43.1955017  13.3434362
  14.1732931   1.5687917  57.4180746  14.8821008   1.6469575  56.7795467
  14.6139205   1.5809491  58.2677364  55.9139224  57.8033726  19.9165106
  56.8537219  57.9531543  19.8136759  55.5113711  58.6409192  19.6869493
  56.5645361  11.8882489  23.4682822  56.1653852  11.4209020  24.2021060
  56.3982439  12.8124201  23.6539841  31.0168123  16.0131299  13.3491611
  30.7613444  16.9010437  13.0990088  30.3634524  15.4500163  12.9341233
  52.2785378   9.5277733  35.2943826  52.8663826   9.1739500  34.6269417
  51.4680195   9.7192127  34.8225284  69.8624440  67.6174264  39.1418600
  69.7555669  66.6897954  38.9313602  70.7573291  67.6859628  39.4745970
  68.3706160  65.1714580  26.7963123  69.2955573  64.9328558  26.8578410
  68.3266195  66.0556312  27.1603632  22.8735813  69.9635614  58.7096119
  22.2921928  70.4005632  58.0873203  23.4584221  70.6558271  59.0177679
  65.4046885  46.6811658   8.4286709  65.3700796  46.7176510   7.4727936
  64.8391310  47.3978378   8.7163420  21.4569688  10.0986564  15.7449639
  21.6217375  10.9228075  15.2868605  21.8919921  10.2038240  16.5910888
  69.7704574  51.8734877  40.6984425  69.0148111  51.7025976  40.1362801
  70.4426309  52.2037618  40.1023436  21.0672736  63.7501436  42.9546995
  20.2381372  63.9939982  43.3661623  21.5313220  63.2522207  43.6277265
  55.2088419  33.7596638   2.3321218  54.4242159  33.5595538   2.8425617
  55.9186426  33.7603374   2.9743166  38.8483051  37.5115931   4.0307016
  38.2650164  36.9772427   4.5696611  39.6625451  37.5573030   4.5318575
  36.8240134  30.4465462   8.3555384  36.7354444  31.1816232   7.7488680
  36.7689923  29.6692474   7.7996511   5.7594258   1.6575192  46.9430542
   6.3450623   2.0263936  47.6042604   5.4469323   2.4160698  46.4499187
  32.7403673  59.5826881  37.7755070  31.9244369  59.2575292  37.3950338
  32.8356537  59.0928666  38.5923481  25.8443221  66.5417374   3.1538744
  25.4181340  67.3513593   2.8726120  26.6151706  66.4688386   2.5911064
  70.5517121  46.4168613  11.2573683  70.3802105  47.3370950  11.0573971
  70.4468485  46.3544910  12.2067606  16.7216861   2.9161417  27.1500778
  16.1081982   2.2885147  27.5321102  16.4740956   3.7572217  27.5341535
  67.3019429  66.8537585  18.3939576  68.0555006  66.2983488  18.1942022
  66.7166813  66.2903912  18.9002359  12.5212348  12.7411377   7.4170035
  13.3081448  12.1962476   7.4269885  12.7358127  13.4821546   7.9836452
  73.0369612  19.9057186  26.5976238  72.6772023  19.1044760  26.2170792
  72.3395070  20.2360606  27.1638942  15.8246827  25.3505397  45.4881573
  15.6088781  25.8926725  44.7293711  15.6668568  25.9194040  46.2416267
  34.3897852  66.6143189  29.9296045  34.1669830  65.7027014  30.1181388
  35.3097805  66.6931234  30.1818442   6.0042353   7.4050781   4.3102188
   6.4266963   7.9070303   5.0072164   5.1251955   7.7783176   4.2453022
  64.8869712   3.3108994   4.3497057  64.8838146   3.9881226   5.0261564
  65.1038702   3.7788293   3.5433359  34.6260166   8.7513703  53.3342361
  34.9627352   8.8339585  52.4420309  34.6730566   7.8139818  53.5221767
  37.1976280  13.8300467  55.9266567  36.5702295  13.2916403  56.4090681
  36.6690969  14.5326567  55.5482006   6.2742508   7.0733613   9.8069316
   6.4856708   7.7636892  10.4354048   5.6555069   7.4819010   9.2015445
  47.5319815   4.6099675  33.9127588  46.8920374   5.1981193  33.5117817
  48.3485508   4.7914132  33.4474397  46.8297720   2.9594067  42.0477390
  46.1726475   3.5124534  42.4702978  46.3381147   2.2004409  41.7339373
  28.1702423  47.0816135  29.9034381  28.4423709  46.5912151  29.1277504
  28.5871720  46.6248465  30.6340337  53.1743383  11.1351156  49.7718287
  52.4567223  11.2976384  49.1595840  53.3554745  10.1991796  49.6855307
  56.2751976  39.0556790   8.3356638  56.8105260  38.6961867   7.6282615
  55.8292261  39.8052473   7.9413433   4.9052910  52.7916802  20.0405855
   3.9937977  52.9545809  20.2832289   5.3637413  53.5981633  20.2764768
  14.8240912  26.8816733  51.4475775  15.1390266  25.9828210  51.3521194
  15.1499069  27.1599889  52.3035097  44.0405464  10.1846647  51.2046480
  43.4318733  10.6811535  50.6576157  44.2060900   9.3816334  50.7107162
  -0.1182619  66.2427302  59.0333080  -0.4300705  66.4399819  58.1500769
   0.7403835  66.6627727  59.0835571  64.7522640   1.3915879  55.8364677
  64.1722775   0.6374507  55.7310057  64.5229912   1.9732797  55.1116943
  64.2935181   4.1772380  50.5998516  65.2344656   4.0202278  50.5211401
  63.9000845   3.3062524  50.5466843  46.1792151  50.1814236  15.8045645
  46.7304984  49.9125017  15.0697203  46.7738572  50.2042164  16.5543098
  69.4824997  35.3475067   8.2375021  69.3597714  35.6364525   7.3332472
  68.8485638  34.6393268   8.3507891  72.8482882  52.5694944  14.4209976
  72.3825327  52.7778877  15.2308626  73.4137074  53.3265985  14.2682667
  40.0616550  20.7669044  44.8848629  39.4752526  20.0116134  44.8412895
  39.6503592  21.4222813  44.3213511  28.9976573  10.8891034  45.7055426
  29.4317818  11.5366888  45.1502037  29.3862295  11.0167348  46.5709639
   9.4728712  64.3092026   9.0967245  10.0642828  64.8092045   8.5341759
   8.6167482  64.7171153   8.9667673  14.9827111  10.1317155  31.6976023
  14.5210588   9.6021998  31.0474300  14.4635856  10.0367343  32.4961758
   4.3699030  66.2044062   1.0799665   4.2236714  65.8626951   1.9620533
   4.2444376  65.4484214   0.5063982  37.8299173  59.0919952  22.7949524
  37.7510055  60.0458817  22.7847314  38.6632475  58.9159076  22.3581719
  19.3725193   9.8802447  56.4804983  20.2477002   9.7908562  56.8577242
  18.9777899   9.0143096  56.5833378  63.6818115  54.2756225  24.3600054
  63.3973423  54.0204026  23.4824056  63.3193032  53.6015035  24.9347944
  13.4958406  10.5269596  27.1466417  12.8918095  11.1113378  26.6885156
  13.0399723   9.6857664  27.1751184   6.4509920  26.4991487   1.8200083
   6.6208748  25.5867596   1.5856571   5.6941418  26.7460151   1.2885303
  57.7845756  30.4540621  17.7117510  56.8404189  30.5268220  17.8514166
  58.0144516  29.5970173  18.0707283  27.6934648   2.8038043  16.1747098
  27.5971198   3.5651782  16.7467761  27.0574760   2.1712208  16.5087605
  50.8526341  56.7485536   4.3572731  50.0178043  56.3615884   4.6209926
  50.7513801  57.6829685   4.5385141  23.7370420   6.2933010  54.7836113
  24.5011377   5.8682597  55.1731348  23.3765554   6.8308938  55.4887867
  18.5838628  17.1260178  23.9919496  18.3958066  17.5919342  23.1772161
  17.7921605  17.2354937  24.5186877  43.1646919  10.4782641  46.2893629
  42.6189661  10.8516204  46.9814777  44.0339470  10.8479905  46.4440680
  65.2096170  28.3140564  29.5457625  64.9196911  27.4041176  29.4810557
  64.5525610  28.8100863  29.0574360  54.1595554  20.0209165  54.8148251
  53.9576483  20.2110934  55.7309580  53.4273720  20.3958607  54.3253803
   2.9842571  25.2674706   6.4616508   3.0329994  25.7181300   7.3047180
   2.6472954  24.3971707   6.6744156  41.5928892  50.3739001   0.1042385
  41.8479184  50.7650806   0.9398050  40.7613519  49.9369491   0.2882213
  37.1676898   4.3705130   7.1418977  36.2458730   4.6273836   7.1194601
  37.1645832   3.5020024   7.5442797  48.0633545  22.7589679  52.8630733
  48.9338732  22.3675179  52.7910376  47.5787544  22.4041176  52.1177673
  11.1217225  26.7875838  51.9216776  11.2779307  27.2101092  52.7662516
  11.9600749  26.3838792  51.6971350  34.9721813  16.7073429  50.6127310
  35.6056809  16.8487644  51.3162279  34.5811653  17.5685954  50.4658175
  30.9200287  30.3883910  56.7858791  30.6879640  30.8906221  57.5669956
  30.3173256  30.7020569  56.1116409   9.2569037  13.6995384  11.9537897
  10.0535102  14.1770813  11.7222709   9.5646186  12.8297445  12.2087402
   4.7670573  10.5939198  39.6260548   4.9359193   9.7517794  39.2035437
   4.6803841  11.2126219  38.9008451  47.1011468  66.7632096  60.1948738
  46.8603932  67.5927721  59.7824478  46.3042789  66.2345801  60.1526356
  72.4381613   9.1449231  55.5448771  72.6459527  10.0031054  55.1753139
  73.2357961   8.8825333  56.0044003  67.3156738  11.1800563  49.6847391
  66.6705179  10.5313504  49.9661350  67.0862722  11.3667154  48.7743711
  38.4433369  22.8693844   0.1721306  38.0990414  22.5913085   1.0208769
  39.3939785  22.8148784   0.2697916  10.8813938  68.0921145  37.2642493
  10.9090885  68.9715315  37.6411986  11.5110954  68.1203568  36.5438962
  20.9912618  67.0372076  58.6341286  20.2233013  67.5216232  58.3311272
  21.6449245  67.1708851  57.9477644  37.0662904  12.4152124  37.9089332
  37.5608039  11.6730487  37.5612545  36.5919948  12.0566726  38.6590815
  12.8222426  41.7132537  43.7018967  13.4827264  41.9935195  43.0682993
  12.0156201  41.6422097  43.1914616  22.6590618  49.4204371  54.0238094
  23.0427822  49.0366785  54.8123074  23.1971487  49.0837567  53.3073330
   5.1398472  44.2459877   9.5055218   5.1164965  43.9588965  10.4183550
   5.5847124  43.5361118   9.0424843  26.8663029  37.8650690   7.9282732
  27.0473913  37.1228900   8.5049982  27.7294926  38.1562666   7.6344461
   8.6014036  36.2527731  34.9572725   8.5967020  37.0501534  35.4867906
   9.5055155  35.9414969  35.0010748   9.0833360  18.9595211  20.0423384
   8.6424464  19.0024531  19.1938090   8.3754319  18.8321030  20.6738997
  56.5850592  25.6085587  50.2281666  55.6826210  25.9264946  50.2007532
  56.6993856  25.2891469  51.1232281  58.6970377  25.4077935  48.6145306
  58.1609774  25.4284263  47.8217840  58.0829096  25.5970955  49.3239307
   2.3138604  24.2750955   9.5583087   1.4967655  23.8755655   9.8565751
   2.8425708  23.5385346   9.2514277  61.8206501   3.6866027  35.9753537
  61.8232632   3.4943712  35.0376582  60.9114075   3.5553688  36.2442183
  26.9300398  53.4830646  21.0914516  27.3293098  54.1126196  21.6918492
  25.9994587  53.4956329  21.3152647  71.7479249  61.5992455  28.0539536
  70.9457727  61.8677537  28.5019350  71.4434143  61.1664198  27.2563529
  68.8811365   9.4795336   4.3791742  69.3227736   8.6401619   4.2501898
  68.0818955   9.4124283   3.8567371  29.8103094  22.4660921  28.7254953
  30.2215719  22.5132108  27.8624344  30.0056863  23.3111572  29.1303682
  63.5280704  29.0036964  48.2908726  62.8199959  28.5737467  48.7704611
  64.2538357  29.0368557  48.9140892  67.9686943  37.4855001   9.6286650
  68.5067192  38.2756461   9.6779651  68.4735504  36.8858634   9.0793104
   6.6309532  53.4262864  24.8869610   7.3698863  53.0398540  25.3569412
   6.9358166  54.2985336  24.6370125  66.8333975  70.5551185   8.0007191
  67.6190106  70.6056036   8.5452289  66.7736546  69.6328963   7.7513761
  12.6633271  63.6900447  58.6043978  13.1363519  63.1807958  59.2625332
  13.3470472  64.0272741  58.0255747  51.1761999   0.7326558  55.8467913
  50.9144258   1.6526346  55.8101368  51.4811516   0.6060263  56.7452383
  29.5071936  21.4536834  35.1207948  29.2141414  20.6034923  35.4487085
  28.7643385  22.0379400  35.2725887  25.3707623  25.5505061  23.4347868
  25.7342458  26.4203095  23.2687902  24.5188498  25.5596614  22.9984474
  22.4993281  41.9616552  12.3633642  22.9589943  41.4612777  13.0375786
  21.9854073  42.6051338  12.8512735  61.4442205   0.2564288  52.8691339
  61.7541456  -0.2057482  52.0903063  61.5233814   1.1835955  52.6447916
  48.8753418  43.8237513   0.1915998  49.2166046  43.4695621   1.0127659
  47.9245762  43.7534542   0.2772112  37.0380306  27.2367883  45.9603071
  37.2526717  27.7964091  46.7066240  36.2273908  27.6057196  45.6096172
   4.8412279  61.8991436   5.2159662   4.2087320  61.3168539   5.6368179
   5.6793646  61.6745414   5.6200809  11.0319531   6.5844607  58.6176109
  11.6399920   7.0885080  58.0768204  10.8517337   5.7966650  58.1046486
  15.2261861  63.3242522  51.9781017  14.6388420  62.7445440  51.4931345
  15.7321294  63.7735270  51.3010454  31.7824674  23.8107514  10.4629755
  32.3302746  23.4608173   9.7603470  30.9342265  23.3845544  10.3401923
  59.9886227   5.6804377  48.8600445  60.1639462   6.3071007  48.1580591
  60.7471609   5.0966352  48.8549232   8.8218840  42.8577797  41.0467529
   7.9820355  43.0561201  41.4609432   9.0781101  43.6759011  40.6210136
  62.5743285  31.5731220  26.4673967  62.5103108  30.8146079  27.0477266
  62.2926966  32.3119266  27.0069094  69.4109011   1.2180208  44.4824076
  70.3197193   1.0116959  44.2639780  69.1455698   1.8588498  43.8227367
  44.2951965  17.3741782  41.1859417  44.6316195  16.4947319  41.3580656
  45.0785875  17.9158103  41.0902214  36.9919276  12.7332520  34.1363144
  36.4561510  12.9425895  34.9013996  37.8923583  12.8752351  34.4283700
  40.1495953  13.0464622   2.9674072  39.2655487  13.0611917   2.6007051
  40.5625983  12.2817918   2.5662250  65.8534876  41.9732494   2.5670786
  66.6789929  42.2672577   2.9522104  66.0034100  41.0523082   2.3534841
  16.8913540  31.0229056  35.6625652  17.0951399  31.5422671  34.8847699
  15.9681257  30.7914989  35.5609155  22.0565963   3.8181123  32.4593115
  21.6903353   3.3922151  33.2343578  22.8038478   3.2715046  32.2162676
  27.8473568   3.6694473   6.2800145  28.4396124   4.2563394   5.8098853
  27.7455616   4.0722930   7.1423286  17.6712565  47.8467752  18.6462707
  17.5630049  47.0729925  19.1992349  18.6181168  47.9807104  18.6044473
  14.7405342  62.9807605  32.3570127  14.7763304  62.1631540  31.8605490
  13.8095335  63.2008304  32.3892374  38.4661547  21.7851783   3.3815737
  39.2446235  22.2835590   3.6302442  37.8527967  21.9230820   4.1033811
  74.5294380   4.5265716  54.3044567  74.9330854   5.3628623  54.5366621
  74.2697430   4.1449472  55.1429987  26.7173076  16.9584775  42.5584078
  26.3888550  16.2666178  43.1325865  27.4408817  16.5511477  42.0822191
  54.3724680  50.8495378  50.6883574  54.6252012  51.0094500  51.5976381
  53.9830351  51.6747904  50.3993320  53.3797979  18.2645631  37.3540568
  54.1828108  18.2221580  36.8348265  52.9741144  19.0936303  37.1004796
  12.7350625  67.1125890  51.9688416  12.5376209  66.1779420  52.0295334
  13.6908325  67.1538924  51.9367504  57.7569342   0.2840479  41.1579370
  57.0016909   0.4770260  41.7134523  57.4529934  -0.4101469  40.5731726
  13.5801085  67.4545331  38.5718489  12.8377327  67.3780848  37.9724622
  14.3508776  67.3772420  38.0095553   9.9829134  33.0219404  46.6968632
  10.8281859  32.5751440  46.7429113   9.3379720  32.3146407  46.6940832
  16.3425684  18.8348258  36.6717887  17.2146702  18.7296450  36.2915182
  15.9721208  17.9522192  36.6692257   4.9976426  10.8353972  20.2691984
   4.8485816   9.9003512  20.1288390   4.1578248  11.1667204  20.5872583
   8.5674337  33.3427922  14.5823784   9.3066839  33.0970898  15.1385946
   8.5453180  32.6696355  13.9022322  21.4560016  60.9363250  34.7699189
  21.9050106  61.1881195  35.5769014  20.5932840  60.6387334  35.0586963
  33.0195689   7.4088567  51.2189007  32.3202014   7.1219283  50.6317139
  33.8148141   7.3539627  50.6889963  52.6849880  63.7211947  46.3283205
  52.2487990  63.0354963  45.8225679  51.9967285  64.0803634  46.8882608
  65.9723822  36.2854825  34.0597887  66.1348311  37.1901686  33.7926073
  65.4530016  36.3617156  34.8601980  19.5078766   7.0592350  39.1280198
  18.8005602   6.8085676  39.7222447  19.3435192   6.5524566  38.3327866
  63.2828661  61.2063323  53.4519339  63.8451334  61.3241451  52.6862907
  63.7403437  61.6633885  54.1576576  47.8145170  13.1395984  40.5957985
  48.6471891  12.7159047  40.8040619  47.9855537  14.0741479  40.7123947
  59.5994464  53.0733909  25.8041735  58.6451880  53.0348064  25.7398958
  59.8648254  52.1694816  25.9737463   2.1130975  56.4073066  44.8470449
   1.1632022  56.4438657  44.9592638   2.4051818  55.7588665  45.4877043
  35.8264709  11.0292447  39.9743199  35.3366184  11.6983271  40.4524469
  35.1577806  10.5382681  39.4967961  58.8642645  19.2386365  50.5435801
  59.4217110  18.8881207  51.2382889  58.9662504  20.1880145  50.6107473
   0.4890843  13.3044171   6.3822782  -0.2310088  13.3079839   5.7516557
   0.1054144  13.6554146   7.1859133  23.8025268  52.0586257  58.9114523
  23.8930734  53.0101268  58.9632177  23.6595138  51.8818741  57.9816484
  32.9470968   8.8507545  56.0192680  33.7163806   8.8463002  56.5888453
  32.7063107   9.7745204  55.9491920  11.2479595  27.4400438   0.4105158
  10.5911450  27.1536912   1.0452003  10.7649664  27.9986484  -0.1985102
  70.0581980  19.3512678  59.0725803  69.7782755  18.4377158  59.1300011
  70.6448221  19.4694316  59.8196697   7.4919218   2.5074378  44.1337395
   7.7871251   1.9725442  44.8706102   8.2529211   2.5593922  43.5554552
  69.4623104  38.9707486  17.2047396  69.5833746  39.3284254  16.3251705
  68.7993494  38.2887868  17.0968218   4.6847300  43.9276756   6.1903257
   5.1818041  43.1428523   6.4209766   5.0843767  44.6254976   6.7095203
  11.5887889  53.8125448  45.0373363  11.9882497  54.1393237  44.2311859
  10.9789690  54.5023279  45.2991581   4.1131500  31.9182946   2.4972935
   3.5368256  32.2783120   1.8231554   3.6541227  32.0873199   3.3200664
  72.7211094   8.6557370  24.3600225  72.2859955   9.4641554  24.0891576
  72.2396755   8.3736038  25.1377463  30.5235767  23.8035464  42.1668243
  29.6507382  23.5111141  42.4292469  30.5879593  24.6973324  42.5033236
  59.4803015  42.5816865   2.7003259  59.2714397  43.3662142   3.2073994
  60.1592437  42.1403374   3.2106991  59.4661609  54.4806076   2.8280754
  58.5349623  54.4959535   2.6070280  59.7467343  53.5890986   2.6213808
  60.5134622  59.4107140  14.2125864  60.2812353  58.6765946  14.7812433
  61.3903610  59.1981210  13.8930816  26.6927242   1.0824052  35.5565691
  27.4656224   0.5211522  35.4944992  26.9539213   1.8978888  35.1287913
  30.2742962  36.2224402  12.9848165  30.7152662  35.6596390  12.3483963
  30.8599202  36.9726033  13.0874414   4.4139095  10.4899141  24.4432516
   3.9370127  10.1193210  23.7006445   3.7315007  10.7328912  25.0689573
  15.7958683  42.0158856  50.2646017  15.4596313  41.6137283  49.4636965
  16.2488731  42.8040497  49.9649143  34.6879935  28.7594771  45.2321005
  34.6746755  29.6680999  45.5328608  33.8635182  28.6520600  44.7578335
  34.4267754  64.6460379   8.4950991  34.7565273  64.0972842   9.2066879
  33.5595802  64.9244775   8.7894983  35.3594955  61.3642494  57.8641176
  35.3095516  61.4560930  56.9126463  34.4624599  61.1661564  58.1330347
  38.4315209  32.0214020  13.8678999  39.2972855  31.8809177  14.2512388
  37.8474049  31.4678730  14.3862028   6.8800787  61.5503110  11.6323871
   6.7966131  62.1578993  12.3673029   6.7050747  62.0853485  10.8582134
  43.8835160  36.8809579   2.2677107  44.6331207  36.6932218   2.8325815
  44.0897301  37.7264751   1.8692036  71.8856116  52.0223121  42.9746008
  71.7018815  52.8406291  43.4359407  71.1623808  51.9293611  42.3544979
  17.0867682  34.1651750  55.0102472  17.2739708  34.0780950  55.9449148
  16.1401772  34.0400243  54.9428940   8.0457529  70.1476188  37.3773193
   8.3334931  70.3263666  38.2725787   7.1512231  70.4863453  37.3411131
  50.4937998  29.3815787  17.8960390  50.2564827  29.3237181  16.9705314
  51.4101831  29.1066582  17.9259605  49.6968404  32.0030205   8.3106537
  48.9692870  31.7181565   7.7577038  50.4760448  31.6477416   7.8830404
  20.0857882  50.7628776   1.1224623  20.0298123  51.7166723   1.0643644
  19.2947964  50.5049182   1.5957708  71.3785549  64.8214369  53.7681484
  71.3070651  64.1187136  53.1221628  70.4977342  65.1930116  53.8163185
   9.9972852  52.3465304  37.9992604  10.3835353  51.5905385  37.5570846
  10.6369384  53.0480628  37.8770781   0.9917577  44.8010938  34.3342972
   1.6318592  44.9663393  35.0265384   0.3196844  45.4700463  34.4648790
   1.4588392  13.5283923  35.1621461   1.0848844  13.0870593  34.3995094
   1.1381948  13.0256474  35.9109235  33.8751936  18.8143599  48.6041498
  33.5875392  19.5568490  48.0729294  33.1097555  18.2413924  48.6493635
  66.6650454  33.5448775   4.0949316  67.1685854  33.4034291   3.2932634
  65.7826105  33.2426664   3.8799591  67.5514523   5.9026231  26.7609663
  67.4116913   6.7817439  26.4090509  68.4206978   5.9397735  27.1600313
   8.9870536   2.6957014  56.9009018   8.8615298   3.6273760  57.0810652
   9.8020983   2.6561975  56.4005327  34.4585729   0.9545521  41.8159866
  34.3517804   0.2549025  42.4604368  35.3113508   1.3390130  42.0189428
  69.7552363  56.4128651   1.2975187  69.1895357  56.8246235   0.6443186
  70.5457512  56.1741866   0.8134193  50.4913568   7.4115705  59.6697092
  51.1998653   7.5983638  60.2856302  50.2606487   8.2654953  59.3038988
   1.4266857  62.4266146  21.7293715   0.9610995  61.6427033  22.0208263
   2.2718247  62.3834376  22.1767044  54.8833825  67.0506521  45.7167387
  55.7987549  67.1570964  45.4579067  54.5458852  67.9443862  45.7764626
  27.8905491  21.9325591   0.2238006  27.3590366  21.2934138  -0.2507715
  27.3115457  22.6857163   0.3410263  54.4501400  30.9262776  51.1954546
  54.5852900  30.7671547  52.1296072  54.6635771  31.8518043  51.0768080
   5.8208450  37.4601261  60.6304169   5.2240380  37.6187269  61.3617849
   5.8868798  38.3060567  60.1873922  48.9475536   7.6902747  48.8065052
  48.0178642   7.8904259  48.6976433  49.0402460   6.7962891  48.4772205
  28.2565661  19.7859165  29.0416117  28.9286204  19.3900797  28.4867353
  28.0399342  20.6096193  28.6047907  45.7624141  53.2112075   0.1481218
  45.4637185  52.3501493   0.4406805  45.7233588  53.7576927   0.9330149
   9.8254713  49.4692986  58.8361597   8.9222773  49.6317713  58.5639954
  10.2367886  49.0650408  58.0722046  37.4905666  66.9682546  37.2285795
  37.4936613  66.9550084  38.1856847  36.6387113  67.3382543  36.9969177
  17.9128488  53.3249550  51.4080381  18.1775650  53.6935489  52.2508287
  18.6865076  53.4183089  50.8521843  51.3677327  51.3302268  12.8205366
  51.6519395  50.4516829  12.5683088  51.5184561  51.8639280  12.0403595
  55.2630186  20.8961916  35.0917673  54.3544436  21.1466479  35.2590799
  55.7754517  21.6569734  35.3653693  34.5627689  18.4337533  57.7260113
  34.2989516  19.2711771  58.1072664  33.9775300  17.7922547  58.1287622
  68.9118242  41.4907980  37.7729321  68.3766508  41.0315323  37.1257114
  68.2990408  41.7188787  38.4720063  58.1962458  47.3256577   4.8374767
  58.7609211  47.3148860   4.0646524  58.7693898  47.0599748   5.5566091
  22.8847051   6.3009268  35.3444147  22.7048588   6.5077579  34.4272971
  23.2220030   5.4053080  35.3262687  17.0994476  18.8025941  10.1962824
  17.9468540  18.4424831  10.4579182  16.4613775  18.1543518  10.4944153
   9.5390896  69.6653379   1.5320749   9.1764692  69.1679872   0.7990141
   9.6103958  69.0275444   2.2422619  68.6706062  69.0845102  47.7069283
  68.2295473  69.7770996  48.1988859  68.0374869  68.8260473  47.0371628
   0.8950218  42.2599427  57.0674801   1.3934859  41.4582269  56.9093084
   0.3310999  42.3469155  56.2989330  73.8907119  49.8462670  56.7959642
  74.6181055  50.3491180  57.1623945  74.1258069  48.9325564  56.9575071
  52.6911688  10.9567523  58.1510878  52.2897673  11.8025279  58.3505154
  52.3522282  10.7289553  57.2853708   9.4284618  19.0238166  32.6390505
   9.6805370  18.7120950  33.5082579   8.8183201  18.3614385  32.3146892
  62.2802544  37.7891564  47.4885893  61.5609169  37.1577930  47.4756861
  61.8589640  38.6284852  47.6737213  67.3086500  44.3861437  35.5367422
  67.8512669  44.8811769  34.9229503  66.5863037  44.0539312  35.0037456
  30.3926921   4.9913532  42.8523827  29.9568772   4.8406774  42.0135736
  30.9182549   5.7788044  42.7111864  62.0103502  31.8970942  44.5059538
  61.3867950  31.1813879  44.6291351  62.7140093  31.7113733  45.1277256
  45.7778502  23.9050460  59.7360992  45.9910727  22.9738808  59.7969294
  45.1526165  23.9608788  59.0134621  32.1401668  44.5973492  54.3443298
  31.3512158  44.9874592  53.9680290  32.8259230  45.2468920  54.1892052
  39.1154102  49.5507075  10.4005880  38.3923439  48.9980317  10.1040048
  38.7485317  50.4345728  10.4209680  68.8121620  22.9185344   1.8961019
  68.7688176  23.8251878   2.1999664  67.9183737  22.5901760   1.9938583
  55.8298159  33.0942535  59.4115353  54.9233437  33.2923412  59.6467018
  55.8717918  32.1380043  59.4039297  57.3401419  57.5854291  15.0633116
  56.7576329  57.8329028  14.3452091  57.1127645  56.6752566  15.2533550
   7.3428444  44.0539701  11.6393537   6.9473890  44.8461820  12.0030136
   7.5888876  44.2970963  10.7468386  34.7921276  15.5817533  55.4393482
  35.0910234  16.4852333  55.5423832  34.6800327  15.4727817  54.4950008
  38.9351106   3.3819938  39.5449138  39.0950394   3.0490363  38.6618543
  39.4719625   4.1722810  39.6037865   7.1485809  56.0518993  23.7366361
   7.5815062  56.3199581  24.5471639   7.6529316  56.4778580  23.0435152
  20.6686100  62.5051789  24.7542119  20.4044946  62.3145621  25.6542897
  20.8524831  63.4445511  24.7523952  60.2012110  20.0193930  43.4437609
  60.7070494  19.6912706  44.1871929  60.5244684  20.9101582  43.3085823
  36.6604177  62.1813120  25.8369131  37.2100226  62.0585431  26.6109247
  35.7666496  62.2033585  26.1788530  56.8376128  59.6508397   6.0518570
  56.4950219  60.5301870   6.2118978  57.2720758  59.4104518   6.8702001
  56.1504022  52.5076164   2.0965977  56.0145513  53.2804371   1.5483970
  56.2871019  51.7934324   1.4741154  40.6721735  40.3960848  42.5833559
  39.8644805  40.0663376  42.1894884  40.3779411  41.0246611  43.2425594
  30.6079173  17.9810655  59.8349190  30.3303361  18.3898199  60.6547356
  29.7937107  17.6882243  59.4255972  51.1266661  20.8345437  60.0603247
  50.6116629  20.8580875  59.2538214  52.0084286  20.5956578  59.7745562
  68.1005637  38.7010060  13.8939400  67.9131714  39.5706983  13.5407371
  69.0557066  38.6636598  13.9443273  44.8576212  50.1090908  60.6377840
  44.9955893  51.0539770  60.7039738  45.6715918  49.7739410  60.2617979
  24.2962412  63.9452256  22.6776571  23.7610821  64.6712245  22.9982157
  23.7044767  63.1928672  22.6784677  67.3153925  10.9556317  38.8205123
  67.0302629  10.7074463  37.9411173  67.0638084  10.2147388  39.3718839
  50.5993732  67.0680903  44.9031162  50.1581653  66.4724712  45.5087614
  51.1031994  66.4935936  44.3266201   9.6467680   5.7165128  45.1162100
   8.7781179   5.6262887  44.7243690   9.7513998   6.6581613  45.2525234
  54.9709415  29.8121858  43.6562204  54.3098545  29.5407557  44.2930222
  54.9349308  29.1424108  42.9733324  42.7030420  32.0830607  44.3748617
  42.9620934  32.8333068  44.9098873  41.7471170  32.0730662  44.4232130
  69.6945111  60.0198377   5.2629824  69.7012440  59.5159115   4.4491978
  69.0752760  60.7311262   5.0991268  68.1098557  46.8398571   9.2233503
  67.2550297  46.4390564   9.3810344  68.6954784  46.4073420   9.8448068
  31.4045596  27.7512956  57.3956490  30.6487179  27.7999043  57.9809475
  31.5978217  28.6631179  57.1777964  47.6185036  13.3369148  56.6592693
  48.1501484  13.9516330  57.1649456  47.3812151  12.6535380  57.2861052
  52.7436638  40.8078289  42.8862286  53.5848618  41.2509727  42.9968786
  52.5560808  40.8802319  41.9503880  66.7385641  53.1190802  17.6467199
  66.6560904  54.0648617  17.5245447  67.4212662  53.0219675  18.3105869
  55.5425787  34.2985940  47.3784685  54.7489214  34.5071292  47.8712749
  55.2992344  33.5455465  46.8400145  11.7739443  41.3876624  14.9558754
  11.5518145  40.7576443  14.2703314  11.3588242  42.2032441  14.6752806
  46.0966492  33.0305934  42.8435516  46.1068821  33.4172606  43.7191153
  45.5969334  33.6514258  42.3133755   9.2671064  62.9242004  12.6131744
   9.9614576  62.5917853  13.1820412   8.5248522  63.0680503  13.2002039
  21.5635824  20.3140903  60.2235794  21.8263483  19.4036245  60.0885248
  20.6744003  20.2573824  60.5733919  70.2488104  58.6375131  28.5757322
  71.1368672  58.3511199  28.7891836  69.7713343  58.5739697  29.4029016
  63.2845203  43.7794478  14.5307226  64.0819994  43.5092522  14.0754719
  63.3080355  43.3010335  15.3594560  40.8785887  11.4449379   9.7530479
  41.8110867  11.6146061   9.6192665  40.6171246  10.9292385   8.9902134
  25.4392561  69.9667244  42.8307962  25.2433571  70.9012916  42.7641582
  24.6060928  69.5642526  43.0759335  24.1304863  38.5526204  60.2356100
  24.6519459  39.1818690  60.7339716  24.4467151  37.6968455  60.5252314
  41.7695475  15.4296398  49.0708160  41.3151693  16.1088073  49.5693207
  42.6949406  15.5584753  49.2788744  20.3899069  27.5405475   8.6072750
  20.6433316  27.4607250   7.6876898  20.9384413  26.9021818   9.0631647
  33.5412621  25.3815532  54.9276829  33.8352919  25.6608391  55.7947350
  33.2918119  26.1934733  54.4863319  59.1129589  52.0676804  57.3262835
  58.9719009  52.2054291  56.3896084  59.0962553  51.1166716  57.4337006
  62.7206222  67.9358639   2.3559971  63.6398736  68.0408491   2.1106596
  62.2512285  68.5545863   1.7964573  45.8769751  28.3257198  50.9750175
  45.7271051  28.1986856  50.0381994  46.3860703  29.1345358  51.0286188
  11.6588306  29.6381354  58.6047554  12.0006073  28.7953472  58.3062172
  11.3513196  30.0681257  57.8067732  25.5122089   3.8704276  44.9556446
  25.5906463   4.0414599  45.8941698  25.5720139   4.7348177  44.5488453
  28.7778016  27.3991844   0.8697576  29.2952891  26.9885370   1.5624399
  28.8037129  28.3340570   1.0736532  39.4736314  34.8413157  40.6713295
  39.5306516  35.7944131  40.6036186  38.6724854  34.6151352  40.1988459
  44.5403671  18.4712803  59.5742655  44.7287560  17.6369989  59.1444778
  44.3096972  19.0629530  58.8580608  22.3472488   8.2284516  44.8233557
  22.1045673   9.1511232  44.9008989  22.7035606   8.1480503  43.9385891
  38.7268992   0.0793311   2.5925703  39.1540261   0.8687112   2.2598905
  39.2116471  -0.6422618   2.1918793  65.4346815  64.2813815   3.8989611
  65.8351246  63.9686121   3.0877561  64.7786800  64.9169506   3.6127014
  23.3138394  16.3223124  41.2819815  23.2908130  16.8493366  40.4832649
  22.8074288  15.5390644  41.0667992  27.1257881  54.7493399  17.3936863
  26.2451223  54.3846191  17.3063059  27.3345427  55.0829197  16.5211172
   0.2067618  67.5572766  13.0883713  -0.0652834  67.0171965  13.8303490
   0.3639893  66.9313682  12.3814411  48.8468122   8.1192750  36.6570759
  48.0051899   8.0073678  37.0990920  48.9965057   9.0646809  36.6627741
  27.1821757  26.1860105   3.6739464  26.9002457  26.8916961   3.0919189
  28.1329413  26.1535808   3.5679884  39.8350048  37.3630381  40.4722834
  40.3239679  37.2824192  39.6533513  40.3980875  37.8932452  41.0362387
  59.9820042  24.7502995  59.3943262  59.9659252  24.2706442  60.2225208
  60.8567381  25.1373482  59.3586588  74.2426888  57.6686586  16.8249006
  73.6033455  58.2072510  17.2911520  73.7414852  56.9126071  16.5192718
  26.0224680  49.4657267   7.0667000  25.1903442  49.8516489   7.3403282
  26.1240772  49.7375013   6.1545343  62.8853273  26.5759659  49.6160412
  63.6854553  26.7554045  49.1222525  62.1872139  26.6117907  48.9621353
  36.8842793  69.0436935  50.2635813  37.5706911  69.0694141  49.5969391
  36.6602993  68.1162977  50.3410816   6.5050407  14.6432373  23.6481161
   6.8817850  13.8319465  23.3073873   5.6594582  14.7188589  23.2059545
  64.6855203  57.9398645   4.3397779  64.7221247  57.7416076   3.4040470
  65.3180901  57.3409070   4.7364349  15.5317815  60.8631228  53.2023859
  15.5206569  60.3498606  52.3945093  15.5833515  61.7723964  52.9077816
  60.5942583  27.8694344  42.7644968  60.0778532  28.6086106  43.0857134
  60.8219051  27.3759103  43.5524321  71.3131895  19.0599990  54.3602657
  71.0828721  18.3628917  54.9744558  71.8211657  19.6810031  54.8823261
   3.6669878  22.2159578   8.2918854   3.6591248  22.1890916   7.3350973
   3.9608769  21.3433911   8.5535879  52.0473400  43.6142833   2.4994774
  51.2716762  43.2129420   2.1076889  51.8655483  44.5538993   2.4820299
  29.8554548  69.8838163  56.6879082  29.4828924  70.6303092  56.2186766
  29.5708021  69.1196020  56.1867285  62.0381355  50.9429121  51.0272264
  61.9973278  49.9872971  51.0641479  62.4250031  51.1332846  50.1726341
  18.5603142  24.9992466  44.7880745  18.3371818  25.5165696  44.0142393
  17.7167404  24.7988129  45.1935863  71.1843666  51.6353039  58.9268303
  70.2976593  51.5269546  58.5829592  71.6687854  52.0508437  58.2134628
  11.2288559  46.7994833  31.1965036  12.1535385  47.0229721  31.3025212
  10.8510292  46.9239283  32.0671296  50.1797867  25.4673648  54.4927168
  50.5898952  25.7556462  53.6772776  50.2521753  26.2220311  55.0770712
  52.9106045  30.5914164  38.0151105  52.6209641  30.8455849  37.1389031
  53.8639975  30.5403614  37.9467940  53.0075077  68.4512891   7.9181118
  52.1309570  68.5412539   7.5442142  53.4821991  69.2206825   7.6035709
  21.8700413  68.8633932  14.9388809  22.1615700  69.0779866  14.0527744
  20.9256462  68.7317885  14.8550339   4.8726324  15.1842703  11.9139929
   4.5483784  15.9279038  11.4059563   4.6343426  15.3896774  12.8180141
  60.7992554  24.3054366  38.8699389  61.2867928  24.9118447  39.4274402
  60.1860666  23.8735771  39.4646907  49.8778919  66.3047518   1.2945480
  49.8763470  65.3475608   1.2907381  50.7488922  66.5415968   1.6131229
  45.3335575  58.6554493  33.3298559  45.1161865  57.8820361  33.8502474
  44.8099045  59.3581308  33.7148924  52.1198559  31.8953371  44.8275661
  52.1637058  32.2669744  45.7085848  52.0439053  30.9517217  44.9691677
  38.3901711   7.8276083  23.8415880  39.2814703   8.0535766  23.5755701
  38.3402033   8.0916521  24.7602911  38.2334252  33.3434412   5.4422064
  38.5854693  34.1226265   5.0118894  38.9987870  32.7907964   5.6004352
  42.6177998  12.6769706  22.2629137  42.4114485  13.1253645  21.4428015
  42.5515480  13.3585045  22.9317636  62.2703759  51.7040147  14.2515678
  61.3245026  51.8132151  14.3497152  62.5109211  52.3144914  13.5546560
  24.2827324  31.6240506  10.9951181  23.5788683  32.1436275  11.3835115
  25.0861553  32.0665054  11.2689419  35.5610199   5.9242317  20.1327677
  36.4067336   6.3725635  20.1328058  35.2646370   5.9718820  21.0416765
  34.7135592  31.6183043  54.5479488  34.6454906  32.5707531  54.4812870
  35.6549144  31.4465809  54.5723104   2.8513849  11.1404729  47.6399326
   3.3866251  10.4418492  47.2635317   2.2393835  10.6873047  48.2198715
  33.0717091  64.7936357   3.5337181  32.4349693  64.2495574   3.9971609
  33.6318020  64.1680778   3.0741472  20.6864281  25.7551691   6.0477800
  19.7452088  25.9231111   6.0015697  20.9589358  25.6660244   5.1345272
  15.5416858  31.4631248  47.8239107  14.8792541  30.9699893  47.3399305
  16.0766018  31.8752742  47.1455097  52.7825204  61.2307204   6.4080305
  52.9002229  60.9953512   5.4877157  53.6597029  61.4683546   6.7085523
  56.9138050  22.2125959  58.2139874  56.9422007  22.7478051  57.4209070
  56.7922783  22.8428817  58.9240599  64.2092800  69.4673300  31.8999171
  63.5183048  69.5748091  31.2462878  63.7541437  69.1488409  32.6794362
  18.6750130  29.3807252  14.7041101  17.7737145  29.6105124  14.4780798
  19.2125944  29.9510218  14.1545648  48.6577511   3.5496125  47.4568415
  49.2140245   3.0785173  46.8364716  47.9114294   2.9674250  47.5992823
  65.6786442   1.5285231  36.5923238  65.7079554   1.7075856  37.5321698
  65.5953741   0.5768428  36.5323043  68.5528421   7.0149177  51.2725067
  68.8676500   6.9882107  50.3689528  68.6684132   7.9268175  51.5395546
  51.7088691  55.1782287   9.2445488  52.3021952  55.8476247   8.9038057
  52.0933119  54.9216629  10.0827665  53.3400536  47.0314407  50.0072479
  53.2618618  46.4522123  49.2492104  52.4671602  47.0310211  50.4000473
  51.2947456  69.6376718  12.0555944  51.8152968  68.8371481  11.9890947
  51.7271725  70.2543248  11.4648504  43.3316775  10.5655834  25.9311647
  44.0613766  11.0835811  26.2709398  42.7943297  11.1952325  25.4505129
   3.5844028  67.3503780  25.3667855   3.3667410  68.0574465  24.7594047
   2.8180492  67.2790623  25.9358573  23.0217715  14.5075628   3.9521046
  22.8935118  13.7115690   4.4680281  22.8629656  15.2214452   4.5696659
  58.1793165  61.5905905  58.2585144  59.1274977  61.6770887  58.3570051
  57.8419113  61.6192722  59.1538143  30.9641480  15.5803227  54.1408539
  30.5730939  15.5130577  53.2697725  31.8497729  15.2334511  54.0332460
  72.7887424  62.8007452  19.8201454  73.1822952  63.1693004  20.6110382
  72.4121269  61.9683294  20.1055813  47.7446508  26.4038110  57.0404530
  47.8467751  25.9370112  56.2110567  47.1614122  27.1341801  56.8339920
  18.7510666  57.5213568  54.2685890  19.6193012  57.8169791  54.5424604
  18.1992325  58.3001904  54.3402290  46.3180256  64.3862009  46.4105749
  46.4833832  63.5574245  46.8600416  45.3902054  64.3514729  46.1778069
  51.3930722   4.6865675   4.9669905  51.2900420   5.2108022   4.1727657
  51.8302269   5.2720091   5.5853624  59.4923306  59.1494465  45.8140993
  59.7137356  58.4561586  45.1923561  60.0199747  58.9541626  46.5884924
  58.7856913  53.6443329  37.0292163  59.7169352  53.8143539  36.8874025
  58.5122013  53.1495905  36.2567782   5.2623356  58.8282299  38.9769697
   6.0428131  58.5389185  39.4495940   4.5356024  58.6183453  39.5635223
  41.8815660  38.1667590  42.0706654  41.4174938  38.8481855  42.5570059
  42.7371788  38.1094766  42.4959612  35.8727189  17.7263853  22.5160951
  36.5205117  18.0930635  23.1178827  35.1293250  17.4983570  23.0743093
  74.5009947  44.7002077  42.3976851  74.5537233  45.0672388  41.5152216
  74.1015196  45.3941202  42.9222202  11.9019465   4.1935714  50.9480810
  12.3483280   4.8855241  51.4361143  11.5625004   3.6054213  51.6226864
  51.1485119  13.2001564  15.8743877  50.7201596  13.6979267  15.1779861
  51.7895480  12.6542446  15.4190988  59.1600084  40.4935312  51.5836668
  59.3178606  39.6218443  51.2210655  59.2382383  41.0827923  50.8334160
   8.6379341  65.1540626   1.0754604   8.4689526  64.2754830   0.7352037
   9.3768410  65.4734649   0.5575485  59.6500063  50.7316494  38.0832624
  59.3283510  51.5121412  37.6320338  60.1190233  50.2410030  37.4083376
  55.9362459  31.2674832  40.9927082  56.4013958  30.4405236  40.8661842
  55.0099611  31.0311580  40.9439468  64.4953938  20.1269981   4.4115658
  64.8342915  20.8422348   3.8732166  64.6333428  20.4192611   5.3125543
  63.6967659  59.5020771  33.1836820  64.0166712  60.3539276  33.4807539
  64.4550943  58.9226007  33.2569814  47.0564413  14.9891472  54.3350601
  46.2815523  14.6388841  53.8956356  47.0096540  14.6337295  55.2225971
   8.0418289  35.7180595  42.2137022   7.6285160  34.9192071  41.8862343
   8.3491409  35.4867411  43.0902243  38.2383541  59.2511667   4.4326420
  38.6133198  60.1137961   4.2551489  38.4996227  59.0570439   5.3328008
   0.7927231  66.9663633  31.5301103   1.3129953  66.2190188  31.8251104
  -0.0762316  66.6018332  31.3619871   0.6645859  27.4864960  33.7312603
  -0.2616417  27.6655030  33.5691237   0.6640804  26.7095256  34.2903209
  21.2958387  51.1443795  13.4965916  21.8840031  51.3030757  14.2349071
  20.4802803  51.5813519  13.7418480  68.7631718  68.0383266   4.4137831
  69.4513766  68.6835803   4.2517490  69.2342297  67.2198261   4.5699663
   7.8942001  36.2189412  59.4932461   7.0746219  36.5612054  59.8501396
   7.6347816  35.4383707  59.0037060   8.6789469  57.1652712  22.0351095
   9.2193560  57.9298247  21.8359918   9.3078617  56.4787473  22.2573347
  55.7056395  58.7396110  12.0580168  56.5949241  59.0267838  12.2652263
  55.1567403  59.4984998  12.2555799  47.6334572  42.1497107  47.1731997
  47.4180508  42.5554562  48.0129623  46.8204498  42.1945620  46.6699743
   7.5217012  63.2349743   5.5419798   8.3930592  63.0959667   5.1709719
   7.2527746  64.0906443   5.2077074  33.5634255  31.9700670  57.0311165
  33.8705969  31.7776370  56.1452007  32.9782653  31.2433410  57.2448635
  67.4017382  45.8647060  53.5438824  67.6560020  46.3968992  52.7899885
  67.3309660  44.9755907  53.1964684  37.9582028  52.3422183  22.0993109
  37.9959587  53.2930495  21.9957418  38.6836247  52.1365286  22.6889582
  19.7398285  45.0709934   1.1322899  20.4428963  44.7146798   0.5891771
  18.9354757  44.7572894   0.7189674  50.9370203  19.0989753  19.4409342
  50.6682082  18.4815189  18.7606973  50.2659722  19.7813436  19.4237585
  44.8844385  38.0321074  42.9495478  45.6627846  37.5715256  43.2630348
  45.2285194  38.7455535  42.4121189  54.8127699  60.4417944  42.8313017
  55.6649208  60.5410290  43.2558298  55.0206184  60.1665926  41.9383860
  42.3386240  28.6978459  53.1361246  43.1299067  28.3017874  53.5011530
  42.6185846  29.0620661  52.2963619  64.1372871  31.4779639  47.4964046
  63.8439703  30.5821657  47.6629734  65.0183725  31.5146136  47.8686619
   5.2156866  59.7562838  10.3859782   5.6210792  60.5359316  10.7654905
   5.5287731  59.0342236  10.9308040  64.4968176  36.6086984  40.7739067
  65.4054165  36.8411517  40.5824947  64.2219257  36.0800433  40.0247765
   7.7342212  29.9287271  29.8073912   8.3924282  29.3963528  30.2541232
   7.5155342  29.4289780  29.0208435  52.2072188  52.6894797  27.6035852
  51.3088218  52.9422273  27.8162641  52.6579896  52.6742424  28.4478636
  48.1939860  24.1032430   9.1203565  47.2370644  24.1172191   9.1019649
  48.4409399  24.9830505   9.4052811  38.6773133  26.3833737  61.2969255
  38.1809235  26.9155526  60.6751442  38.4454703  25.4807949  61.0782194
  53.5874653  29.2725134  45.8909178  53.8319111  29.8561740  46.6091204
  52.7294636  28.9303088  46.1418295  59.9766064  45.5193758  33.1045461
  59.6510983  44.7134638  32.7035666  60.0450516  46.1380243  32.3773432
  72.1286583  30.5878806  28.2191825  71.5100813  31.2664413  28.4896541
  72.9662323  31.0446286  28.1412172   6.9492646  10.1397821   1.6177912
   6.9819255   9.5708915   0.8486814   7.8404112  10.1221534   1.9667597
   0.8443010  61.2317371  52.2807121   0.2766788  61.9941711  52.1678782
   0.8754909  60.8260441  51.4142990  10.2344374  50.9612323   7.2767753
   9.9077705  51.6577257   7.8463526   9.5363764  50.3062965   7.2747822
  14.6479404   4.1316283  45.7006073  13.8772381   3.6128217  45.9310436
  14.2956913   4.9859893  45.4511595  74.4696923   8.1190321  28.8432665
  73.9316101   8.0743524  29.6336431  74.3145295   7.2847482  28.4004087
  49.9160118  43.3208772   5.0780077  50.2675124  42.4576875   5.2961464
  50.5629797  43.9368316   5.4219074  32.8827767   7.3222382  42.1135902
  33.5547356   7.5006516  41.4556599  33.1801514   6.5234216  42.5491381
  67.3946524  47.9578829  48.6270714  67.3807335  47.0104122  48.4916496
  66.4741087  48.2181215  48.5938787   6.4913706  49.3610455   8.8817901
   6.4967827  49.1363372   9.8122282   5.5970816  49.6571554   8.7121029
  51.1087056  25.8004448   7.4446840  51.8108864  26.3365337   7.8131695
  50.3105374  26.1399957   7.8494949  35.7107468  43.4505340   3.7527389
  35.7582589  44.4044801   3.6898489  36.6158791  43.1746408   3.8971205
  13.2299888  62.0810413  50.5353069  13.6410415  61.2175703  50.4943132
  13.0683697  62.3130322  49.6208191  66.1409903  47.4759150  39.3662167
  65.7690954  48.3573771  39.3354559  65.9518337  47.1059275  38.5039163
  10.4680581   3.0399057  14.5996351  10.8405347   3.9092514  14.4522161
  10.0657339   3.0955478  15.4663915  68.4801531  69.1231871  42.8873253
  69.2009163  69.4664288  43.4154463  68.8090801  68.2922792  42.5443459
  67.2575156  37.0528348  16.7204320  67.4092976  36.4050896  16.0322297
  67.0583550  36.5328725  17.4990273  49.6137142  34.2742109  52.0158815
  48.6905098  34.0903020  52.1893930  50.0880194  33.6037970  52.5076246
  55.8238506  33.3656836  50.5452061  56.6129637  33.8161182  50.2441359
  55.1262283  34.0138197  50.4478788  62.2810475   5.4547150  38.7831426
  63.2321040   5.5577643  38.8163686  61.9862191   6.1431535  38.1870246
  59.1381216  10.3278685  60.1687527  59.5576477  10.3676558  59.3093109
  58.2898140   9.9168599  60.0023890  19.7027020  41.6043992  12.4628229
  20.1855044  42.1192433  13.1094045  20.3537850  41.3859321  11.7960424
  67.0758343  49.2671299  31.5745735  67.7875662  48.6707544  31.3421822
  66.6368008  48.8407993  32.3105907  46.0755797   7.3605940   9.8830671
  46.3155384   7.7126953   9.0259380  45.1199074   7.3106167   9.8624677
  65.6708737  57.7441332  10.2313108  66.3853569  57.1086809  10.2753944
  65.9321804  58.4405157  10.8338041  58.6443062  12.0089313  17.7909870
  58.3904667  12.8302833  18.2119102  59.2024632  11.5724823  18.4345741
  62.0922279  56.5842724  35.2896070  63.0013752  56.6160583  34.9918127
  61.5926075  56.9820929  34.5766211  66.3802862  34.2572975  55.7370090
  66.3067436  34.2946267  54.7833729  65.7823086  33.5562062  55.9960890
  69.9273825  30.1878548  30.8908892  69.1630745  29.7792864  30.4845119
  69.6219778  31.0548949  31.1577296  63.8009930  38.1077623  54.8592186
  64.5461607  38.0963206  54.2585278  64.1413307  38.5159898  55.6553030
  40.2363320  16.0251257  11.1225815  39.9653740  15.3828642  10.4666014
  39.7300501  15.7988187  11.9027729  45.9506989  43.2038736  51.0518742
  45.5182409  43.2816887  51.9022608  46.4196539  44.0314579  50.9450293
  33.5769482  13.7136289  21.2225408  33.2364483  14.5600101  21.5122480
  33.1002589  13.5278961  20.4135294  57.0451784  57.9813910  31.7794418
  56.4501762  57.4842310  32.3407221  56.9839811  57.5522757  30.9260106
  62.0744991  55.3324604  60.0431061  61.6733932  54.5424223  59.6809101
  61.8686342  56.0183525  59.4079685  42.4431372  18.9254379  45.0854254
  41.7074347  19.5080948  45.2737951  42.6419544  18.5114837  45.9252787
  51.5023565  41.6124773  40.1573515  50.7493830  42.2019291  40.1998425
  52.0950270  42.0258713  39.5295930  52.1214151  57.5486231  32.2008133
  52.5965977  57.7634954  31.3981533  52.7056456  57.8258801  32.9065299
  52.7948570  52.9333830  20.9762120  52.8647947  53.7686920  21.4383769
  53.5348749  52.4187422  21.2983131  66.8157692   9.3505832   2.3816318
  66.4113433  10.2119896   2.2784109  66.0771377   8.7483522   2.4709387
   4.3567677  22.4737331   5.5784578   4.8583455  21.6651699   5.6827230
   5.0197931  23.1518814   5.4490442  23.1321629  23.3469316  15.9031696
  23.7284096  22.6523563  16.1829586  23.1839474  23.3364650  14.9474306
  62.9284334  51.2040043  28.9011407  62.1580219  51.4157486  29.4282675
  63.6093092  51.0014391  29.5427060  16.3638834  16.6130002  49.5211124
  16.9693855  17.1793397  49.9995041  15.9130243  17.2016080  48.9157200
  63.3469725  64.9261093  55.4350996  62.8931379  65.7120991  55.1309872
  62.6678419  64.2520285  55.4602575  67.0411730  60.6441259  46.4791107
  66.2706947  60.1974726  46.8299580  66.8699360  61.5733051  46.6325331
  37.8468041  69.3284930  10.1555700  37.9436497  68.3911861   9.9873133
  38.5768322  69.7326959   9.6866197  53.6346884  32.4518463  17.5743313
  54.4760151  32.5404712  18.0221577  53.5495873  31.5130445  17.4080629
  74.9385563   0.9154923  58.2508230  74.3676249   0.6677039  58.9780617
  74.4325320   0.7041056  57.4662924  66.3098494  57.0353855  50.5382509
  66.5097014  56.6340078  49.6925611  66.2410847  57.9711593  50.3489656
  53.5608912  35.8468270  43.6223555  53.2950783  35.5296206  44.4854641
  54.5091105  35.9588575  43.6899281  19.1943029  53.7182285  22.5736971
  19.5149426  53.7304498  23.4755201  19.5988087  52.9420604  22.1861811
  64.4014950  10.9613582   4.8303242  63.6443158  11.0648939   5.4066868
  65.0550957  11.5653965   5.1826877   7.6982868  24.2259192  58.1072617
   7.2827328  23.7447095  58.8227940   7.1684540  24.0162444  57.3381424
  16.0762791  49.8402156   0.0532646  15.4445223  49.1476203   0.2467270
  16.6232208  49.8912979   0.8371515  35.0270577   3.5572240  17.2830458
  34.3261214   3.6684677  16.6407509  35.6676455   4.2318508  17.0577497
   5.0824440  29.4064450   6.8556416   5.4374779  29.0252781   7.6586956
   5.7303798  29.1952682   6.1834687  49.3970680  36.8821239  51.0112619
  49.8320246  37.4550843  51.6427374  49.3949461  36.0215974  51.4304543
  63.8434553  48.9753675  42.7447557  64.1572142  48.0723047  42.6971769
  63.3331394  49.0941381  41.9436932  68.4538221  55.7680511  53.0011606
  68.7933826  55.1705933  52.3348475  69.1665888  55.8502626  53.6347532
  62.5843716  51.0819006  37.8083110  62.4556732  51.8817711  37.2985339
  62.1148586  50.4071712  37.3178792  69.0852642  56.0230398  28.4951568
  69.6831942  56.5783167  27.9947782  68.2131481  56.2778473  28.1939578
  57.7619553  44.4982147  38.7747884  57.0821476  44.4259787  39.4447660
  57.5311613  43.8327026  38.1266665  64.4169474  13.5577273  36.0575557
  64.4389343  14.4566357  35.7293606  64.1910362  13.6462724  36.9834924
  72.0809603  27.5776362  60.9581232  72.0777369  26.8032813  60.3954506
  73.0062437  27.7308083  61.1494732  28.9349003   1.6115543   8.7411613
  28.9229031   2.0819518   7.9076071  29.1951676   0.7200596   8.5093613
   1.4152706  59.7330475  16.5632522   1.2847364  58.9965677  17.1605706
   1.0306776  60.4819393  17.0187521  60.4344749  38.0371547  50.2414989
  60.9638309  37.2686338  50.4545546  60.1295233  37.8777957  49.3482780
  49.4765234  43.3941507  40.8124876  48.8133860  43.7148285  40.2012253
  49.9264622  44.1835499  41.1135578  58.2049131  36.2321067  51.5606499
  58.1850624  35.8006716  50.7064247  58.8628101  36.9208908  51.4658689
  52.6262856  19.8303223  33.8272047  51.9251966  19.1860390  33.7292242
  52.7968264  19.8574042  34.7687006  14.0263847  46.5749074   6.9839067
  14.4955925  47.4036516   7.0801182  13.4447435  46.7143406   6.2365885
  21.8594030   2.0562537  40.1888800  22.5160507   2.1313269  39.4964862
  21.8051008   1.1172850  40.3666830  46.5345669  10.2810037  36.9529653
  46.2297153  10.8048618  36.2121105  46.3332844  10.8140111  37.7221346
  20.4513045  53.5789701  25.2362032  20.0882883  53.3823129  26.0997934
  21.3166161  53.1697771  25.2412863  70.7680225  48.0509853  50.8884382
  70.7046700  48.6391735  51.6409349  71.6916227  48.0801487  50.6387377
   5.0666559   1.7965546  43.2377386   5.9303081   2.1098980  43.5063553
   4.4985235   2.5628209  43.3170462   6.8916515  60.8387603  32.5878687
   6.4558415  60.0134863  32.8005190   7.4660162  61.0058106  33.3351488
  53.5344887  38.7248397  45.2313471  53.3188772  38.4500933  46.1225605
  52.7024651  39.0247917  44.8652840  60.5226326  43.6727715  42.3303747
  60.6897640  43.0985165  41.5830231  60.6062460  43.1021261  43.0943155
  16.3642681  18.8293445  58.5555315  15.7073677  19.1897619  57.9598713
  16.9086159  19.5796764  58.7941122  31.3573909  24.5518160  56.8406153
  31.3845682  25.5076528  56.7974043  31.6271186  24.2648506  55.9681892
  52.8491640  49.4187355  48.2232189  52.9680300  48.5818005  48.6722708
  53.2036877  50.0685978  48.8300323  22.7574543   6.0618050  47.3980093
  22.4647287   5.3170855  46.8727064  23.6353592   6.2561209  47.0697498
  16.1863125  56.3960934  23.1678820  16.4551914  56.3333273  22.2513700
  15.4624260  55.7749844  23.2481933  14.7926891   9.8556465  52.9337072
  15.3097332  10.3878343  53.5384130  15.2657306   9.0251738  52.8809929
   1.4960674  57.9377736  12.4387045   1.8998150  58.8035883  12.3788376
   1.5298704  57.7216543  13.3705730  50.7934284  39.0163279  39.0009594
  50.1633263  39.2552519  38.3211660  50.8824539  39.8067212  39.5334864
  53.7474775  64.7235918  52.2190285  53.9450836  64.4585371  53.1173229
  53.7617016  63.9070463  51.7197466  65.1634327   2.3804028  39.3440366
  64.4148675   1.7846616  39.3751884  64.7922674   3.2416423  39.5357108
  67.8250074   7.0286864  58.2957983  68.3675003   6.4238000  57.7897930
  67.3261595   7.5115466  57.6368427  52.5137663  36.2513924  51.9947529
  51.7241049  36.7703390  52.1475935  53.1780291  36.6560960  52.5526047
  12.0580105   2.8671534  48.3081102  11.7251209   3.2798178  49.1050577
  12.0006088   1.9277938  48.4828663   1.4577711  35.2811956  57.2378445
   1.3614977  36.2273431  57.3463249   2.1487844  35.0385356  57.8541613
  73.5827112  17.8475404  34.2388964  73.9343214  17.0097089  34.5399642
  72.6366711  17.7680349  34.3610120  47.1731997  67.7073669  52.6780319
  47.9311466  68.2904720  52.6363277  46.5746307  68.1360054  53.2897663
  52.6699495  37.1992612  56.6277790  52.0594835  37.8554893  56.2917328
  52.7545357  37.4052954  57.5587034  49.5661517  24.1256210   6.2293691
  48.9385004  23.6311218   6.7564030  50.1877518  24.4786903   6.8659134
  48.1816740  49.3756124  14.0349359  47.9214211  49.3689939  13.1138153
  48.1230994  48.4597513  14.3069620  62.4908543  56.8897772  19.9205256
  62.2799349  57.7022362  19.4604671  62.9707146  56.3679647  19.2773461
  70.0413275  46.6745234  58.5449314  69.7831583  46.8695021  59.4458008
  70.1539373  47.5330496  58.1369066  37.0174094   1.6029140  30.6690187
  37.0058508   2.5580784  30.7303686  36.0967036   1.3479396  30.7283659
  35.4865841   5.7461102  56.9816875  35.0663857   4.9034531  56.8096781
  34.9098114   6.1770375  57.6124525  39.1234211   2.0265181  37.2543335
  38.7112908   1.1736377  37.3920941  39.9341873   1.8278868  36.7858934
  10.5024326  50.7617188  40.7619190   9.9431122  50.1027918  40.3505659
   9.9780643  51.5624189  40.7496262   5.2901733  51.3753843  58.8620806
   4.6965874  52.1021414  59.0510702   5.6125534  51.1000633  59.7202730
  20.1065020  11.9853337  60.2307940  20.5480246  11.3592274  60.8046246
  20.5277256  11.8681367  59.3792868  62.7897564   1.3685162  42.7696037
  62.6364771   2.1327861  42.2140598  63.6941854   1.1154778  42.5846291
  15.5951758   4.5168230   5.7687063  14.6782442   4.7048661   5.5684442
  15.7549448   3.6585828   5.3761167   8.8210380  30.0619864  37.1255565
   9.5281017  29.6324205  36.6441274   8.5751713  30.8064413  36.5764046
  73.0468416  58.0449152  29.9204874  72.9391336  58.9540672  30.1999116
  73.1884527  57.5596952  30.7333422  18.6805792  30.6232425  20.0759573
  18.1713314  30.1896021  20.7606859  19.5789786  30.3267166  20.2215071
  16.4335811  29.8724222  50.1201725  15.8831203  30.0586128  50.8808041
  16.3002384  30.6211925  49.5389748  43.7794896  14.7539303  16.1508341
  43.4459801  15.2726814  15.4187841  44.0087099  15.4008838  16.8180294
  24.7255377   3.7051566  47.5720644  24.8153357   2.9347499  48.1329918
  24.0054468   4.2017873  47.9607248  46.6314764  43.5000440   8.0613537
  46.0983391  44.2454645   7.7850504  47.4876614  43.8787529   8.2607622
  66.2942854   3.6406358  47.6211691  65.6277386   2.9921372  47.3944521
  66.8773190   3.1831105  48.2269526  24.1042125  63.4545803  60.2267170
  24.6013248  63.2250214  59.4415998  23.2528770  63.7410116  59.8959351
  59.7278738  60.3890705  29.9010921  59.8482418  59.4468594  30.0193548
  58.8732624  60.5722046  30.2913904  50.8217096  66.3939714  40.6767464
  51.0847855  66.1828375  41.5725422  51.3339806  67.1711445  40.4535484
   0.5751074  47.1684456  56.8498039  -0.2495587  46.9231606  57.2693157
   1.0208881  46.3360405  56.6929197  22.5343565   7.8261407  11.9332647
  22.9341368   7.7967675  12.8024852  22.0602850   8.6575110  11.9156432
  29.0228466   7.6061852  54.4655848  29.9273542   7.7035744  54.1679096
  28.5414270   7.3346503  53.6840916  49.6482420  68.7291050  27.0207906
  48.8895893  69.2737770  26.8110085  49.5762634  68.5704470  27.9620028
  60.1761436  51.3669538  44.8596001  59.9064779  50.7098103  44.2179823
  60.3899240  50.8620358  45.6441975  56.9698143  57.7827549  46.3477850
  57.8468323  58.1554985  46.2576008  56.6089487  58.2053423  47.1271610
  54.9990320  62.0913696  39.4796181  55.5706787  62.6099157  40.0458002
  54.2512655  62.6631546  39.3060017  63.3278294  19.7258588   9.5687361
  63.7105580  20.4082128  10.1202268  63.5282154  20.0006267   8.6739893
  13.2107023  19.8489030  49.3939352  13.2264141  20.6940587  48.9448214
  12.2821001  19.6226056  49.4460678  28.4780808  50.3844186   0.1395912
  28.3567210  50.9886190   0.8720131  28.0046101  49.5942995   0.3999109
  39.9380751  33.9035198   8.5586424  39.4114418  34.4188997   9.1696091
  39.7367354  32.9936573   8.7773676  32.0387526  38.6299726  20.3981275
  31.2321730  38.2200262  20.0857229  32.0401736  39.4964286  19.9913282
  72.9638624  44.4762516  54.9653912  72.6752377  43.6983728  55.4427052
  73.2399035  45.0875711  55.6482697   0.8458603  64.5040274  47.7028275
   1.1905420  64.4331884  48.5930014  -0.0103771  64.0780210  47.7429247
  47.6602145  18.5023185   9.7810287  47.4163886  17.7049944  10.2511949
  48.2265921  18.9759084  10.3902550  13.6430919  15.7036066  50.6555271
  13.6625469  14.7469032  50.6794405  14.4517601  15.9484434  50.2056980
  60.6298971  43.2731533  52.1895361  60.1098967  42.4726009  52.2598886
  60.7064676  43.5889196  53.0899048  71.1507082  38.8633108  59.7142744
  71.4946842  38.3298969  58.9977646  71.8431807  38.8521075  60.3750229
  53.9840130   8.7841780  33.2553172  53.3530335   8.8878329  32.5430322
  54.5062641   9.5859845  33.2312202  67.3265219  57.1633244  41.4055300
  68.0069447  57.8257465  41.5257597  67.8037024  56.3345766  41.3642597
   7.8183639  63.0729580  48.1470251   7.7711666  62.7490568  49.0465212
   8.3967197  63.8340616  48.1965590   3.1255424  56.4770937  50.6452417
   3.4800709  57.3488045  50.4701376   2.2566974  56.4867926  50.2436781
  50.1560135   5.4772875  13.3751554  49.9311848   5.6191656  12.4556131
  50.5610629   6.2991115  13.6522360   9.8416031  43.4381342  14.1008687
  10.3667915  44.2375040  14.1384137   9.5767963  43.3683920  13.1836736
  57.4969216   5.6706735  23.1180162  57.5725766   6.0736105  23.9829702
  58.2563610   5.9963104  22.6348371  61.8874025  63.9266968  32.7781653
  62.1765900  63.5394859  31.9519281  60.9471416  63.7501383  32.8092837
  66.9409180  42.8614664  39.2204809  65.9987211  43.0193758  39.1608739
  67.2516537  43.5043144  39.8579931  67.2819567  41.0602331  41.4013433
  67.1521521  41.5731096  40.6036377  67.1303034  41.6819620  42.1131611
  61.2868071  57.1216536  41.3148785  60.5021191  56.9443130  40.7961798
  61.3829374  56.3512993  41.8748283  73.9694992  66.8694414  15.7098169
  73.1498448  67.0846595  16.1548681  74.0237204  65.9149016  15.7561416
  22.6527886  70.1656712  22.3253698  23.5744862  69.9986256  22.5223417
  22.1732668  69.7009004  23.0111379  25.9838204  56.8340386   6.2431688
  25.4150251  57.2156013   5.5745048  25.3829626  56.4046468   6.8521232
  57.8346252  55.1601028  45.4048443  57.3233986  54.4814539  45.8456516
  57.3816538  55.9764242  45.6161928  35.1826099  26.8489487  56.8708706
  35.0551228  27.7036126  56.4591360  36.0381798  26.9127972  57.2953129
  16.8983543  56.8168688  48.2485294  17.7642143  57.1137714  47.9685926
  16.9390476  55.8628845  48.1815863  10.2353370  55.9693956  39.8947549
  10.0391090  55.1803732  40.3999090  10.3195560  56.6599464  40.5522299
   0.3847158  40.5924702  59.4530678   1.2921798  40.6576347  59.7505426
   0.2410019  41.3913631  58.9457703  60.5997487  24.1017601  17.0232220
  60.2764054  24.5422384  17.8091307  61.1908455  23.4253379  17.3538132
  60.3324366  44.7465515  46.9191647  60.3821468  44.8723793  47.8667545
  60.1835728  43.8073492  46.8097496  21.8761416  26.6446897  10.6955786
  22.1862240  27.4853346  11.0323257  21.4157982  26.2459537  11.4340372
  16.2616781  23.9373238  12.5279868  16.2905554  23.8705285  13.4824169
  16.6544012  23.1209977  12.2187686   9.5803265  25.9668382  38.0978608
   8.9633659  26.1473210  37.3886251  10.2891211  26.5962155  37.9646921
  55.6440850   4.8930141   5.7516165  56.3777657   5.2385160   6.2601156
  55.2145310   4.2735097   6.3414688   0.9112696  10.7971604  52.6989460
   1.1627344   9.9909909  52.2482824   0.1050667  11.0736306  52.2632456
  64.7534132  46.5349913  45.3745461  63.9280701  46.9566441  45.6138086
  64.5583820  46.0717630  44.5599222  47.3264360  24.6744251  49.3724012
  46.9218779  25.3877234  48.8786697  47.7783966  25.1096940  50.0952482
  12.4741177  17.9865105  40.6567812  13.2769350  18.3589299  41.0214996
  11.8132595  18.1326325  41.3336515  50.7717991  60.3307867  25.6616998
  50.1935625  60.9233999  26.1419916  50.5103493  59.4559574  25.9490132
  42.6743130  10.1393445  38.2569242  42.0731072  10.0196107  37.5217748
  43.3418755  10.7397206  37.9250622  12.5920220  23.2375166   7.3772306
  12.3485871  23.3347389   8.2978363  13.4855147  23.5774156   7.3285646
  19.1438917  12.7412160  49.0111923  18.3511690  12.4688847  49.4734240
  19.4093851  13.5507806  49.4474888   0.8091946  51.6662141  13.1174631
   1.0714527  52.1207258  12.3169155  -0.1442651  51.6065141  13.0575914
  35.3529520  38.7118980  13.4267731  35.3104563  37.8519270  13.8449640
  35.3002520  39.3339464  14.1523809  26.9259934   8.6343129  47.9800701
  26.7558436   8.7984212  48.9076233  27.8405098   8.8881524  47.8557444
  53.6735773  65.5396032  25.9147120  53.1794262  65.9727430  25.2186990
  53.8777685  64.6741056  25.5605173  37.0343212  16.6194852  44.2638779
  37.1053604  15.6667931  44.3235445  36.4525417  16.8618710  44.9843121
   2.4974859  40.0483561  32.4341702   2.3597133  40.5677843  31.6420555
   2.9861057  39.2813158  32.1356297  15.9793635  32.9324457  14.2000742
  15.0233837  32.8946897  14.1699142  16.1947127  33.8082000  13.8792820
  33.5071011  34.6003887  16.1830492  33.1254597  34.0767309  15.4785127
  32.8679200  35.2959177  16.3377304   4.4231689  60.3999424  49.0625668
   4.4125927  61.3305902  48.8389349   5.3311718  60.1305962  48.9239216
   8.4285406   4.2689164  52.2712088   7.7948908   4.5891841  52.9131937
   8.7830929   3.4704669  52.6623726  58.1634092  45.5135155  51.4570522
  57.4247313  45.8548689  51.9610977  57.7768850  45.2277040  50.6293201
  28.7053732   7.8403647  17.5626242  28.9824156   7.3233779  16.8061841
  29.5118860   7.9976971  18.0535579  39.1179295  33.7288591   0.3058643
  39.4015189  33.1601783   1.0216923  39.6704026  34.5065567   0.3845520
  46.4451647  48.9629555   3.5320690  46.8685627  49.6886683   3.9906704
  45.7721567  48.6558390   4.1394955  61.1230183  57.0610142  56.2964725
  62.0350170  57.2604847  56.0850430  61.0151863  57.3612642  57.1989441
  10.0065608  49.8289606   3.5998840   9.8233934  50.3484079   4.3827362
  10.8175989  50.1989862   3.2512684  38.0625939  66.8421364   9.3369597
  38.8823414  66.3513899   9.2785478  37.6450729  66.7132425   8.4853178
  67.8504133  69.3399048  39.9915791  67.8619146  69.6877909  40.8832502
  68.5607815  68.6985397  39.9755263  44.8913193  65.2042627  60.4886580
  44.7937012  64.6717453  61.2780428  45.2733755  64.6088839  59.8438358
   1.0560803   2.0390208  34.7817278   0.7041124   2.9092772  34.9688315
   0.8527330   1.5252860  35.5633688  35.7848457   4.5939191  29.5015621
  34.9827103   4.1296323  29.2622828  35.7903961   4.5848306  30.4587030
  10.8566383  16.1714585  50.7761383  10.6175045  16.5187772  49.9168253
  11.7504601  15.8480199  50.6634712  27.2352767  57.4834538   1.3280219
  26.9761372  58.1671667   0.7102717  28.1655407  57.6438761   1.4864625
  45.8818913  11.8987477  38.9733696  45.3520823  12.6781905  38.8060308
  46.6280699  12.2204304  39.4793105  15.3374008   5.5057080  30.8670545
  14.9102596   6.3302071  30.6347084  14.8336367   5.1764233  31.6113853
  72.4571943  56.2361574  33.1163502  72.7250004  55.7558727  32.3328733
  73.1639194  56.8642664  33.2655001  26.7392178  18.5944912   0.7172985
  26.3642903  19.3584224   0.2790422  26.8558045  17.9507467   0.0185652
  14.2217155   3.7830230  16.1967964  13.9093514   3.1276652  16.8206281
  14.1442676   4.6147248  16.6642446  11.5788074  29.9735424  28.6220045
  12.3877640  29.5890638  28.2843752  11.4164682  29.5078489  29.4423742
  41.7392067   7.9998524  16.3647902  41.0618786   8.4356149  15.8475220
  41.2543873   7.4971707  17.0193779  41.9658013  25.0426599   6.7488785
  42.5997229  24.8408338   6.0606642  41.1722966  25.2954313   6.2769718
  41.5779957  67.3498560  38.2534671  40.9712537  66.8497540  38.7993574
  42.4299749  67.2337003  38.6740255   5.4210460  19.2618859  41.4919949
   4.8999632  19.1815102  42.2908974   6.1054600  19.8928452  41.7149162
  -0.0993120  67.8606558  19.5624816   0.7671726  67.5010157  19.3724823
  -0.3577482  68.3027220  18.7537682  13.2660568  52.9553223  21.7296314
  13.4403980  53.8965034  21.7264032  13.9103401  52.5944757  22.3386621
  34.5345187  54.2231464  36.6486239  34.3368053  54.5761108  35.7811213
  34.1063809  54.8265171  37.2559738   7.5554390  14.4420358  28.3392019
   8.3953495  14.8765346  28.4874887   7.0615383  14.5941612  29.1449041
  31.7556481  23.3251031  35.0190759  31.5011410  23.4972127  35.9256268
  31.3239674  22.4988492  34.8018599  44.0559645  19.5624992  10.0156612
  43.6954899  20.1840421  10.6480951  43.6710663  18.7210533  10.2607269
  11.3320418  43.0788585   3.9604301  11.7558046  42.3884508   4.4703312
  11.6783543  43.8931152   4.3255062  43.2278109  66.5905046  54.2655134
  42.8832722  65.6980991  54.2318344  42.5943708  67.1106243  53.7710857
  56.8941021  63.8761854   5.1096660  56.9839811  63.7954521   4.1601211
  56.4414978  64.7098970   5.2373832  51.8520279  17.2091171  10.4284639
  50.9711380  16.8387052  10.4837866  52.2427626  16.7847368   9.6646137
  65.3299046  37.9521108  30.8145332  64.4532919  37.7347541  30.4974580
  65.8420992  37.1571445  30.6664848  51.0299960  69.8938717  21.7310114
  50.3235308  69.2771186  21.9227285  51.5226046  69.9557246  22.5493879
  73.6949205  69.3791962  28.8823938  72.9741907  69.7925425  28.4070802
  74.4522190  69.4823503  28.3061194  66.9557047  40.0333977  36.1235666
  66.7238188  39.7826362  37.0177579  66.2099266  40.5502272  35.8187151
  10.9310249  18.7161668  29.2963529  11.3346533  19.3898900  29.8435354
  10.8729176  19.1156037  28.4284210  44.8214741  38.9113304   0.4268856
  44.1835280  39.3358585  -0.1467257  45.5026122  38.5938188  -0.1659661
   5.1000250  32.1513605  47.9427814   4.8133171  33.0614519  47.8668451
   4.5353020  31.6710234  47.3373127  21.7138787  11.7528650   1.1599274
  21.7910214  11.4560625   0.2531786  21.8776770  10.9684488   1.6834612
  66.7419004  65.0557661  60.6938744  66.1433554  65.4651642  60.0690842
  66.9652271  65.7567692  61.3062096  42.5144167  25.8567545   4.0147276
  42.4849387  26.6527101   4.5455952  41.6185732  25.7485315   3.6953850
  44.6077824  53.7311602  58.1016493  44.4368696  54.6302366  58.3821487
  45.1969624  53.3798790  58.7692595  67.8675461  45.3297806  56.1986732
  67.8613615  45.7059097  55.3184938  68.1048489  46.0604239  56.7697048
  41.1451025  22.8658601   0.7081766  41.8414088  23.5072633   0.5667848
  41.5425415  22.0261451   0.4776258  42.3941521  65.9028400  10.8471460
  41.7441467  65.5244888  11.4392443  43.1760887  65.3657926  10.9751768
  71.4532948  42.4900579  51.8692255  71.3313913  42.0737791  51.0159492
  71.2125254  43.4053135  51.7257929  23.1565941  14.2600536  55.3615332
  22.2808636  14.6328092  55.4634190  23.3129108  13.7885952  56.1797762
  61.7552423  30.6228542  56.5980577  62.0733309  31.5219259  56.5160513
  61.2115240  30.6320739  57.3857832  24.1288460  61.6556454  31.1484361
  23.4206188  61.1979103  31.6013455  24.6064747  60.9641457  30.6902528
   7.2942722  61.1323643  44.4697237   7.5294483  62.0531654  44.3555069
   6.9058502  61.0909843  45.3435946   0.3165535  16.7606576  57.5866127
   0.9287743  16.9031747  58.3084869  -0.3109594  17.4798138  57.6592302
  43.7343887  65.6351699  51.4400740  43.2097916  66.1873521  52.0198316
  43.3026795  64.7812833  51.4672632   1.7628817   1.9354565  42.0993614
   2.5080494   2.2660191  41.5976810   2.0263819   2.0361073  43.0140591
  60.0177526  53.5085440  22.7683091  60.5454588  52.7957010  22.4082828
  60.2636766  53.5453653  23.6926460  11.6232605  23.3182069   2.8383989
  12.0819517  24.1434881   2.9957170  11.1233039  23.1654379   3.6402292
  31.5464214   5.1750024  39.4577742  32.0953468   5.2022727  40.2414656
  32.1041588   5.5238278  38.7624431  65.8263874  41.1332655  52.9973173
  64.9752331  41.0099792  52.5771141  65.9632730  40.3309202  53.5010433
  71.0971371  64.5379676  27.5503988  71.7700640  64.4053425  26.8827028
  71.2488667  63.8382281  28.1856699  20.2074742  11.2759960  36.6707587
  19.4966197  10.8158231  37.1170306  20.9580946  10.6866837  36.7450070
  23.4687495   8.1872439  26.2183404  22.6179242   8.2287884  25.7817626
  24.1062284   8.2626057  25.5082870  23.4327205  64.9554567  10.3914285
  23.1008991  65.6009732   9.7673798  23.9331707  65.4698621  11.0248053
  23.9646991  69.2643164  26.5235925  23.9778646  70.1692944  26.8351603
  23.8977464  69.3396698  25.5717158  24.2444309  53.2301538  21.8954539
  24.0431150  52.5316541  21.2727165  23.4508070  53.3162026  22.4236488
  16.6753467  61.1458825  25.4641032  16.4647421  60.2234761  25.3190303
  16.6916403  61.2409286  26.4164329  10.2086949  26.3199759  30.5464458
  10.4058897  27.1505070  30.9795284  10.1170588  26.5480852  29.6213508
  11.8281031  18.7419152  16.5303493  11.2050164  18.0290532  16.6711366
  12.4613488  18.6506355  17.2423196  13.5328281  26.0287452  54.1170883
  12.9140460  26.6211748  54.5441341  12.9910386  25.3088737  53.7938499
   3.4631666  57.7897231  40.5762815   3.1473073  56.9704299  40.1952028
   2.7230843  58.1170897  41.0874987  61.2374358  63.2840494  58.3722644
  60.8637290  64.0051320  57.8656929  61.1893587  63.5798362  59.2813464
  16.6937479  56.1046557  51.1178017  16.8792804  56.5304582  50.2808428
  16.8973192  55.1815550  50.9672213   2.1358524  17.9705024   8.9030963
   1.6534063  18.1880081   9.7006983   3.0161309  18.3147359   9.0542412
  28.8401524  40.9961910   2.4539108  27.9770521  40.8524920   2.8420324
  29.2140014  41.7166193   2.9613085  28.9957094  14.4550776  44.3844271
  28.9183259  15.2597404  43.8718224  29.7123456  13.9748478  43.9696455
  55.7529606  68.5573614  53.1790400  55.6275018  69.2441748  52.5242281
  54.9257441  68.0757670  53.1825161  33.9202595   7.7341932  31.7563868
  33.3746433   8.4686983  31.4752531  34.8027968   7.9673898  31.4683270
  39.4334301  70.1588598  33.8287854  39.4124397  69.9317898  32.8991461
  38.5846933  69.8709215  34.1648912  26.3036903  65.0699149  51.7422056
  26.9957288  65.6458782  52.0671368  26.7504533  64.4746225  51.1403227
  14.4429859  64.4087856  13.4500718  14.8465213  63.5453670  13.3611917
  15.1819786  65.0103466  13.5408759  20.2175173  66.1795039  48.7280416
  19.6919616  65.5716617  48.2078934  19.8366960  67.0392258  48.5489130
  65.4727372  69.1454743  23.2377625  66.2187394  69.2848489  23.8211036
  65.8600684  69.0810557  22.3648047   7.7649101  66.3253190  16.8414116
   8.6558589  66.0415448  16.6366804   7.6544508  67.1400438  16.3512552
  48.4110825  55.3007405  20.9935141  48.6610170  56.1325209  21.3958883
  47.4685981  55.2341275  21.1468697   8.5303744  59.7389381  36.5754008
   8.5486659  60.3301756  37.3279548   8.9643511  58.9438669  36.8848515
  20.1337934  14.1549230  19.5291913  19.5683169  14.8378634  19.8898280
  20.5585003  14.5679152  18.7773299  72.9780599  33.8889973  26.8757558
  72.1727653  33.4046380  27.0577645  72.7327343  34.8085730  26.9778728
  63.1950359  31.1217869  59.2698326  63.8176446  30.7480365  59.8934503
  63.0878310  30.4436743  58.6028225  69.8000415  62.5767986  29.6232343
  69.9611565  63.0667751  30.4295826  68.8504561  62.6111911  29.5077515
  34.4519711   3.1546745   2.8925747  34.0177774   3.1250098   2.0400323
  35.1536083   2.5069132   2.8266889  14.3666848  70.0462753  48.0983639
  13.6417040  70.0977615  48.7212467  14.0650090  70.5434609  47.3380804
  40.8837748  13.7834549  16.9170487  41.6547823  14.3259132  16.7511749
  40.6339264  13.9912462  17.8173995   6.6482300  17.0463955  37.9023266
   6.2101930  17.2650278  38.7248564   7.3143649  16.4047587  38.1488991
  65.1103505  50.0320117  38.6580658  65.5100914  50.6178384  38.0152225
  64.1694101  50.1815550  38.5658741  13.8875660  62.6911406   3.5082480
  13.2393798  63.1454568   2.9700255  14.4641861  63.3858679   3.8262004
  24.7539457  47.2214405  17.4814391  24.6032461  47.4996178  16.5780342
  23.8823684  47.0086639  17.8150821  36.4625311  20.0197697  42.8056479
  36.3722181  19.3625677  42.1156025  37.3221803  20.4117441  42.6520586
   4.9308512   4.3994880  46.0916948   5.5330080   4.9717015  46.5673113
   4.3700755   4.9985707  45.5988836  51.0471550  66.6775976  49.3674326
  50.2508624  67.1457903  49.1165447  51.7443918  67.3277687  49.2815876
  45.3906679  12.6563823  32.0815158  44.4613314  12.8716993  32.0027542
  45.5211210  11.9311798  31.4705372  21.3716793  11.6588354  24.7380924
  20.7336950  12.3723948  24.7316813  22.1958256  12.0766485  24.9879837
   2.3961999   5.5573040  25.7985306   1.4577824   5.7278472  25.7177854
   2.6002744   4.9855432  25.0584817  57.6166420  16.4334694  53.7427281
  56.9064812  17.0734683  53.7907391  58.4138302  16.9622877  53.7099849
  53.5170412   0.3853624  37.1356797  52.7354956   0.4442946  37.6851749
  54.1220856   1.0254930  37.5103593  13.0972675  48.7260331  25.2937479
  13.4066729  49.6316077  25.2728910  12.2305588  48.7596680  24.8888845
  45.7647324  13.3861768  50.6900263  45.0928164  12.9555988  51.2185669
  45.3003120  14.0928960  50.2415895  66.2801600  34.6812963  48.0745697
  65.4620838  34.9052644  48.5182190  66.3068485  35.2618051  47.3139620
  36.8852981  69.3188995  22.0947957  37.7182182  69.7242372  21.8535900
  36.6788801  69.6883598  22.9533529  57.0686769  28.9468789  39.7943401
  57.4593306  28.2159376  39.3154407  57.4474669  29.7276330  39.3903971
  37.1940565  13.9889336  45.0020361  37.0059538  13.5308516  44.1828823
  38.1497622  14.0223575  45.0437593  68.1169796  21.8436599  22.3995185
  67.7077687  21.0634351  22.0253181  68.5934537  22.2379804  21.6689587
  64.9470043   7.8637427   8.2833618  65.1505709   7.1379787   8.8733280
  64.6110296   8.5520619   8.8574445  45.6062555  18.1612003  17.1968877
  46.0363722  18.8513124  17.7018404  46.2561703  17.9018080  16.5437746
  63.2126522   5.6403279  47.9711342  63.0659628   6.4148659  48.5140991
  63.7726593   5.0764060  48.5046291  45.1119041  11.6965818  11.0000253
  45.6198883  11.5496135  10.2021623  44.8942041  10.8177447  11.3106477
  52.4066639   5.7990789   7.3996371  51.8738461   6.5797174   7.5511032
  53.2116985   5.9593225   7.8920496  45.5006933   8.2264125  60.8186913
  45.0371504   8.3805078  59.9955177  44.9212217   7.6486897  61.3153648
   4.4354713   6.7264688  56.5293789   3.6283815   6.5526271  57.0137548
   4.9046600   5.8921951  56.5384293  13.7852180  37.5975418  48.1751108
  13.1514633  37.5282645  47.4611235  13.6110294  38.4529090  48.5678387
  22.0138948  45.4878548  60.7492304  21.6095559  46.3498548  60.6507589
  21.5379970  45.0813934  61.4734808   4.7939867  28.9979887  27.5037622
   4.0024588  28.4735560  27.6249504   4.8551551  29.5266747  28.2993627
  24.4283231  46.4413421   7.1393347  23.7235531  47.0815723   7.0411551
  23.9791092  45.5984871   7.2028404  56.3091278  16.6802943  31.6384459
  56.2699318  16.1961484  30.8136439  55.3945589  16.8674946  31.8499851
  24.7450622  69.1357870  35.0926185  23.9746793  69.2620316  34.5387197
  24.6165546  68.2739680  35.4888320  20.8884597  27.3249388  30.6662893
  20.9587359  27.7900124  31.4999580  20.1705766  26.7055082  30.7973623
  47.5020266  32.7038598  55.3566265  47.7072239  32.9744887  56.2515497
  46.9161510  33.3860016  55.0285006   2.3633274  54.1659527   5.1549172
   1.8642410  54.2564456   5.9666783   2.8259453  53.3333509   5.2497375
  55.7211590  17.6497555  41.6532326  55.0811481  17.2631264  41.0556221
  55.3023386  18.4513068  41.9668245  51.5221643  25.9661293  49.3998194
  51.6390991  25.5528092  48.5444117  50.6901407  26.4339113  49.3280745
  14.0674595  32.1236895  16.8622560  13.4714178  32.5734012  16.2633200
  13.7942652  31.2069233  16.8285532  39.0739536  19.7829413  38.9152765
  38.4378123  20.4979229  38.8964772  39.2990136  19.6383655  37.9962134
  65.7316732  18.3354342  57.8729296  66.2880039  18.2320154  57.1008968
  64.8398972  18.3493757  57.5254059  12.5342453  17.9575050  11.5658557
  12.6015938  17.7799773  12.5040340  12.8847683  17.1711445  11.1475229
  54.5219278  20.5326557  32.1142602  54.1300869  20.0112271  31.4136863
  53.9105177  20.4487252  32.8459454  63.8024823  51.0143377   7.1577234
  64.7154776  50.7280160   7.1314354  63.3024374  50.2085937   7.2879667
  56.2296335  33.3331726  19.8175878  56.3991920  33.8919204  20.5760546
  55.7108036  32.6079429  20.1655645  20.6393846  62.2601317  40.6673717
  20.9161266  62.9749130  40.0940180  20.7464870  62.6080392  41.5526485
  15.3266323   4.9884415  28.1502175  14.4091308   5.2108300  27.9922104
  15.4526890   5.1427925  29.0864420  70.6746765  57.8819160  51.9336271
  70.7212182  56.9540612  51.7030811  71.4299270  58.2754652  51.4966536
  32.7953196  22.4414325  50.1567173  33.2989645  22.6250482  49.3637133
  33.4514213  22.1754289  50.8009243   9.9247921  16.9557977  45.6897163
   9.3333233  16.6966474  44.9831486  10.7894409  16.9839358  45.2800608
  67.1830650  53.8418143  56.3306665  66.8398794  53.3754651  57.0928860
  67.9741069  53.3591859  56.0907650  24.9058851  59.4046085  21.7317009
  25.1769575  58.5514741  21.3927078  25.7243713  59.8356406  21.9777226
  73.0991459  44.4318104  46.4366055  72.9725838  44.9536753  47.2289848
  73.1090403  45.0733852  45.7263088   2.3179773  29.6986981  17.2422714
   2.0038942  29.9233587  16.3664217   2.7248482  30.5029978  17.5644321
  44.9197483   8.0580914  37.3046780  45.4355335   8.8257295  37.0578408
  44.5358229   8.2893616  38.1504583  53.5141659  11.8342125  15.6144118
  52.9825115  11.0423005  15.6947351  54.4176054  11.5227771  15.6695235
  35.6966972  12.3091567  46.6464949  36.2826157  12.7254164  46.0143042
  35.5953598  12.9582775  47.3426294  13.1412475  35.1836915  60.0606777
  12.7029722  34.8822002  59.2649059  14.0723293  35.0420396  59.8896492
   4.8775677  45.9895553   3.9803476   4.6410946  45.7720722   4.8820181
   4.4436888  46.8264295   3.8141460  62.9761772  42.3471162  56.4218362
  62.3560505  41.9251386  55.8271872  63.5778312  42.8183916  55.8455156
  56.3227749  33.4384751  29.9842048  55.9826708  33.5103774  30.8760500
  56.0562325  32.5655198  29.6958756  73.6708089  54.7267620  30.9616709
  74.2165776  53.9469068  31.0626483  72.8729125  54.4077460  30.5399799
  41.7247009  16.0953510  31.4030957  42.6450253  16.2527943  31.1922669
  41.2730503  16.8867421  31.1099386   4.6774110  65.2544473   4.1858357
   4.9982461  64.3681507   4.0191779   5.4153713  65.8220719   3.9634687
  32.6250458  22.6634431  43.7421322  33.2118583  23.3552504  44.0475559
  32.0852256  23.0851173  43.0735397  29.4095199  47.8075388  59.8468563
  28.6257617  48.1097284  59.3879085  29.5529573  48.4608332  60.5315936
  64.5166159  36.6834879  43.5819864  65.2930641  37.2338867  43.4799051
  64.2078400  36.5367222  42.6879215  46.7140754  61.8249975  28.5807681
  47.0920213  61.9152300  29.4555521  45.8514675  62.2342192  28.6491656
  70.2839088  15.1161587  36.0784960  69.9377394  15.1417029  36.9705415
  71.2066126  14.8853815  36.1861634  55.4538107  25.4414415  55.3855705
  54.6068096  25.1522160  55.7249308  55.9656000  25.6517863  56.1666298
  68.2836199  12.5600171  34.8679543  68.4350252  13.3225358  35.4264092
  67.4526024  12.7448380  34.4303751  22.7507329  19.9553716   1.2153269
  22.4359679  20.2851009   0.3736422  21.9543123  19.7686541   1.7124008
  71.0962324  41.7628655  60.9949714  71.2882213  42.0588967  60.1051752
  71.8099289  41.1610589  61.2064003  44.9093628   2.6458785  13.5584128
  44.7332048   2.1826188  14.3773079  45.8232498   2.9212019  13.6307967
  30.7375765  21.1179519  47.7089882  30.2662277  21.6910982  47.1043682
  31.6586447  21.2247849  47.4713945  47.0900631   0.1812665  52.7037382
  47.7161741  -0.2083480  53.3139992  46.2668991   0.2106378  53.1913567
   6.7339520  65.3796376   8.7369461   6.0061363  65.0875415   8.1881256
   6.3344864  65.9835376   9.3630190   1.7553934  55.0834827  27.0717597
   1.4115556  55.8081238  27.5941610   2.7015122  55.1136188  27.2138214
  29.7919782  58.7044279  18.7691271  29.0458568  59.0382235  18.2710171
  29.3981632  58.2121830  19.4894290   4.4078553   9.9249363  10.8309042
   5.1978946  10.0128388  10.2976656   4.2444828  10.8072233  11.1642361
  43.4481195  57.6256622  12.8532953  44.3377010  57.8663982  13.1119890
  43.5287873  57.3594607  11.9374008  47.2023916  11.0274541  54.4277573
  47.1351194  10.9059560  53.4806871  47.3495340  11.9667268  54.5388794
  20.5887890  28.9081621  28.3285570  20.8182192  28.6227703  29.2129469
  21.1812258  29.6388316  28.1514239  31.9008287  68.7182620  39.6482515
  32.2205242  67.8794722  39.3159008  30.9713205  68.7278056  39.4198704
  58.9469787  56.4702062  39.6469831  59.0061983  55.5598943  39.9369073
  59.5485111  56.5246825  38.9044046  28.4801435  18.6314273  43.7108707
  28.1692481  18.1507695  42.9437065  27.6901484  18.7994349  44.2245960
  38.2894389   5.0231828  28.8222666  38.6589769   4.1999115  28.5030527
  37.4579409   4.7723903  29.2246885  12.1117020  14.3799686  13.7588871
  12.0700991  14.6021461  12.8287590  12.3027623  13.4421337  13.7728059
  67.4804505  70.2492641  24.8419857  67.5801786  70.9303489  24.1768479
  68.2505806  69.6917138  24.7312212  27.6668438  68.1372194  50.5070591
  26.7561468  68.3291098  50.7307673  27.6288685  67.8100197  49.6083212
   3.2840145  13.5759640  18.2152140   2.5515032  12.9676366  18.1172502
   4.0331796  13.1106615  17.8430891  53.3533192  23.9369011  59.2533159
  52.6614857  24.5603323  59.4745302  53.0086470  23.4529757  58.5028172
  37.7029395   1.5094489  60.7443953  37.5404096   1.6726969  61.6734600
  38.4288144   0.8855620  60.7342386  57.5649881   7.6636338  52.7330446
  57.7393770   8.5591072  53.0227804  56.6372585   7.5263047  52.9246092
  72.8750201  53.4801738  17.1795833  72.6456877  54.0502398  17.9135203
  73.8317414  53.4513085  17.1885788  24.7820505  62.9566894  54.7186327
  24.3006834  63.4762357  54.0747452  25.4957088  62.5587510  54.2200661
  11.2898457   9.5640212  35.7508063  10.7825077  10.2425599  35.3053570
  10.8621120   8.7441278  35.5037236   8.2638443  18.6785114  60.3011465
   9.1375721  18.3539009  60.5189848   8.2091320  18.5984576  59.3488741
  66.6737986   5.0458932  30.2341437  67.4645758   5.5329841  30.4657531
  66.0257912   5.7217646  30.0353527  51.3187790  16.7836642  30.9904885
  50.6006575  16.1922133  30.7652831  51.1227417  17.5905907  30.5143881
  53.8830090   2.4404065  35.2849460  53.0498075   2.8769144  35.4623508
  53.8017511   1.5870160  35.7108045  64.0812159   8.0188245   1.9635978
  63.4867001   8.7630290   1.8690279  63.6112595   7.4073935   2.5306323
  15.4708370  44.9506418  59.4122696  16.1004432  45.0758927  58.7022448
  15.3947338  45.8133714  59.8198700   3.2325462  39.8175688  10.5824489
   2.2819475  39.9294768  10.5911226   3.5781054  40.6894423  10.7738991
  36.5639448   6.2676692  17.0522749  36.9544888   7.1283543  16.9008541
  37.2890449   5.7275647  17.3665214  15.7887586  49.9214189  52.5091600
  15.5717119  50.5036025  51.7810249  16.3819154  50.4347818  53.0576706
  23.5190821   2.9369560  17.8837609  22.9159951   3.1256840  17.1648037
  23.8901949   3.7884825  18.1148648   8.5637192  21.0052670   0.2008695
   8.3040670  20.7901431   1.0967130   9.3101696  21.5956856   0.3030844
  44.1897249  23.1557465  37.8010774  43.6969233  23.1299615  36.9808841
  43.5277033  23.3173108  38.4732819  57.2636668  21.4374281   2.6733417
  57.9042617  21.6423000   1.9922418  56.5051166  21.9808425   2.4599666
  38.4365574  52.5087668   2.2634096  37.4821500  52.5469757   2.3256893
  38.6296109  51.5842165   2.1079464  39.7771168  17.8706014  50.1432705
  39.7578812  18.6556745  50.6905603  39.6245599  18.1938469  49.2553139
  39.6511035  29.3948922  54.0424757  40.5394344  29.1499421  53.7834405
  39.7739868  30.0515059  54.7280334  55.1481247   4.5066023  18.8694990
  55.4701519   4.2970070  19.7461975  54.5486307   3.7912324  18.6571741
   1.1115059  34.2329399  40.5241537   0.2241810  33.8880603  40.4244328
   1.1254748  34.6070354  41.4051104  33.5361704  70.3670806  20.6206059
  34.2940220  70.0071934  20.1597643  32.8778108  70.4928092  19.9372387
   8.7435445  66.1942242  21.0853386   9.2802890  65.9580015  21.8418670
   8.3145150  67.0106165  21.3416004  54.4647646   1.4212541  48.8481808
  54.1112328   0.7870927  49.4719505  55.2383947   0.9920675  48.4827709
  34.1493829  62.0486091  27.1158886  34.0693220  62.9946862  27.2373796
  33.4747156  61.8318211  26.4724159  29.4936403  65.4148094  17.6001155
  29.4314274  64.8909722  18.3988369  30.1984485  65.0045781  17.0989299
  15.7905662  35.8463454  47.8734970  14.9980343  36.3713861  47.7619267
  15.7456672  35.1934767  47.1749401  48.7311546  46.6364683   0.2374763
  48.9306537  45.7005586   0.2599401  47.9388324  46.7252494   0.7671661
  20.0229057  56.1219232  29.6739697  20.9702858  56.0079913  29.7495985
  19.6624502  55.2524357  29.8480296  74.5025015   5.5555457   5.6525588
  73.6122990   5.4073381   5.3334808  74.4428682   6.3636702   6.1620778
  20.8650716  53.7536900  53.9785433  21.3139328  54.5885842  54.1116142
  21.4862379  53.2249646  53.4777069  24.7306760  65.4097037  33.9073038
  25.3928980  65.9546809  34.3323874  24.2963251  65.9983303  33.2899785
  44.6826649   4.4803807  43.5193300  44.0280771   3.8566425  43.2051611
  44.1721821   5.1696205  43.9442921  58.5732063  59.3180458  11.9944584
  59.1715892  58.8001876  11.4559519  59.0934166  59.5676701  12.7581978
  48.5108042  31.7407036  42.3886824  48.2798052  30.9977555  41.8311024
  47.7657938  32.3370266  42.3139334  73.7717968  24.2983770  23.7912750
  73.4516042  23.9210272  22.9719377  73.2180485  23.9078450  24.4673514
  12.9956087  44.8931496  33.3091092  13.7774810  44.8395722  33.8586855
  13.0811723  45.7296602  32.8517675   7.5830909  68.1375562  57.5218725
   6.8532344  68.6179928  57.1310663   8.3137676  68.2811375  56.9204378
  24.8154807   6.8477774  28.3554268  24.8661828   5.8952481  28.2757425
  24.3632627   7.1308768  27.5607038  50.6457901  10.7043374  39.1832447
  50.8345985   9.7659457  39.1854739  50.6407070  10.9454274  38.2569194
   8.9705523  67.3826699  29.4489741   8.0660018  67.2592713  29.1612411
   8.8981875  67.6089014  30.3762364  36.8288986  62.5010480  16.3197250
  36.0972086  62.4694790  15.7033939  37.2558383  61.6492094  16.2284822
  18.4975199  64.0982093   9.4229193  18.9670281  63.7022175   8.6887617
  18.4494881  65.0284923   9.2027016  71.4703894   7.8656375  36.2787127
  71.3136292   6.9817114  35.9465504  70.6176949   8.1538367  36.6044116
   0.5179088  31.5230292  57.5620349  -0.2471955  30.9719026  57.7266740
   0.5834453  32.0798058  58.3378809   8.1731828  63.1242494  31.6451454
   8.4959968  63.4124063  32.4989533   7.7660140  62.2752099  31.8171215
  62.5773001   2.4763590  45.5994177  62.6116943   3.4262335  45.7124949
  62.7233553   2.3411722  44.6631336  35.8336449   9.4591755  34.5173407
  36.5348625   9.4194090  33.8670015  35.0435519   9.6370143  34.0070868
  56.1842442   2.3944540  14.4948447  56.8522358   2.3326445  15.1776361
  55.9100485   3.3114094  14.5103347  12.4021944  47.5861971  49.7209740
  13.3523091  47.5233953  49.6231604  12.0680436  47.5784676  48.8240290
  12.7768664  24.2189468  13.1593866  11.9133762  24.0001286  13.5097189
  13.1237892  24.8715307  13.7676735  56.4719009   4.7887793  36.4193082
  56.0350418   5.6327289  36.5339136  56.0495090   4.4026777  35.6520128
  56.1818758  41.7121269   3.1055851  56.0286490  42.4054850   2.4637050
  55.4627696  41.8015249   3.7309856  46.4599641   0.9946476  57.0722963
  47.0310482   1.4974819  56.4915614  45.8918031   0.5009900  56.4809181
  24.5910438  55.4665630  54.7777319  23.7757810  55.9681027  54.7832918
  24.6457227  55.1081423  53.8918591  53.8111210  13.2915127   9.9172544
  53.1804943  12.8799963  10.5081809  53.2763672  13.6535156   9.2106980
  69.0879965  15.8199680  33.7719369  69.2634487  15.1994300  33.0645609
  69.5047951  15.4308522  34.5407653  13.9105543  59.4373147  46.1784983
  13.7059292  58.7130503  46.7699385  14.8128351  59.2744271  45.9035683
  10.2548289  13.7497354  33.0673313  10.0655103  14.6794581  33.1938505
  10.9888208  13.7361956  32.4530792  17.9834255  58.9715616  21.8579793
  18.3014854  58.2447867  22.3935819  18.2887443  59.7562043  22.3133302
  51.9464723  33.0384269   0.7083816  51.0537998  32.9641555   1.0457964
  52.3369304  33.7482796   1.2181682  14.4714125  41.6488116  47.8057384
  13.5836252  41.3237803  47.9554701  14.3511733  42.5610439  47.5419140
   0.2829603  29.5794804  26.2983198   0.7244400  29.9471630  25.5327291
  -0.1238962  30.3334255  26.7252512   9.9801067  38.4655161   4.4011898
   9.0526728  38.2640059   4.5256443  10.4191259  37.6167188   4.4563074
  62.5969378  31.9074710   5.6636877  62.3102275  32.1340395   4.7789879
  63.0510465  32.6900501   5.9760780  74.5426861  33.6392775   1.6469545
  74.9624220  33.1731042   0.9239502  73.7888972  33.0959353   1.8767757
  10.6753052  10.5800605  49.8618174  10.7015789  11.4765978  50.1961231
  10.2068603  10.6482911  49.0298700  33.0266953  26.5751219  43.2058382
  32.7830338  26.3202858  42.3159409  32.1919489  26.7336774  43.6466217
  21.0465416  58.8798325  55.0024366  21.4386018  59.5918290  54.4968843
  21.4281925  58.9678364  55.8758354  40.3235658  65.5091007  16.4229608
  40.5546316  64.5853339  16.5204048  39.4322237  65.4975395  16.0742331
  55.5455494  12.1723533  19.0398741  55.5999231  12.6390970  19.8737955
  55.1832342  12.8143227  18.4292710  16.1038387   5.2902693  21.4175391
  17.0345962   5.3646117  21.2068510  15.9290493   6.0329366  21.9955754
  72.3696709  22.5755548  32.1737432  71.9832182  22.2151542  31.3756204
  72.1101141  21.9639826  32.8628325  46.6913509   5.3411150  47.2328663
  47.3574018   4.7035947  47.4901247  46.0366106   5.2979070  47.9297733
  30.6413063  63.5492741  50.3570747  30.9377035  64.3799137  49.9850273
  31.2137111  62.8918765  49.9615860   6.4489225  55.2398111  14.1618795
   7.2541813  55.7468642  14.2652531   6.6723398  54.5631577  13.5227747
  19.6166643  69.5910994  18.2499719  20.3382715  70.1912154  18.4380639
  19.0073475  69.7135727  18.9779580  12.6173103  22.4138284  48.0751228
  12.5370491  23.3641434  48.1569195  12.8808868  22.2731161  47.1657467
  60.7605362   3.3019266  54.5421457  60.1189232   3.0188203  53.8906717
  60.8005381   2.5793570  55.1686621  21.9718236  23.8799478   0.5480118
  21.3627437  23.2910038   0.9934301  22.6194429  23.2983257   0.1498432
  17.3666179  14.1185951  51.6816568  17.2371853  14.4348764  52.5757742
  17.7555359  14.8608339  51.2189913  51.3669443   0.8700217  27.1311450
  51.6444063   0.9696271  28.0418181  51.3841248  -0.0746072  26.9774818
   8.6263168  39.5026946  22.1368790   8.8965786  40.4139662  22.0238543
   7.9612530  39.3647003  21.4624381  48.2212814  65.6456281  23.6585259
  48.7765440  64.9300282  23.3489537  48.3351406  65.6432016  24.6089268
   9.0111149  33.1714416  29.5432472   8.6129558  33.9320135  29.1198897
   8.5270965  32.4227118  29.1948843  66.1854172  25.3634953   1.7382467
  66.5424824  25.1493335   0.8763454  66.9136047  25.2176213   2.3421523
  44.4485521  15.6663346  45.8660221  45.0254536  15.2727425  45.2114248
  43.5830927  15.6602979  45.4571533   6.7426193  22.5791574  39.8344922
   6.4815891  21.9154930  39.1960192   6.6419113  23.4104085  39.3706918
   9.8537433  14.8671222  41.7829370   9.6798027  14.3136895  41.0215616
  10.8074272  14.9444366  41.8099737  74.3983253  70.4560970  56.7353249
  73.9956840  69.6749254  56.3560057  74.8345169  70.1404576  57.5267363
  12.6653116  43.8969562  58.9986079  13.2343356  44.6618930  59.0841346
  13.0194919  43.2639435  59.6231743  51.5119982  38.2197046  59.5881414
  52.4013424  38.4219289  59.8786592  51.1636209  37.6422524  60.2674198
   6.1876444  30.3027050   2.0236320   6.5800480  30.4435758   1.1620016
   5.4546360  30.9174032   2.0563812  12.4032581  23.4901094  10.5860019
  11.5570343  23.1132531  10.8270800  12.7807319  23.7817240  11.4158833
  64.2567968  25.8117771  29.1876268  64.3361950  25.2498841  28.4167814
  63.4806633  25.4854250  29.6429825  29.4817376  10.3077638  54.8260975
  29.3987918   9.3584442  54.7358513  28.5793114  10.6264234  54.8438597
   1.2007463   6.5765327  54.7324610   1.0646904   7.4745697  55.0345373
   1.8276203   6.2070304  55.3543377  45.5617332  20.6355453  41.8755817
  46.0744095  20.2130795  41.1864376  45.3458452  19.9270785  42.4819613
  31.6771400  14.2507470  39.2193747  31.8709553  14.6670043  38.3794975
  30.9310425  13.6794984  39.0370440  43.7725528  58.1967680  26.0579967
  44.5448145  58.4318154  26.5723896  43.7779459  58.8107340  25.3236628
  40.4576778  22.6946735  54.1771650  40.0863695  22.6375175  53.2967710
  39.7961140  22.2959352  54.7424746  34.2712883  41.8799276   1.0320301
  34.9695686  42.4241645   1.3959379  34.0388207  42.3079301   0.2080078
  61.9715086  50.0417293   3.7160082  61.4328758  50.6682910   4.1992540
  62.8259937  50.4668487   3.6428089  74.0444088  16.9484937  40.9459209
  74.2744303  17.0989144  40.0290298  74.2620993  16.0291576  41.0997534
  55.7601786  18.9804602   9.5741230  54.9929857  19.4337392   9.9236721
  55.4005337  18.3361101   8.9644527  70.7422510  57.0183076   6.0855551
  69.9274317  57.5101532   5.9836073  71.2728659  57.2749008   5.3313417
  69.5242548   2.5960085  51.4603901  69.6101093   1.6594219  51.6383410
  70.2617645   2.9959527  51.9212151   3.4172094  19.1626823  11.8040156
   2.5128019  18.9359248  11.5875459   3.3947265  19.3719804  12.7377832
  55.6761312   5.8585405  12.8775322  56.0437107   6.6858888  12.5667048
  56.2140799   5.6268609  13.6346078  61.0819101  38.3774400   5.6253129
  60.2372932  37.9460025   5.4960275  60.8700609  39.3097639   5.6713659
  69.3914413  38.8690925  48.4518194  68.9396954  38.7322593  49.2845440
  69.2418623  39.7920871  48.2470226  45.3243971  24.5761633  42.1913385
  46.1951923  24.2000294  42.0630074  45.4745245  25.3460836  42.7398968
  62.5863457   2.4568669  21.2021422  62.8670502   2.2362217  22.0902586
  63.1643152   1.9468701  20.6346178  66.0214138  15.8503485  27.3616552
  66.7394352  15.2826858  27.0815897  65.5041599  15.9911978  26.5686584
  60.1150274  11.4038706  34.8525524  60.8348846  11.9425333  35.1810002
  59.3446016  11.9681859  34.9175787  51.3523531  17.0274842  49.2938709
  51.5400171  17.9569769  49.1632700  51.5022230  16.6300440  48.4360790
  61.1330414  23.1419158   2.4565922  60.9600210  23.5129523   3.3218247
  61.1941576  23.9019394   1.8779229  62.8028917  46.9605255  36.4601612
  62.7404404  46.1128569  36.0199451  63.7287045  47.0442438  36.6884041
   6.8759588  13.6437239  42.1232576   6.1922793  14.1693367  42.5386495
   6.4129547  12.8834952  41.7712564   6.6108692  -0.0000629  32.9236388
   6.3018406   0.7796792  33.3848739   5.9718788  -0.6777754  33.1441689
  17.5091652  39.1392611   7.4934406  18.3587793  39.4896607   7.7610464
  17.6957182  38.2408802   7.2207851  32.2051414  68.4789957  54.1917610
  31.8148979  69.0841132  54.8224545  32.5968250  69.0455364  53.5270452
  10.5350074  55.9185724  19.4332588  10.8875998  55.3086261  18.7852800
  10.9418257  55.6533293  20.2581072  68.4493637  20.4680181  53.6092043
  68.7882042  19.5847130  53.7547779  67.9232216  20.3945136  52.8129673
  25.3664068  50.3541423  10.7419319  24.7694162  50.7623602  11.3689775
  25.4646496  51.0044648  10.0464744  35.1452160  10.2839911  44.7353745
  36.0022640  10.1446676  44.3325186  35.2724195  11.0346901  45.3154612
  29.2775905  46.7778063  26.0710192  29.8550594  46.3879538  25.4146910
  29.8094261  47.4579525  26.4842749   7.9285034  67.4628948  37.8295183
   8.1617435  68.3904769  37.8672385   7.2367438  67.3630823  38.4835362
  55.8946180  25.3128529  40.8565664  55.0406742  24.9577188  40.6098080
  56.3629293  24.5690131  41.2355375  59.1093818  64.8096312   1.3115568
  59.0585247  65.7164277   1.6138239  59.7592655  64.4023479   1.8842764
   3.5057533   4.0713605  43.0742407   3.9565313   4.5744953  42.3960924
   2.7144039   4.5764494  43.2610226  50.3091510  69.5860460  41.8288469
  49.5396503  69.2508851  42.2890329  50.3054842  70.5260977  42.0091820
  51.1932278   8.5221928  28.2734537  50.2464390   8.4341264  28.3832884
  51.5307093   7.6331079  28.3823872  24.8986010  63.5256351   0.4709024
  25.0999359  62.8598989   1.1285419  25.2611832  63.1757225  -0.3429299
  41.5788956  15.0231907   1.9673176  40.8337708  14.5032427   2.2684402
  41.7398615  15.6446382   2.6773329  49.1154131  60.9600769   5.9113854
  49.5062050  60.8092915   6.7720699  48.4667143  61.6480546   6.0600829
  17.3462856   2.7013949  50.4509687  16.6768348   3.2655105  50.0638628
  17.6002872   3.1498966  51.2575436  62.1342754  46.0471344  13.7728536
  62.5461006  45.2309942  14.0566552  61.2647247  45.7843351  13.4710968
  49.5725679  52.2947121  46.3708544  50.3236437  51.7352104  46.1731815
  49.9568605  53.0901146  46.7394733  45.2086099  56.8696634  19.1454387
  45.2058586  56.8606548  20.1025915  45.8188900  56.1738937  18.9011204
   2.0115984   7.8441000  59.3869829   2.7524984   7.7588302  59.9870062
   2.1257341   8.7059432  58.9864445   3.8425625  16.5113640  32.7239442
   4.0698564  16.3174212  33.6333132   4.5242584  16.0793161  32.2093010
  30.6619167  10.3982711  19.3716598  30.7899690  10.0832796  20.2664304
  30.2218342   9.6756470  18.9240289  35.5447197   7.9989117  40.7666874
  35.9256959   8.5444754  41.4547634  34.9876666   8.5966170  40.2680159
  19.3868307  47.2533454   7.1074362  20.1322226  47.5680233   7.6189060
  19.4018559  47.7839078   6.3108749  68.7133042  42.2108693  15.9384889
  68.1120697  42.4426831  16.6463108  68.9805332  41.3131131  16.1355991
  33.9386276  45.8744611   6.0825510  34.2105774  45.2293123   5.4298229
  33.1447414  46.2648929   5.7171268  46.6417551  19.8509204  54.0554476
  46.4469147  20.5638456  53.4471703  46.3143253  19.0656447  53.6168575
  48.4710582  61.1560725  22.7748156  48.5414442  61.4514981  21.8670702
  48.1545862  61.9228821  23.2523942  64.1263008  45.3002644  43.1111383
  64.9009418  45.3230381  42.5493145  64.1832638  44.4586945  43.5636330
  48.8289070  16.9626927  54.0490294  48.9289331  16.9843996  53.0973196
  47.9973602  16.5107405  54.1922188  65.3775930   5.9284443  24.8250103
  65.7868481   5.2382457  25.3468990  65.7192087   5.7946616  23.9409089
  46.8806219  18.5584092  56.5221119  46.9490147  19.2249751  55.8385563
  46.0179806  18.1657565  56.3883018   9.2566097  14.3588066  60.1004457
   9.3711269  14.3525600  59.1501427   8.5253799  13.7614262  60.2575064
  17.2352108  61.7640559  35.6424975  17.2515234  62.0506255  34.7293472
  16.5965875  61.0512196  35.6584501   1.4614666  16.6435122  26.5390682
   1.9136513  17.4859202  26.4931464   1.6584432  16.2200809  25.7035232
  49.6161699  13.2450533  32.0057607  49.7099924  12.3345864  31.7256212
  50.5103731  13.5320568  32.1908545  49.8764133  26.6169524  15.8142221
  50.6080103  26.7500591  16.4169502  49.8950291  25.6802392  15.6181204
  24.8296154  10.3678906  41.8986130  25.6091297  10.5502033  41.3738871
  25.0150383  10.7657480  42.7492332  41.1529907  65.3770219  60.0857973
  41.4909776  65.2623998  60.9739733  40.2017292  65.3903966  60.1913881
   4.8299873  41.4334726  33.6584234   4.9586237  41.0914755  32.7737093
   3.8819540  41.4105511  33.7885761  66.9382906  37.6627421  39.4597435
  67.5680590  37.4580097  38.7685776  66.5736771  38.5111880  39.2078972
  62.0869684  17.1839249  49.6895123  62.2667313  16.8482506  48.8113117
  62.2110271  16.4288473  50.2645779  12.4571407   7.9582179  27.2620034
  11.7267120   7.7462173  26.6808414  12.7588737   7.1098429  27.5867343
  35.1179604  40.4717184  15.9174270  36.0526089  40.2743478  15.9783907
  35.0138382  41.2901421  16.4027853  68.0405283  28.4823537  50.8318281
  68.5038137  28.4168148  49.9967766  68.1811523  27.6333928  51.2510204
   4.8191536  49.2367887  44.8310041   4.2977274  49.9618816  45.1753712
   4.7794092  49.3434048  43.8805914  62.1198082   2.3964994  51.0373831
  61.3266134   2.8382671  50.7342148  62.3617649   1.8164945  50.3153801
  15.0003143   3.7212392  11.8320579  15.0800391   4.2646333  12.6160211
  14.0699263   3.7564084  11.6098614  69.5047045  27.9558420  48.6054325
  69.5370388  27.5117111  47.7581215  70.2250051  28.5854244  48.5734940
  63.5748577   3.9327854   9.2264664  62.9724693   4.2658395   9.8916268
  63.2346010   4.2777100   8.4009451   3.8042406  27.2374977  16.8606729
   3.7327580  27.2583438  15.9063740   3.5400204  28.1141253  17.1398563
  67.8020779  30.5429385  17.5496836  68.2145134  30.0203647  16.8618984
  68.4032551  30.4793535  18.2918234  49.3065310   2.8433260  38.5883904
  49.4650936   2.5730884  37.6839209  48.5789585   2.2932337  38.8786745
  63.1904173  13.8486087  32.1433258  62.9017019  13.0258226  32.5381660
  63.2418108  13.6595917  31.2063813  55.7286501  24.4172955  48.0032158
  54.8475075  24.1034007  48.2064056  56.0543537  24.7695494  48.8315058
  13.9730708  54.7021488  59.4140307  13.0700796  54.6748486  59.7304118
  14.5052211  54.5508459  60.1951563   7.7923954  26.3715529  20.6281161
   8.4072197  25.7433033  20.2492690   6.9595039  25.9010291  20.6618690
  61.8491936  13.6762345  46.4714861  61.4327860  13.5642779  45.6169081
  62.7407026  13.3503401  46.3480520  21.0462082  37.5287342  58.9158916
  21.9668758  37.6802588  59.1295433  20.7087219  37.0234489  59.6554947
  59.7712054  67.2519149  31.3780451  59.5384481  67.9917575  31.9390178
  60.3054603  67.6368640  30.6833386   7.8524196  21.3425708  60.1125622
   7.7928722  20.5328369  60.6195307   8.0593288  21.0539579  59.2236710
  60.1015615  41.4520788  43.8226080  60.8225012  40.8750534  43.5705709
  59.3731546  41.1839724  43.2624531  56.7677307  17.8862405  12.6713061
  56.3568735  18.4516466  12.0172822  56.2948751  18.0748141  13.4819114
  54.2116356   4.0454689  25.3574252  54.0335417   4.8945272  25.7619190
  55.1319313   3.8735345  25.5567408  37.8864408  27.2432256  57.6156759
  38.3093286  27.9189873  58.1455278  37.8742814  27.6060271  56.7299795
  25.0379356  61.6401325  41.0604477  25.3081306  61.3550560  41.9333506
  24.7336229  62.5390045  41.1855602  53.2627916   5.7496494  38.2332063
  52.7408028   5.1920539  38.8101315  53.9511633   6.1008233  38.7980533
  34.4247707  51.9705193  15.6171298  35.1396116  51.3660233  15.4175782
  33.6496385  51.5594856  15.2344418  58.5835505  31.9490051  52.3204088
  59.1878796  31.7473412  51.6060162  57.7286816  32.0253372  51.8966150
  25.1410584  42.6275678  15.0573463  24.6122126  43.0555452  15.7306881
  24.6825604  41.8065555  14.8785944  42.5554343  18.5395786   7.5206299
  42.4707289  19.2569896   6.8926401  43.4949084  18.4838459   7.6953144
  39.7049303   1.6224190  10.1454420  39.0633316   1.6509601  10.8552093
  39.6448822   2.4843475   9.7334881   9.1265381  32.8971481  42.2860003
   8.9898479  33.4573293  43.0500364   8.2869995  32.9098892  41.8263960
   6.7326077  66.7029591  45.1538420   6.0741528  66.5018512  44.4888401
   6.6510829  67.6463218  45.2940273  52.9225000  67.7424900  53.6305094
  52.9317125  68.6656214  53.8834429  52.0859035  67.6258560  53.1802464
  41.6108675  11.3207742  16.0858841  42.5657053  11.3522693  16.1452169
  41.3161059  12.1047041  16.5493507   5.1547611  11.3490987  59.5584154
   5.9550751  11.1849260  60.0571871   4.4780815  10.8559251  60.0222206
  67.4171114   5.7336450  33.5757899  67.4932337   6.6609180  33.3508420
  66.7814779   5.3867292  32.9498100  31.5241051  12.6995862  50.2116966
  31.8220043  11.8514752  50.5406284  32.2237468  12.9884076  49.6257687
  61.1349964  18.5674644  10.4457629  61.9886827  18.9219320  10.1971591
  61.3003349  18.0945122  11.2613678  17.5461773  63.1621541  17.4909849
  17.6080994  62.2377504  17.2504062  18.2331947  63.5893382  16.9793672
  55.1937723  11.2399387  32.6034379  54.8149252  12.0738792  32.3254967
  55.8697319  11.4829600  33.2360911  49.5881987  41.5794849  42.7188015
  49.9257612  42.3157549  42.2087049  50.2668524  40.9081459  42.6483393
  60.7368660  28.8789415  21.7811823  59.8064041  28.9071631  22.0040607
  61.1240959  28.3046579  22.4418497   5.1747263  51.4881372  23.1092215
   5.8510483  52.1220875  23.3478260   5.5341995  51.0286188  22.3503733
  64.9853706  42.5208426  16.3876629  64.9431992  41.7790222  15.7842124
  65.8868694  42.8350449  16.3183272  37.3067112  12.3913118  12.3859281
  37.8816576  11.6877195  12.0848818  37.8985854  13.0323955  12.7795334
  73.7858868  35.7838869  42.8335190  73.1643820  36.5082526  42.9060364
  74.6292067  36.2070823  42.6724482  16.4073170  58.3333635  25.3104043
  17.3617733  58.3223391  25.2388215  16.1157882  57.6263094  24.7348070
  72.6217747  13.1542599  52.4476433  73.2599068  13.3484638  51.7611265
  72.4272871  12.2235179  52.3375225  49.8710728  36.2689948  55.4644871
  49.1314602  36.5702534  54.9368048  50.0039101  36.9637370  56.1094046
  46.8124075   1.4050099   2.4018116  47.7491398   1.2083480   2.4113197
  46.4670201   0.8903858   1.6723604  57.1911335  47.2414351  38.0515361
  57.3515749  46.3080263  37.9128408  57.8222847  47.4954891  38.7248397
  56.2653780  38.6801744  43.6570883  55.4380846  38.3759737  44.0302944
  56.9364882  38.1850410  44.1268587   2.9090536  19.7486818  36.1784792
   2.5880087  19.6123183  35.2870941   3.7626159  20.1665711  36.0643244
   4.2268169  56.6201067  55.7562017   4.4442451  57.4938250  56.0811234
   3.4971273  56.7634296  55.1534986   2.5742042  13.4682870  46.2260485
   2.7955473  12.6015437  46.5666294   2.8243006  14.0716290  46.9258070
  60.0747871  37.1740031  29.5944977  59.5347309  37.7483249  29.0516138
  60.1182652  37.6168108  30.4420018  55.4832172  60.2262259  34.1259933
  55.6589508  59.3156815  33.8888097  55.6233549  60.2585506  35.0723267
  73.4741592  50.2649355  38.8249850  73.1989813  49.6300507  38.1636024
  74.2863846  50.6346369  38.4787989  69.6309137  70.1695538  34.8593307
  69.3668556  71.0895586  34.8494720  69.6981096  69.9496031  35.7884908
  73.2901812  46.3810682  44.7142839  74.2068958  46.5853977  44.5295715
  72.8000355  46.8435383  44.0345001  57.2203445  18.0014634  28.0266571
  56.9928598  17.4201691  28.7523150  57.4145651  18.8407493  28.4439254
   4.2999494  55.2681351  35.8178782   3.9633501  56.0644484  36.2287498
   4.6839893  55.5677271  34.9938679  64.1959095  41.5798759  40.2750683
  64.3013668  41.9367933  41.1569548  63.3351898  41.8892622  39.9928093
  10.2822101  50.6756401  13.7327909  10.1337803  50.8568573  12.8046954
   9.6305073  50.0104189  13.9541471   1.8060243  59.7215128  38.0259252
   2.2204101  60.2650166  38.6960888   1.2081945  59.1546249  38.5132313
  56.8244839  45.0521088  34.6984339  56.2884474  45.8188248  34.4958448
  56.9133997  44.5943737  33.8624883  15.8684719  24.6169877   0.5030439
  15.0783050  24.0813994   0.4322061  16.0453022  24.9027038  -0.3932427
  14.4483713  48.4005154   4.5348759  14.3876700  49.2629053   4.9457664
  14.2315058  48.5572840   3.6158390  12.9288757  25.8183670  38.6769938
  13.4352577  25.9416485  37.8741169  12.4449528  26.6373873  38.7830853
  63.8608599  11.9559014  47.5959301  64.7403383  12.0264566  47.9671049
  63.2799387  11.9459641  48.3566284  10.1931472   5.2164766   5.1801939
  10.1342316   6.1217329   4.8747988   9.4877739   4.7619507   4.7196646
  45.8977099  12.1326181  19.6775503  44.9425431  12.0778057  19.7073526
  46.1817379  11.2456485  19.4565458  74.2931700  66.1333799   8.0640405
  73.6031628  65.8916426   8.6818427  75.0695705  65.6705093   8.3789736
  71.9077587  41.6289425  14.6934712  71.5695524  42.5189781  14.7918940
  72.4647045  41.4981270  15.4608870  58.3746195  38.2711744  56.9871092
  58.8548183  38.4980464  57.7834558  58.2228708  37.3288298  57.0591879
  65.1051569  48.9009905  56.4410210  64.8234987  49.7588444  56.1232281
  64.7362232  48.2799530  55.8129883  61.3402271  62.5245333  30.2531695
  60.8038616  61.7370987  30.1610041  60.7866764  63.2315445  29.9215865
  49.2733450   7.2838136   0.3314466  49.9322672   7.9415104   0.5539102
  49.7714682   6.4742014   0.2190513  66.3035154  43.6803675  58.1323671
  66.0988855  42.8683853  57.6686382  66.6959238  44.2444134  57.4659586
  59.9696398  64.4660282  28.3858466  59.7248697  65.2493477  27.8931785
  59.1568995  63.9657879  28.4596229   1.5244869  49.0663780  19.5502539
   1.6905645  48.1281556  19.6418447   2.3219303  49.4128097  19.1498823
  14.2070663  26.3093853  36.2545347  13.6288822  26.2346077  35.4953575
  14.9981392  25.8338952  36.0008812  45.4929495  34.7237086  54.5078516
  44.6433783  34.3512154  54.2718220  45.2981997  35.6284213  54.7523880
  70.3754620  14.9994595  16.8180239  70.3737072  15.5834039  16.0595798
  69.4501022  14.8855813  17.0347524  50.1282378   8.8558551   7.7290315
  50.1369591   9.0672752   8.6625452  50.0093670   9.6998521   7.2934027
  64.9414015  20.3561044  53.2870007  65.4507160  19.5568097  53.1530046
  64.9753284  20.5061722  54.2317533  67.0444699  40.0338766   5.2782173
  67.7532788  40.6375906   5.0560589  66.9877739  40.0720379   6.2329740
  14.9348684  22.1662542   9.8098202  14.3815775  22.8589651  10.1707239
  15.3228207  21.7454406  10.5770511  13.1662910  61.9933394  47.1712165
  13.4988611  61.1835745  46.7840378  12.2230213  61.8511990  47.2503989
  33.9858043  64.0281153  48.4653664  33.9507759  64.3354511  49.3712139
  34.1959560  63.0969715  48.5363197  -0.1753422   2.7097113  19.5537567
   0.4737143   2.3835833  18.9303815   0.2705673   3.4209235  20.0137281
  64.3036938  34.2891979  18.5496318  63.7171268  35.0318432  18.4059405
  63.7182856  33.5497713  18.7132561  13.1077373  41.7436790  60.5233717
  13.0883682  41.3523293  61.3966990  13.2853592  41.0092878  59.9357080
  64.9626541  62.0600271  27.0367432  64.3314409  62.6124334  27.4978805
  64.4357014  61.5694094  26.4059925  44.1821861  56.3420582  58.7972546
  43.5231686  56.5751839  59.4511461  43.9204550  56.8222475  58.0116653
  43.8223633  63.8091730  12.1319342  44.5305237  63.1730621  12.2324347
  43.8754257  64.3528460  12.9179597  73.9218426  44.1592932  36.9864249
  74.6048737  43.6238432  36.5826988  73.5033941  44.6077538  36.2515688
   0.2121151  54.8200274  14.1932046  -0.0366318  54.7178411  13.2745576
   0.5867088  55.6994486  14.2435133  59.8879766  62.4607468  23.0653358
  59.3674278  62.9405260  22.4210763  59.3747807  62.5091410  23.8718820
  41.1976894  18.1822740  59.4069115  41.5473732  18.7494861  60.0940993
  41.3318905  17.2942411  59.7379949  65.0340128  63.2279253  17.9597509
  65.2699518  63.0066729  18.8606477  65.4771662  62.5675726  17.4270368
   4.6459425  24.5447016  49.8683882   5.5564392  24.7704315  49.6779346
   4.4590605  23.8002706  49.2964363  32.5545204  11.9185364  42.3992062
  31.6242302  12.0537686  42.5794983  32.7649296  11.0918272  42.8333855
   9.0239624   8.4295972  10.4669547   9.8128227   8.2777007   9.9465114
   9.2645601   9.1364796  11.0658371  52.5321198  10.5753922  26.6510534
  51.7713070  10.8075106  26.1185908  52.2109890   9.8964864  27.2445130
  34.9777579  66.6848421   4.3988559  34.1727448  66.2066984   4.1999444
  35.6323314  66.3064766   3.8118237  61.1620474  41.0480595  16.4879584
  60.5117655  41.1446857  15.7922363  61.0385847  40.1547289  16.8088102
   8.9639461  53.3068705  40.3355932   9.3716800  53.0039787  39.5242763
   8.2634151  53.8921595  40.0476074   3.5229194  46.3039303  42.6322746
   3.8499344  47.1144247  42.2419071   2.9248178  45.9463215  41.9760561
  29.5149902  11.7028268  42.9297256  28.8676790  12.1507676  42.3851442
  29.5186237  10.8021863  42.6055861  52.7544737  14.4771385  39.4504642
  52.8362846  13.8718045  40.1874256  53.1871557  15.2772427  39.7485423
   1.5395868   8.4379768  51.5314388   0.8997047   7.7260894  51.5293312
   2.3700655   8.0129147  51.7455816  55.0648117  28.0022812  41.5269089
  55.5167389  28.5099101  40.8528852  55.3312492  27.0974207  41.3642120
  13.6648929  11.8155563  29.4275928  14.5774639  12.0871949  29.5258141
  13.6640823  11.2547565  28.6518764  21.1077170   6.5892728  58.3701468
  20.1860289   6.6609271  58.1219673  21.2073139   5.6832536  58.6624527
  24.0911567  36.6901064  57.9314470  24.4904220  37.4082112  58.4225082
  24.1311825  35.9415531  58.5266781  45.9622717  41.9801283  58.2000828
  46.2222624  42.7470827  57.6897717  45.4191446  41.4671516  57.6016665
  63.4750958  16.5245506   1.8994875  63.4307595  17.4093935   2.2618646
  62.6162167  16.3858816   1.5003319  55.1274128   4.0352413   9.5531483
  55.9792538   4.1234728   9.9807138  54.4991608   4.3479845  10.2040834
  54.3159810  68.4141315  13.9474125  55.0484554  69.0111984  13.7950201
  53.6604754  68.9486922  14.3955059  14.8434444   8.2746622  21.8525190
  14.7487779   9.2244598  21.9243402  14.5214482   8.0675289  20.9752245
  65.7994318  55.0468588  15.6267524  66.2844992  55.6482553  15.0617158
  65.2207136  54.5719862  15.0302541  68.7789253  25.4520543   2.4726887
  68.7450985  26.1928941   1.8675108  69.6003632  25.5698146   2.9497642
  15.3610695  51.8512630  23.1033444  14.7934616  51.4260435  23.7461805
  16.1658657  52.0436001  23.5845399  67.6548958  42.8882933  18.2973039
  66.9548416  42.5636768  18.8636768  68.3232689  43.2093334  18.9026499
   4.1681532   1.4372094  30.1663566   3.7870363   1.4031918  31.0437512
   4.4000630   2.3574574  30.0414753  15.7704628  41.0222435  27.6538968
  16.4236629  40.9073782  28.3440924  16.1948002  41.5955591  27.0155549
  65.1168346   9.8161978  50.9749699  64.3820238   9.2029899  50.9588480
  65.6024265   9.5873445  51.7674732  71.5564823  45.2584743  51.2533522
  71.1111736  46.0356522  50.9158278  71.5249968  45.3586388  52.2047758
  61.5070677  27.1917272  30.7289934  61.0310364  27.6464128  31.4238930
  61.2780905  27.6677489  29.9307442  66.2315941  41.1062145  11.6776693
  66.1737919  40.2032852  11.3652492  67.1386099  41.3607454  11.5080512
  60.4260254  32.1684098  13.0757833  60.2132654  31.8415546  13.9499295
  61.0090733  32.9110646  13.2331121   4.1749767  57.6286806   3.5647650
   3.9647965  57.0732488   2.8140659   5.0420384  57.9820837   3.3659286
  63.4248686  64.1710901  46.5774870  62.7704477  63.6735678  47.0678329
  63.4617186  63.7412691  45.7230091  61.2363625  31.8605232  23.9285922
  61.6986322  32.6359677  23.6104321  61.6852999  31.6310835  24.7422504
   0.3149832  60.5831051  49.4423103  -0.5123532  61.0577679  49.3620682
   0.5955732  60.4364681  48.5389805  53.6586352  15.8842394   3.7241382
  54.4872399  15.5837032   3.3508749  53.3827038  16.5989753   3.1503362
  65.8883747  69.2516230   4.1384077  65.5822834  68.7910159   4.9196786
  66.8413337  69.2665549   4.2271176  74.4431671  63.3212225  51.0674334
  74.8725876  64.1743700  51.1304045  73.8651928  63.3994393  50.3084469
  51.6789993  30.2299606  60.8320421  51.6385778  29.9844085  61.7563275
  52.5180181  29.8832618  60.5285906  29.0593136   8.3885133  57.2582960
  29.2302883   7.9581660  56.4205599  28.1545913   8.6936539  57.1905613
  22.5324301  69.1846145   7.1810694  23.4451298  69.1954960   7.4693317
  22.2270636  70.0812901   7.3187513  52.0204926  43.3454990  37.9354191
  51.6669989  44.1365814  37.5286484  52.5658846  42.9498196  37.2555542
  73.8293028  20.3807807  35.3086662  73.1181812  20.7739544  34.8027444
  73.8272476  19.4595408  35.0487733  57.8632975  67.6730156  51.7990017
  57.0337486  67.9333210  52.1994066  58.1739140  68.4628868  51.3564491
  39.1651984   4.8672506  17.5353451  40.0103064   4.5584771  17.2087307
  39.3234797   5.7772371  17.7865429  70.6877089  32.4023342  38.5999727
  71.4509153  32.5492477  38.0412579  70.6638384  33.1647825  39.1781878
  20.9507612   1.9314559  54.0463734  20.6254057   1.4728911  53.2717133
  20.4189066   2.7257760  54.0954971  23.4714020  68.1639481  45.3569555
  22.6307476  67.7157116  45.4497480  23.6793125  68.4683609  46.2403202
  73.6107826  29.9944687  54.3716717  74.3575525  29.5621753  54.7860289
  73.6851215  30.9103084  54.6398926  51.5932469  62.9925145  25.1030035
  51.1565022  62.1507658  25.2331610  52.2878841  63.0062689  25.7614298
  54.7589274  14.0088102  32.4404497  54.6345969  14.4872305  33.2601423
  55.6917591  14.1026899  32.2474642  59.0751410   1.5288809  57.1764040
  59.1769791   1.2809598  58.0953169  59.9535131   1.4418834  56.8060970
  10.9220970  19.6587789  26.5126061  11.8722904  19.7734785  26.4982319
  10.7504165  18.9981449  25.8415484  10.1368511  69.6541166  39.7299600
  10.9031093  69.2182398  40.1029062   9.9254024  70.3452969  40.3574848
   1.2734497  60.5630589  35.3954268   1.5145624  60.5447149  36.3215804
   2.0909488  60.7620621  34.9389982  34.1741295  19.5366832  11.1805982
  34.0506239  19.0062448  10.3934402  34.4900151  18.9180347  11.8391723
  57.0422729  63.0124150  54.1029501  56.3055786  63.6231230  54.1263533
  56.8703064  62.4020855  54.8199940  30.9539513   1.6255839  49.7113419
  30.9184269   2.1932013  48.9414215  31.8111900   1.2030585  49.6580601
   1.8550003  39.9409413  40.2378130   1.1832273  40.5567122  39.9449372
   2.1556032  40.2947140  41.0749006  52.6678261  69.2833836  35.5416083
  52.7551111  69.2950160  34.5884681  52.8592809  68.3786426  35.7886314
  58.4380102  37.6573920  44.9011612  59.3220234  37.8825068  44.6112108
  58.2072830  36.8833733  44.3874550   2.8841865  37.4042892  40.0077438
   3.8183964  37.5845027  40.1126146   2.5122965  38.2340217  39.7086167
   9.9538887  44.0920687  44.2654514  10.2241791  44.6514845  43.5372829
  10.7750881  43.8085222  44.6672773  65.6297350  26.6589832  49.3331242
  66.4562988  27.1189284  49.4796801  65.8020830  25.7607985  49.6155977
  64.7964811  10.6807816  31.6137028  63.8969755  10.3802633  31.7433357
  65.0491476  11.0520339  32.4590230  49.9841785  42.1360731  45.6733704
  49.5473242  42.0655203  44.8246002  49.2696619  42.1486759  46.3101864
  36.8195061  70.7608332  12.3745079  37.6760677  70.8442534  11.9554920
  36.5151505  69.8880805  12.1257181  64.9054956  48.9592791  48.0251884
  64.2909145  48.2290745  47.9522133  64.3502998  49.7267771  48.1628036
  72.5026369  64.9214983  49.5300817  72.6755571  65.3133631  48.6740637
  72.2181749  65.6545019  50.0759935  13.7158287  32.8179669  10.6071281
  13.9791954  33.1887150   9.7648579  14.4435108  32.2480726  10.8559966
   2.8960979  31.7489839  18.6499035   3.1764162  31.8193173  19.5624304
   2.5074375  32.6011324  18.4523785  30.5708126  61.0478844   4.1905517
  30.3450588  60.1292743   4.0441913  29.8478750  61.5376033   3.7984247
  52.4754572  32.3097539  47.3772717  53.3523798  31.9350100  47.4597549
  52.0802259  32.1866345  48.2403278  58.7862396  18.7040865  22.1602726
  59.5269585  18.9850116  21.6230130  58.0843878  19.3163824  21.9395161
  50.2714634   4.2999542  43.9066744  50.4275084   5.1901519  44.2220020
  50.8449030   3.7520614  44.4425964  54.4830465  32.0967889  21.7181849
  54.3017054  33.0364299  21.7387462  54.7703362  31.8887901  22.6072502
   9.8625553  36.2325811  57.3380041   9.6103466  35.9382463  58.2132101
  10.6068886  36.8157601  57.4866772  73.0645084  19.6921313  30.1393795
  73.5722351  20.4953003  30.0237656  72.1555901  19.9882913  30.1881957
  26.9662813  46.9492961   7.5479669  26.9583086  47.8800382   7.7713222
  26.0678629  46.6579534   7.7035208  55.5328751  51.9221020  35.4816341
  55.0824213  52.7655983  35.5245352  54.8714161  51.2835169  35.7479334
  35.5812955  57.4017715  14.6077907  34.7388911  57.7749920  14.8671985
  35.3876090  56.9011831  13.8152432  70.4235096  32.4725458  26.1014814
  70.2429886  32.9805299  26.8924208  69.7490998  32.7482053  25.4806585
  53.9069366  17.2470999  32.5665164  53.4594059  17.7785671  33.2249188
  53.2224989  17.0185006  31.9376111  51.1414289  32.2369838  42.2017670
  50.2042103  32.1839714  42.0145750  51.2244415  31.9192147  43.1008577
  66.5893602   4.9011305  12.7885950  66.3344479   5.3946036  13.5681701
  67.1606684   4.2082620  13.1199086  60.2267456  54.2065525  44.6758223
  60.0967598  53.2771635  44.4872141  59.3761301  54.5073223  44.9955368
  19.8185019  60.6801714  42.6047869  19.0195231  61.0416092  42.9884882
  19.9626116  61.2022604  41.8155546  68.7057161  15.7292116  53.1232929
  68.3466053  15.2284276  52.3908424  69.5940733  15.3899682  53.2326889
  52.7790260  14.2009211  59.4342232  52.4265194  14.6829653  60.1822901
  52.0270443  13.7273693  59.0785503  27.7898268  66.9973744   0.9222050
  28.4254841  67.4963082   1.4352722  28.3138947  66.5606941   0.2507181
  27.7757728   2.6651332  43.8164043  27.2408378   2.5862551  44.6062565
  27.3915375   3.4006953  43.3393860  66.1594439  63.7484837  45.2089214
  66.3818932  63.6679268  46.1364222  65.2416563  63.4813356  45.1586533
  70.1878500  20.6326962  30.5901289  69.6745157  21.3374400  30.9851694
  70.0765753  19.8921442  31.1863112  69.8114792  66.1431087  17.3542995
  70.3779999  66.6600837  17.9270334  69.6933857  66.6897048  16.5774317
   7.9217581   3.0537780   4.0621156   7.5197224   2.1924622   3.9492619
   8.2892803   3.2609828   3.2029161   5.0341738  50.9377670  51.0773277
   5.1027525  50.5132723  51.9325066   5.4003418  50.3008556  50.4637289
  58.9655685   6.9048041  21.1842489  58.7175989   6.8300194  20.2627540
  59.0026188   7.8474122  21.3465714  66.2606716  24.1470957  43.0945206
  66.2048292  24.5549202  42.2303486  65.6969595  23.3759999  43.0323410
  38.3662148   3.3810493  21.4409227  37.7441712   2.7152011  21.7340727
  38.3297511   4.0572664  22.1174116  67.4548769  34.9779940  32.1581149
  67.3326826  35.3796721  31.2979102  67.0080423  35.5690503  32.7641058
  37.8377374  25.0855695  54.7793667  38.5741743  25.1933156  54.1774659
  37.1217998  25.5727206  54.3715089  69.6481609  53.9560938  60.6669140
  69.9223280  53.8617706  61.5791464  68.7474871  53.6323261  60.6528091
  23.4605173  -0.0363700  39.9075484  23.9711765  -0.3141229  39.1470790
  24.0832476   0.4467328  40.4507351  67.6486874  37.1583891  24.5638418
  68.4740543  37.2942281  25.0291896  67.7179193  36.2729549  24.2068458
  16.7283333  55.8092070  10.8535433  17.4830807  55.5327749  11.3733292
  16.9017399  55.4647207   9.9774784  72.9412508  48.3339024  37.1052003
  72.4134588  47.5709295  36.8695354  73.8398504  48.0050707  37.1301460
  72.4761311  55.9729160   0.6635113  72.1953217  56.2685193  -0.2025109
  73.2469050  56.5053715   0.8600588  69.4771067  69.0116299  12.1946115
  68.7781016  68.7121405  11.6132994  70.1817433  69.2784346  11.6042442
  55.2489647  17.8043758  53.8905661  54.7708830  18.5850726  54.1701781
  55.6581768  18.0576574  53.0631458  70.5223370  44.2810011  15.2477801
  70.0413418  45.0374889  15.5833340  69.9271345  43.5424662  15.3763580
  13.4922684  59.4116545  26.5589213  12.7022827  59.9039316  26.3357186
  14.0102470  59.4121885  25.7539773  57.4190235  51.7491484  59.9084663
  56.7989540  51.9774961  59.2159319  57.9420137  52.5412035  60.0324011
  52.8075981  56.5326309  28.1842113  52.7787352  57.3752880  28.6373401
  52.9663992  55.8928108  28.8782191  62.6418543  59.2840528  41.4447784
  62.1654224  58.4637213  41.5724659  63.3853722  59.0455294  40.8911324
   2.1424774  58.7516369  27.2248239   1.4665369  58.9669741  27.8674478
   1.6646341  58.6393989  26.4030618  70.2885437  38.8926530  34.0354681
  70.7717371  38.2891393  34.5998478  70.9376049  39.5443439  33.7704301
  63.1853628  23.2573175  37.2669482  63.4112120  22.7485347  38.0456448
  62.4117470  23.7587237  37.5245142   4.3905342  52.8506470   9.3653750
   4.8562038  53.4559441   8.7883127   5.0316131  52.6195240  10.0375605
  73.2426151  45.9416686  48.7920242  72.5384697  45.4658042  49.2324310
  73.0970844  46.8576919  49.0285390  69.3894911  58.5859871  41.9174767
  69.7197533  59.3277693  42.4243402  69.9251175  58.5805082  41.1241865
  39.8964819  35.9997283  57.6628571  39.8246463  35.1701556  57.1907537
  39.1412481  36.5089284  57.3686366  63.4642315  46.5027094  31.9491768
  63.8726854  45.6438589  31.8406725  63.0049181  46.4453554  32.7870178
   8.7180889  35.8542132  22.3583984   9.0266216  36.6437888  22.8029346
   7.9277885  35.6033969  22.8366637  12.5102318  20.3794742  52.7300835
  12.2118843  19.4754755  52.8301239  13.2434547  20.3232884  52.1173286
   4.4887404  55.4714478  27.0059175   4.5884756  55.1799001  26.0996694
   5.1792482  56.1235441  27.1250982   2.0254219  30.7464790  24.4446301
   2.1217335  31.2928200  23.6645842   2.5408685  29.9629188  24.2533731
  22.7667034  45.5127954  11.2410116  22.3134983  44.8441792  10.7274139
  22.4313247  45.3998470  12.1303892  66.4897966  40.4731035  44.4198132
  66.5166092  39.6688032  44.9380922  67.2641611  40.9626722  44.6971464
  66.3146210  56.6061735  45.8138227  65.7969904  55.9830427  46.3237238
  66.2494659  56.2906504  44.9124718   9.8223484  36.2441921  54.6209621
  10.0314987  36.3135099  55.5524588   9.2410648  35.4860091  54.5617771
  16.4618480  28.5967636  28.2042885  17.0280350  29.3679380  28.1734300
  17.0492161  27.8775263  28.4365058  49.3483305   5.1241899  51.5639400
  49.8464966   5.3685504  50.7839727  48.4333944   5.2529752  51.3138533
   2.1782673  36.5660524  34.9948525   2.6953876  37.3660088  35.0891137
   2.0474708  36.2583303  35.8917546  49.4263268  65.0392485  46.4237404
  48.4830332  65.1982069  46.4577532  49.6263075  64.6061230  47.2535849
  13.0468945  67.4818362  16.7321033  13.0174212  67.6140322  17.6796694
  12.1862129  67.1247066  16.5132065   5.7839668  69.2276382  42.4636841
   5.0659693  68.9956093  43.0526447   6.1958206  69.9871349  42.8757191
   1.9293154  49.2663860  42.7768850   2.8570068  49.3701363  42.5650930
   1.6073931  50.1610136  42.8875113   9.1392887  69.3005133  43.1384802
   8.3983410  69.6847963  43.6070490   8.8123119  68.4579611  42.8231573
  19.0715746   5.0256188  26.7074871  18.8519863   5.0143130  27.6390910
  18.3873991   4.4993527  26.2937403  32.1481709  13.9091714   2.4859768
  32.7079300  13.3375867   3.0115151  31.2654595  13.5606606   2.6108819
   4.4325483  61.9433165  45.8962870   4.8517645  62.6586485  46.3746071
   4.8970878  61.1576843  46.1847639  70.8044577  49.1025829  57.1340990
  70.1252651  49.3359995  56.5012884  71.3012886  49.9108076  57.2612572
  29.0063560  48.2920980   3.8482279  28.7336433  47.5453281   4.3813288
  28.2494343  48.8780069   3.8517118  72.2112942  16.7513132  52.3208618
  72.7764750  16.3001609  52.9479694  71.6044474  17.2542536  52.8640223
  56.2712669  54.1128302  53.8334227  56.8150902  54.4902849  53.1420326
  56.8665075  54.0072489  54.5755672  10.5241016  20.7861932  43.0108929
  11.0597090  21.5099652  43.3357143  10.2281002  21.0757859  42.1479034
  30.8520989  10.6539948  57.7744484  30.1501850  11.1543210  58.1906366
  30.4003910   9.9533112  57.3040915  44.7365065  14.7305891   9.9777336
  44.1645642  15.4608318  10.2140779  44.6819039  14.1326114  10.7231684
   5.4550255  64.0926647  26.3721251   5.1331747  63.9960241  27.2683978
   5.0122822  64.8743200  26.0416269  56.5017509  13.1489062  42.4763346
  56.6774464  14.0894771  42.5025320  55.7188225  13.0665767  41.9318342
  13.7509716   6.7355824  45.0493717  13.9129341   7.4021280  45.7169962
  13.0369365   7.0935011  44.5218468  70.1052856  15.3655303  24.3877721
  69.4037390  15.6883216  23.8222027  69.7010612  14.6588755  24.8912334
  17.2694986  66.3782814  54.3360977  16.4294689  65.9460357  54.1820084
  17.3457878  66.4206055  55.2893137  58.2871866   7.7140224  24.9899602
  57.5247717   7.9202944  25.5307078  59.0382767   7.9172248  25.5474567
  67.7771024  35.1450863  53.2446455  68.3315639  35.9173970  53.3557271
  67.8749446  34.9107341  52.3217492  74.2830467   9.7882932  20.3243423
  74.1514063   9.1953039  19.5845687  74.3514967   9.2110169  21.0848022
  45.0470829   0.6118794  35.0195765  44.4081879   0.1529344  35.5649352
  44.5313025   1.2610281  34.5412374  46.9012928  21.2815928  51.0577488
  47.5163698  20.5948496  50.8002758  46.2336540  21.2746215  50.3718615
  55.7067537   8.3054978  18.5431170  54.9930477   8.1934768  19.1710532
  56.4162064   8.6953515  19.0539241  60.8773422  17.1503234  12.8534436
  60.1843357  16.7528582  12.3261917  60.4376554  17.8467631  13.3411717
  44.7478613  58.0866151  22.8688574  45.6931289  57.9443853  22.8191686
  44.4536623  57.4998765  23.5655785  20.3986343  68.3952014  23.8380885
  20.1263460  67.7826022  24.5213246  19.5893749  68.8308731  23.5706544
   1.0680235  50.0922346  22.0744395   0.5412758  49.5168495  22.6291490
   1.0920322  49.6504116  21.2256479  65.7914925  12.0170915  -0.1061300
  66.7477226  12.0381451  -0.0685274  65.5205631  11.8284070   0.7923274
   7.4073752  65.8914654   3.6980283   7.7549871  65.8877660   2.8061849
   7.9809984  66.4902590   4.1761875  68.2976707  47.9991429  36.4759707
  69.1187652  47.7414362  36.0569000  68.2921776  48.9549415  36.4245129
  42.6887083   2.7767128  42.5345373  42.8332233   2.0696878  43.1633949
  41.7899275   2.6477742  42.2315502   3.6400994  62.1346675  23.6421657
   3.9319142  62.2454976  24.5470381   3.8102897  62.9817365  23.2301688
   8.0167059  57.0886792   6.0160084   8.5000471  56.3196958   5.7138891
   8.6946777  57.7330769   6.2193174  36.3678408   8.1812072  13.1900775
  35.6854224   8.7649369  13.5214317  35.9750867   7.3090261  13.2257926
  15.7476795  23.1666231   7.3182458  15.3196990  22.7808833   8.0826211
  16.6254151  23.3944106   7.6247174  48.9854574  16.2434411  21.3538194
  49.2458582  15.3492689  21.1327362  48.0521202  16.1780620  21.5559077
  65.7732248   3.0890071   1.2583074  65.4019403   2.4898940   1.9059505
  65.7433033   3.9472535   1.6810955   3.5303963  18.1809366  55.6405163
   3.0262745  17.8336060  54.9046803   2.9439295  18.8136411  56.0552168
  42.4715933  68.9341429  17.8375375  42.9179319  69.4208814  18.5304308
  42.2013887  68.1163527  18.2551968  60.8512096  39.9272630  48.2433109
  60.6082944  40.7430282  47.8054183  60.5406503  40.0362319  49.1421490
  60.6908417  54.2649555  30.6072783  61.0496521  53.3922195  30.7679486
  60.5829287  54.3083668  29.6571708  69.7905350  56.2312269  13.0325496
  70.0268269  56.1086893  12.1131027  70.4592943  56.8244648  13.3746982
  20.4399618  62.5187562  55.7503033  20.1467117  62.5164835  54.8391294
  21.3727554  62.3094420  55.7022285  59.3912792  21.7549253  25.1583910
  58.9654636  21.5088034  25.9795713  58.9802027  22.5842738  24.9146128
  54.4499016   7.1452856  29.3641686  54.8769999   7.8441155  29.8596072
  54.2955208   6.4546394  30.0086880  17.0076072   3.9097819  32.9703689
  16.2629783   4.4610831  33.2108235  17.4637592   3.7497056  33.7965250
  46.1300310  65.7909699  17.2430384  46.1444982  66.7197578  17.0120072
  45.2033409  65.5917265  17.3763609  18.7493023  49.1870467  23.2219601
  18.1981929  49.8319952  23.6652994  19.6385511  49.3936555  23.5096812
  73.0769110  33.0078578  60.8824396  72.9174471  32.0678163  60.9668398
  72.3557138  33.3252931  60.3389931  25.2018059  13.9931917  42.0612907
  24.4713676  13.3775914  42.1223211  24.8019684  14.8529994  42.1920156
  45.4118538  27.1172285   4.9843508  44.8567581  26.7946339   4.2744002
  46.3052082  26.9437361   4.6876112  44.2545748   9.2208612  44.3439865
  43.7167215   9.6320921  45.0206232  44.8054695   8.5998297  44.8204994
  14.3137702  69.2079544  21.2323833  13.9485797  69.6038990  22.0236468
  15.1730856  69.6180017  21.1340547  12.9750928  70.3114792   9.0216142
  12.8894743  69.6332640   9.6916330  13.8363703  70.6977342   9.1804832
  68.3141518  43.7202024  11.7695117  67.6845264  44.0487432  11.1277413
  68.1184626  44.2089462  12.5689280   9.8078378  69.6389385  23.3014846
   9.7090849  68.8156198  23.7796354   9.5825323  69.4193985  22.3974562
   4.8121441  15.0867486  43.3704853   4.9090278  15.4048729  44.2680597
   3.9668882  14.6375859  43.3654976  57.1144629  41.2540293  53.3095551
  56.2667704  40.8440018  53.1377029  57.7436304  40.7118607  52.8337097
   2.5319803  14.8703897  38.4006310   2.5399053  15.8240092  38.3183050
   3.3431232  14.5868266  37.9788923  12.2348312  59.2522873  13.4027262
  13.1884865  59.1834129  13.3576507  11.9181542  58.4103955  13.0753584
   8.3724964   2.1935007  35.9346247   8.8279045   1.3768420  35.7299304
   8.8365066   2.5422069  36.6957641  59.5079374  25.8017659  11.2969875
  60.2822495  25.8274531  11.8591416  59.3687868  26.7130327  11.0391843
  19.6083610  65.3290728  53.6604451  18.8308732  65.8525303  53.8547163
  20.3116720  65.7532910  54.1519987  46.6762733   0.6496269  19.9702322
  46.9978237   0.1341250  20.7098913  47.4672699   0.9126780  19.4997442
  59.7148609   3.1898627  24.8690796  60.1667547   3.9904451  24.6024489
  59.4920063   2.7551389  24.0459275   0.3924072  19.0190339  32.1251035
  -0.3168118  19.3974268  31.6054296  -0.0524866  18.5123885  32.8045225
   4.5618475  49.5787001  13.3934760   4.4462526  50.4178905  13.8391614
   3.7282121  49.4271994  12.9481280  47.7206834  65.6866302  41.5741301
  48.2466491  66.4085181  41.2299395  48.3203586  65.2029644  42.1421814
  38.6568817  66.2233673  39.8816395  37.7221330  66.0722990  40.0218296
  38.9426645  66.6973756  40.6625843  49.4118690   0.5945317  30.6575990
  49.0178967   1.3775052  30.2729344  48.7566042   0.2773345  31.2790823
  70.8556843  39.3103981  13.9443874  71.3080740  40.1361036  14.1169643
  71.2277508  39.0015531  13.1183040  52.9934315  47.7546967   8.2048960
  52.6031117  47.2333468   7.5034065  52.2482018  48.0439831   8.7313719
  64.9152359  44.2032425  37.5430870  65.1841339  45.0451128  37.1754122
  65.1073059  43.5682265  36.8530893  60.2818092  69.0680248  11.1327672
  60.2346786  69.4730240  11.9987857  59.8882469  69.7129301  10.5450249
   4.0661228  45.1660061  30.1809311   3.6533535  44.4090605  30.5967307
   3.3790148  45.8320999  30.1600575  73.6393567  51.0682730   1.3054869
  73.9641615  50.5306678   2.0277852  73.6064621  51.9554965   1.6632341
  29.9485449  66.5372814   3.1380434  30.3788857  66.9151081   3.9050407
  29.6283011  65.6865395   3.4378929  61.8952036  20.2674222  17.5507092
  62.5233412  20.7848382  18.0546546  62.4174786  19.8676372  16.8552721
  69.2797947  52.2824717  14.2072034  68.5816050  52.0173311  14.8059249
  69.7958708  51.4873934  14.0740025  27.2744516  55.1701928  10.4061289
  27.4038223  55.9515656  10.9436722  26.8024735  55.4852380   9.6352739
  13.5767448  31.6821027  27.3419476  13.0011833  32.3122334  27.7754211
  14.2620456  32.2184587  26.9432998  36.0793066  10.6414413  54.4553804
  35.6121969   9.8833334  54.1042233  35.4352593  11.0850048  55.0073624
  53.8381290  20.6740403  50.3451014  54.5459127  20.0506377  50.1818609
  54.0494251  21.0589695  51.1956406  74.3275385  62.1320608  33.0108862
  74.4475345  61.4874366  33.7082343  73.3871774  62.3108176  33.0091767
  69.4228888  37.3601580  53.2038403  69.4549084  37.9758692  52.4716425
  69.3719816  37.9155564  53.9817667   6.4435756  31.1659384  32.4685216
   6.5093792  32.0613456  32.1366334   6.9139278  31.1842585  33.3019829
  68.8312244   4.9883807  53.2096100  69.7719240   4.8563802  53.3274984
  68.7643099   5.8020610  52.7099323  19.5132069  23.1092109  10.4856081
  18.8404421  22.4589480  10.6875439  20.0478510  22.6977612   9.8065729
  31.5571165  15.0451517   6.5521574  31.5381503  15.2766597   5.6235689
  31.0647249  14.2260039   6.6048831  65.6058025  31.6541934  16.6569901
  66.3962984  31.1838961  16.9218779  64.9418163  31.3825226  17.2906673
  71.4253569  12.3905361  17.8369153  71.3038349  13.2740545  17.4892676
  70.5373096  12.0741999  18.0028605   1.4273413  41.8791120  18.6217749
   1.1883649  40.9548275  18.6912251   1.3391360  42.0799510  17.6900482
  19.3115223  36.7513347  14.2062926  20.0402439  36.1625743  14.0099025
  19.7265137  37.5320029  14.5731330  61.6533852  17.1262407  21.7614865
  61.3504410  17.8905153  21.2712407  61.1998796  16.3868487  21.3566852
  11.0413603  37.2531402   0.7056207  10.6379465  38.0848948   0.9539671
  11.6625647  37.0684674   1.4100618  72.0647383  40.9070063  28.3563757
  72.2795725  41.6933441  28.8581252  71.9962835  40.2146626  29.0138006
  73.9275599  36.8467236  12.3206854  74.4624090  36.3074160  11.7381763
  74.4899368  37.5884342  12.5439155  34.1364622  12.6609361   4.0572762
  34.4939065  12.0484102   3.4144086  34.8921847  13.1717944   4.3473423
   1.5464485  20.6679583  38.9352083   2.0887935  20.1540923  39.5335674
   1.8788898  20.4508090  38.0642533  23.6393440  13.3885479  15.7454073
  23.0696476  12.7812850  16.2175405  24.4976986  13.2789803  16.1546218
  31.6783556  69.0723728  12.4720204  32.0826229  69.8574313  12.1025801
  31.4983972  69.3020245  13.3836710   4.0248430  19.2207074  49.5322418
   4.2509496  19.5156848  50.4143381   3.3096254  19.7970474  49.2629385
  35.3060310  38.1024832  59.5333262  35.7438438  38.8204095  59.0760148
  34.9441497  37.5583190  58.8339256  51.1724600  62.4990766  14.8833466
  51.7919429  62.9458039  14.3063653  51.5056738  62.6632170  15.7655358
  70.4324245  16.9706142  11.7895472  71.0833073  16.9823730  11.0878026
  69.9325180  17.7775121  11.6660929  56.2952328  13.8590705  51.5393353
  55.4824638  13.3636248  51.6401958  56.4201021  13.9242208  50.5925560
  10.7042206  21.9638395  20.2017021  10.6607712  21.0247231  20.3817201
  11.4283264  22.0557594  19.5824575  11.7484367   3.4881267  40.1058960
  12.5434768   3.9369634  39.8183441  11.6221893   3.7794879  41.0088921
  21.2298668  10.2132750  12.3756182  21.5708626  10.8454549  13.0083156
  20.3599060   9.9891776  12.7060413  60.1641512   1.2303668  46.3939238
  59.6760035   1.0734282  45.5856419  61.0444212   1.4652282  46.1003351
  18.2200878  62.0802334  50.2874367  19.0670125  62.4994305  50.1350527
  18.3285920  61.1912683  49.9495046  72.9466486  27.8531933  13.3129025
  72.0880032  27.6696634  13.6940539  72.7553988  28.1482005  12.4226069
  74.6640539  22.1023846  29.7778058  73.9017200  22.4840498  29.3425941
  75.3008652  21.9723558  29.0750980  42.8592333  61.1549412  17.9037619
  42.7975305  60.2036409  17.9900813  43.1556829  61.2951110  17.0044827
  53.0519454  49.7701994  60.5988154  53.7150161  49.0806928  60.6326414
  52.8612869  49.9643746  61.5165184   8.1976497  58.1500530  53.6653519
   8.2364548  58.2953644  52.7200413   7.5954616  58.8212967  53.9863396
  57.8179121  55.1722336  18.4375477  58.0914783  56.0878086  18.4933615
  58.0647278  54.7965670  19.2826450  10.9941662  34.1703105  16.4940095
  11.1675155  33.5706139  17.2196448  10.1533497  34.5727372  16.7115104
  72.3225641  25.9043813  17.1996510  72.2080278  25.9383297  16.2499344
  72.3565149  26.8220544  17.4697578  66.6784239   1.3035026  27.5377870
  66.2464094   0.4621264  27.3905444  67.4379778   1.0910653  28.0801702
  65.9658623  40.1186180  38.5952425  65.6895113  40.7740831  39.2357349
  65.1518774  39.7015238  38.3129406  30.7345852  48.9391319  23.6424875
  30.6612285  49.8327987  23.9774632  29.9581894  48.8242476  23.0945444
  67.9443789   9.7813177  22.2633076  67.2864819   9.4519591  22.8756189
  68.0146980   9.0978765  21.5968275   9.5580920  30.9847443  23.8873315
   9.3181022  31.3870065  24.7220898  10.2563318  30.3690688  24.1101193
  33.5002637  51.1136341   2.0916153  32.8058767  50.5858326   2.4859285
  33.0647016  51.5960646   1.3889211  23.5042290  48.1130422  14.8928566
  22.6748757  48.5431458  15.1012344  24.1058449  48.8326253  14.7018404
   4.6790950  31.3603097  50.4324989   3.9483945  30.7425747  50.4591911
   4.8890178  31.4429334  49.5022636  62.3790741   8.2948571  54.2593956
  62.6690149   7.4128681  54.0264511  61.8525982   8.1730551  55.0494719
  68.8581610  14.9668050  21.5284085  68.5634518  14.0987813  21.2528849
  69.7805595  14.8461711  21.7539215   3.2240951  12.1006620  26.3161063
   4.1524875  12.2594953  26.4866757   2.7701605  12.7900708  26.8007636
   1.6767900  49.4311062  53.7972866   1.5878837  50.2438775  53.2995610
   2.5237720  49.5104054  54.2361062  49.4220686  15.2207577  29.9999166
  49.1601992  14.4496310  30.5029273  48.6557722  15.4298842  29.4657946
  34.2485988   3.3719701  20.0104403  34.6988380   4.1673809  20.2947712
  34.6022213   3.1951976  19.1386950  26.5509689   5.8889526  21.0111022
  25.9205425   5.5572009  21.6504288  27.3842705   5.9037149  21.4818668
  15.3912819  18.3780909  40.0519753  16.0684192  18.2279003  39.3923044
  15.0901497  19.2715824  39.8869801  61.8489170  35.4781556   3.2752833
  62.7240562  35.8127952   3.0793643  61.7396927  35.6284499   4.2142791
   0.9571445  36.1821032  49.9123001   0.0439251  36.0699105  50.1762724
   1.4316976  36.2991977  50.7352972  74.7613621  10.8523917   3.7926283
  73.8049221  10.8905494   3.7919530  75.0345898  11.6859031   3.4094331
  59.0930557  21.2373424  28.1351781  59.6957445  21.8650126  28.5339642
  59.6026945  20.4306054  28.0598283  49.3447336  67.9315718  30.1312828
  49.3449243  68.8820387  30.2446175  49.9907812  67.6149483  30.7626343
  50.2509149  67.5642131  33.1326008  49.8770174  68.4012838  33.4078169
  51.1778101  67.7526550  32.9856777  64.4399118  43.1142569  24.9918151
  64.3126392  42.7759743  24.1054726  63.6423445  43.6106014  25.1755619
  60.5859490   8.3743831  11.9343300  59.7557469   8.8120958  11.7462034
  61.1856862   9.0853092  12.1604557  58.7757778  12.1434760  37.7228665
  59.1087866  12.9489279  37.3271585  59.2849493  11.4457071  37.3104358
  56.8341526  67.9965015  49.0841103  56.2083610  67.5671045  49.6674061
  57.2383579  67.2788589  48.5964251  36.5038204   9.0157688  10.6170285
  36.7514038   9.9324536  10.4961002  36.7083097   8.8313770  11.5337706
  74.2737532  11.9439709  55.4360485  73.8255072  12.3714733  54.7062874
  74.4835997  12.6571035  56.0390711   0.7019957  65.0776051  18.0017018
   1.1421808  65.2096562  17.1620393   1.3628849  64.6625201  18.5559249
  56.5925074  15.9316730   8.8873076  55.9759474  15.9100199   9.6191663
  56.6748142  15.0173247   8.6163372  39.3356308  61.7067401  30.8520412
  39.9053892  60.9987693  31.1526847  38.6388763  61.7479990  31.5070677
  49.7113705   9.3145984  24.7458363  49.6679163   8.4459364  25.1455474
  50.5228567   9.3043762  24.2382741   8.6955250  40.5241156  57.3541784
   9.5960224  40.6371307  57.6584339   8.2467163  41.3224697  57.6324320
  74.2263222  16.6093218  54.5778847  74.5439625  17.0834625  55.3463459
  74.6514416  15.7534087  54.6319246   2.7556885  10.0415576  57.8229332
   3.6771143   9.8427039  57.6566076   2.6959265  10.9926593  57.7331161
  46.2853479   9.0359366  27.7048135  45.4100037   9.1254938  28.0816221
  46.7327118   9.8480612  27.9426146  26.7408566  27.4318434  16.5698070
  26.6456799  28.2915802  16.1598987  25.8570341  27.0643545  16.5635557
  52.3186731  28.3423114  42.0184994  52.2424316  28.8796234  41.2300110
  53.1739521  27.9199719  41.9387579  31.7191299  61.6474806  22.8269815
  31.6354784  60.7000087  22.7195978  31.3570055  62.0129077  22.0197892
  70.7541609  28.0749536  28.3830285  69.8144627  28.0994344  28.5635734
  71.0582829  28.9618421  28.5758233  14.1970460  56.7728904  57.6931294
  14.2581813  56.1145809  58.3853166  14.6579521  56.3829354  56.9503408
  15.8362663  16.1111367  41.5514469  16.7407787  15.8488977  41.3802195
  15.7922256  17.0224607  41.2619972  33.5328567  14.2365980  57.3963022
  33.4684837  14.9001098  58.0832052  34.0596473  14.6501696  56.7124271
  60.9945440  27.1377897  47.7169466  60.4220295  26.5858793  48.2497215
  61.0035801  26.7149067  46.8582726   1.4225519   8.0989462  39.6593952
   1.6054189   8.2015365  40.5933475   1.9690407   7.3614562  39.3879294
  20.5395496  22.6752567  16.6351593  20.5143726  23.1117225  17.4866843
  21.3856876  22.9242778  16.2633049  37.3589659   4.2246628  32.1171045
  38.1367970   4.7286463  32.3562980  36.9560647   3.9942744  32.9542589
  26.7718061  68.7044638  27.4084449  26.4092382  68.5337190  28.2777119
  26.7823442  67.8481226  26.9808936  25.9481701  56.8459634  21.3103271
  26.3769468  56.3337664  21.9959188  26.5723976  56.8448178  20.5846739
   7.4625957  18.6584854  10.8635175   7.5514305  19.0335321  11.7396903
   8.0032623  19.2190874  10.3070712  42.9607853  64.0837751   7.1944273
  43.7481960  64.4125949   6.7607230  43.2906851  63.5476683   7.9155284
  45.4424576  39.3871288   5.1786346  44.7861008  39.4254790   4.4829626
  45.8584313  40.2490817   5.1632376  37.8746403  40.0600004  16.3638091
  38.3521545  40.0880527  17.1929193  38.4046638  40.5852127  15.7642615
  17.5750765  62.5597768  32.8430939  16.6951688  62.8701292  32.6293659
  18.1369146  63.3235256  32.7117372   6.8885105  59.4254068  61.1756352
   6.3326423  59.7000221  60.4463717   6.8474405  58.4691981  61.1612398
  14.6190175  65.9882157  60.3012848  15.4341444  66.0084666  60.8026695
  14.5865139  65.1054965  59.9325275   3.3825942  24.7804271  57.1610491
   3.2800552  25.7277785  57.0702751   4.1507503  24.5706712  56.6298517
  22.9929817   1.9663805  58.2802963  23.2240951   1.2507020  57.6881647
  22.0394695   2.0269574  58.2220984  73.3911896  11.3289070  15.7213855
  73.3449745  10.5419433  16.2643254  73.0550385  12.0273972  16.2829411
  49.5114613  26.4007163  19.0799117  48.6064434  26.2856412  18.7902021
  49.8736811  27.0532417  18.4805441  63.6567163   0.5192814  29.3332815
  63.9058733   0.1352384  28.4926486  64.0141010   1.4068544  29.3064451
  68.0434322  13.6149919  50.8771563  67.5416374  12.8088248  50.7566166
  68.6573839  13.6270142  50.1428890   5.1101784  41.4657904  11.8645258
   5.7002501  41.8569805  12.5087423   5.5992798  40.7222552  11.5121527
  62.8749514  16.9838512  16.9216752  62.3403406  16.3619721  16.4280248
  63.1558275  17.6274228  16.2711704   3.6996973  29.8442316  42.0921373
   4.0228546  29.3122911  42.8193521   3.8512743  29.3055940  41.3155222
  59.4946083  55.1806597  20.8449912  60.3077682  55.6669836  20.7090044
  59.7285160  54.4922070  21.4675260   1.1021698  12.9519200  27.7709723
   0.3467977  12.5233173  28.1733918   0.7331121  13.7068093  27.3125267
  46.3559341  16.4770889  21.8367720  46.2115049  17.2161984  21.2459350
  45.4772186  16.2137020  22.1101141   2.2910679  24.3618226  29.9739170
   2.4583853  23.6275530  29.3830824   1.7367161  24.9553633  29.4673252
  12.9694355  17.9122794  37.6704311  12.4811924  18.6367941  38.0614924
  12.9304397  17.2157860  38.3258772   8.8522804  38.0229497  37.4117064
   9.7710407  38.0156016  37.6801538   8.4391201  38.6647558  37.9892969
  15.6370834  37.4703418   1.1380834  16.5666536  37.4828069   0.9101028
  15.2582983  38.1938629   0.6388111  34.3182325   2.6755279  36.4040804
  33.4105802   2.9733297  36.3431215  34.5933199   2.5579828  35.4948282
  49.9847555  28.1717992  43.9681482  50.7243872  28.1913280  43.3608627
  49.4306231  27.4600387  43.6478853   1.8947685  49.1923428  12.1693516
   1.6254699  49.9127245  12.7392280   1.3764417  48.4447527  12.4671412
  62.6386881  37.0654511  24.5616293  62.5141191  37.8328919  24.0032840
  63.5168505  36.7519236  24.3453717  37.7782949  67.4484070  28.0828118
  37.9678806  66.5293537  27.8940511  36.9710287  67.4257971  28.5966659
  72.7334181  19.2039980   5.9297819  72.3089520  19.4334854   5.1031084
  73.6237494  18.9556683   5.6810255  74.4320822   0.0955559  31.1579394
  74.8100567   0.7016325  30.5207276  73.4893942   0.2544066  31.1096406
  61.2424803  35.8131981  41.2830448  61.4657974  35.4950261  42.1577597
  61.6976643  35.2173972  40.6880140  45.2541670  42.3445313  13.2861400
  44.3392786  42.0827548  13.3894992  45.3808864  42.4035518  12.3392022
  70.2554798  51.7904806  20.8493876  69.9472237  51.2883520  20.0950146
  71.1641312  52.0055389  20.6388521  26.8967426  23.1464839  30.6994486
  27.7793396  22.8176594  30.8701611  27.0268047  23.8820338  30.1008797
  59.3565226  25.5258203  33.9723945  58.8142157  24.7519994  34.1251659
  58.9278316  25.9792161  33.2465243  71.4559555  20.3170538  37.4437141
  72.2610044  20.8005548  37.2583508  71.2381411  19.8882747  36.6161036
  60.8850368  62.6236592  20.5356765  61.0644611  62.5968097  21.4755249
  60.7747635  61.7060415  20.2865815  43.4629774  20.4506207  58.0516386
  43.1726122  20.6813335  57.1692038  42.9848337  21.0493660  58.6253214
   7.4738682  53.3328533  45.4205036   6.6885078  53.3061695  44.8739338
   7.2925079  52.7171469  46.1306095  52.5296926  34.9754906  46.5681887
  52.3831987  35.7319736  47.1360826  52.4855471  34.2219806  47.1568346
  40.4913839  56.3822667  35.6121492  40.6668123  55.6332426  36.1817288
  40.1120027  55.9983604  34.8216319  12.6803100  21.7261171  55.2426100
  12.1988762  22.5263548  55.0326681  12.7447307  21.2597418  54.4091940
  61.5467501  42.5717831  39.9333978  61.2327671  42.2571468  39.0856647
  61.6793966  43.5111570  39.8060584  63.6784077   9.3742269  23.0388546
  62.7992487   9.7263998  23.1777287  63.5420561   8.5958540  22.4986935
  10.7698143  11.3112903  16.2724543  11.3641537  11.9963360  16.5785646
  10.0098121  11.7862391  15.9362173  35.6530178  26.9589925   9.2460954
  35.2269542  27.1214843  10.0877023  36.0336864  26.0852647   9.3350965
  14.6288876  15.0771649  43.9600945  14.9751715  15.1279195  43.0691671
  14.0800099  14.2929681  43.9594126  59.8582792  48.2941294  39.8166370
  59.5515490  49.0322447  39.2900062  60.0879765  47.6215267  39.1754842
  61.5298176  63.5415077   1.6094373  62.4812365  63.4632874   1.5392986
  61.1905241  62.9389477   0.9475937  64.0104389  34.1657948   6.5899724
  63.2061863  34.6341872   6.3663185  64.7019768  34.8217440   6.5020287
  14.8669546  47.3088673  51.8574130  15.2517288  48.1844023  51.8171840
  14.5370691  47.2331301  52.7527749  62.1482325  39.4031000  13.9855599
  62.0973825  38.9358377  14.8194134  62.9762840  39.8812962  14.0290809
  61.7404413  32.0241261  16.3955927  62.5132275  32.2663665  15.8853471
  62.0196152  32.1076179  17.3073614  74.5521307  39.8136187  28.9397526
  73.7579155  40.2344656  28.6105943  74.2338419  39.1213346  29.5191169
  57.6808929  22.1408081  18.5273433  57.9151344  21.4773536  17.8783500
  58.1736279  22.9180169  18.2639158  38.9694329  20.2321550   1.2960930
  38.2067032  20.3856441   0.7384939  38.8560172  20.8373424   2.0289774
  -0.1197540  37.5490427  40.4805374   0.4963339  36.9191790  40.1064539
   0.3332699  38.3902907  40.4230356  50.4572296  60.0356722  33.8284850
  50.2145386  59.2512560  33.3365273  50.6997395  60.6737518  33.1574583
  68.8130617  35.8352256   5.4731041  68.2023525  35.1212883   5.2899277
  68.3558226  36.6229844   5.1788276   4.3286026  28.2128239  31.9283128
   4.3833387  27.5506735  32.6173663   5.2214802  28.5480213  31.8467784
  65.8835506  22.1885633  34.0278435  66.2165594  21.5243292  34.6312737
  66.1926222  21.9065523  33.1669259  41.2158140  69.3372127  36.5236902
  40.7269844  68.7226412  35.9763527  41.1164173  68.9973180  37.4129748
  41.4044222  61.5006976  35.8514881  41.2016948  62.4199907  35.6781864
  41.3906368  61.4281778  36.8058372  30.0904211  66.6511361  13.6824667
  29.4613537  67.1353321  14.2173088  30.9443840  66.9889654  13.9523864
  62.1835375  53.3843470  19.3183100  62.0912981  52.7154970  18.6398089
  61.6546106  54.1179943  19.0048921  68.9504671  24.7187495  48.4603167
  68.4370375  25.2162552  49.0967989  68.7721252  25.1458168  47.6224422
  66.5386677  12.4405026  17.9807258  65.9538937  12.4661624  18.7381005
  65.9564161  12.5243509  17.2256207  74.5780134  38.4288144  48.3736467
  74.6907043  39.2718029  48.8128567  74.9290466  37.7878404  48.9918375
  34.2346466  43.3150387  14.4790876  33.3450020  43.6378908  14.6223855
  34.1369331  42.6285553  13.8192201  13.9389313  19.5649230  32.7616930
  14.8456466  19.5782876  32.4552369  13.9763534  19.1052735  33.6004734
  52.3329878   9.4038123  16.8098247  52.6084185   8.5742241  17.1998930
  51.3950920   9.4553727  16.9939935  71.1724472  62.0980453  33.0640888
  71.2433720  61.7305470  33.9450788  70.2957249  62.4810505  33.0342078
  27.4377172  60.2310351  50.4092961  28.1598155  60.3956726  51.0156803
  27.4256532  60.9983972  49.8372452   8.5040367  32.3441434  11.9977570
   9.3146885  32.1847367  11.5143764   8.2835758  31.4956784  12.3821235
  67.5668526  22.5155067  44.8680162  67.5077629  23.3454967  44.3948793
  68.3361435  22.0828676  44.4975519  23.5107029   7.7015352  42.2631311
  22.9767406   7.5084531  41.4925289  24.0135753   8.4781104  42.0176077
  67.9822445  43.0181217  54.6524477  68.1457329  43.4182787  55.5064821
  67.4621153  42.2388983  54.8486805  74.3481112  36.0692286  33.9236426
  74.9968290  36.4760351  34.4980216  74.3350124  35.1500225  34.1903281
  56.4900160  18.4237432  51.5697575  56.1696768  17.7599347  50.9590387
  57.3198748  18.7157154  51.1925125  25.3140819  20.2733684  36.4226604
  24.4564235  20.3587317  36.8390226  25.3936374  19.3396950  36.2273216
   1.5087475  22.5188184  47.3923302   0.7298908  23.0637026  47.2795773
   1.7598659  22.2727823  46.5020275  15.9336487  56.2298740  16.7860336
  16.2946234  55.3978242  17.0920152  14.9850026  56.1092986  16.8280430
  12.8625961   0.0639841   1.0030145  13.1407495   0.0464293   0.0872917
  12.2553249   0.8020732   1.0547657   4.7975776  46.4666557  45.7392168
   5.4609466  46.0254431  45.2086449   4.4806927  47.1784592  45.1831961
  45.6976668  55.7734979  12.2393055  45.0696222  55.0611748  12.3592586
  46.5536014  55.3589357  12.3477049  10.1858532  43.4428453  53.6379719
  10.3190863  43.3634043  54.5825195   9.7714841  44.2983627  53.5256529
  49.9433628  63.3289923   4.2071361  50.0600258  62.4855842   4.6445007
  50.0728027  63.1370868   3.2783480  64.1005385  15.4402852  56.3061523
  64.6720695  15.2238762  55.5694342  64.6787953  15.4303002  57.0688772
  16.0609329   0.0533017  50.8431101  15.6870067  -0.0366547  49.9665737
  16.5650582   0.8661522  50.8061838  72.4435047  28.5310586  38.0033750
  72.5735167  28.9585550  38.8498850  71.6566804  28.9423807  37.6456709
  57.3970341   5.3738213  15.1363826  57.4534511   5.0300801  16.0279489
  58.2684791   5.7288557  14.9609780  40.7705859  47.1324970   0.1243753
  40.9684662  46.7486252   0.9786100  40.1114146  47.8014697   0.3093071
  26.8118167  13.8291836  55.2793694  26.9677544  13.9850676  56.2108278
  26.8576288  14.6979618  54.8801756  70.8482942  17.6407719  39.9516773
  71.7214751  17.3144662  40.1691914  70.5276793  17.0381284  39.2806649
  67.6639920  31.3423276  39.5700121  67.7597427  30.5604124  39.0262532
  68.2843041  31.2126207  40.2873802  27.2837461  60.7371916  22.5114031
  26.8639376  60.9548105  23.3436460  28.1708986  60.4710831  22.7530165
  68.3023754  46.7747487   6.6052360  68.1818405  46.7659773   7.5547762
  69.2356268  46.9495012   6.4838714   3.3697575  31.7373109  33.2878137
   2.9682362  31.0840607  33.8607669   3.7121883  32.4019790  33.8854671
   5.8934587  17.5877130  53.7056446   6.5404159  16.9397938  53.4265757
   5.8484125  17.4870420  54.6564674  50.3509032  41.9546413  58.0507278
  49.7236740  41.2891006  58.3333492  50.3975379  41.8515348  57.1002388
  67.1796322  32.6632786  59.0754795  67.4335372  31.7498589  58.9434671
  67.6238113  32.9209971  59.8832607  10.6154108   6.6593146  54.2854071
  10.1350963   7.3204118  54.7838879  10.5826235   6.9707352  53.3808804
  68.4408442  42.0293547   1.5180797  68.7911002  41.1862947   1.8058319
  68.0194727  41.8400825   0.6797190  34.8844389   3.6916812  50.1097345
  34.4609449   2.8899033  50.4163885  35.7226006   3.3982737  49.7524834
  10.9105984  51.0202671  11.0497875  10.3262523  51.5584363  10.5157966
  11.7904095  51.3091780  10.8075161  10.8691120  19.7174549  56.6302443
  10.6366324  19.3245113  55.7889462  11.3156331  20.5319214  56.3989496
  54.8984313  64.1971207  55.0915480  54.5072949  63.5199594  55.6435442
  54.8888647  64.9846506  55.6355476  70.9792927  45.8607340  29.3586063
  71.9333997  45.7865191  29.3385029  70.7011595  45.2018547  29.9948072
  52.7556411  59.0897979  29.4886274  53.4675876  59.3437995  30.0758619
  52.8622118  59.6558966  28.7241621   3.9877105  44.2260647  49.6805048
   3.0364209  44.1811275  49.5842743   4.1431242  44.0504742  50.6085396
  73.0158063  67.4171972  42.8717470  73.3962725  66.6925192  43.3680534
  72.1724400  67.5800800  43.2941628  45.9336320  59.1580428  16.7504997
  46.0907189  58.2147111  16.7094965  45.2907339  59.3239893  16.0610266
  50.5280320  57.4936284  25.5174227  50.4688970  57.0567311  26.3670416
  51.2342898  57.0359529  25.0613947   2.3479523  39.8054504  56.6027784
   2.0667715  40.1253128  55.7455444   1.7391753  39.0949488  56.8047953
  35.3828974  29.0344402  18.6277361  35.1552983  28.4217760  19.3270750
  35.5876418  29.8515245  19.0823622  71.2228411  23.4051275  11.0757697
  71.8096262  24.0238595  10.6409299  71.7967140  22.8868437  11.6399360
  66.5580658  35.4589260  18.9637441  65.8654622  34.8955018  18.6186571
  67.3298672  34.8940047  19.0014143  61.0958607   7.3563978   2.2590322
  60.2172501   6.9813797   2.3193474  60.9819670   8.2742378   2.5056619
  68.8539202   1.8674871   8.2669992  69.4365366   1.1922952   8.6147137
  68.2683213   2.0765111   8.9947433  71.9168536  57.8787412  13.8026447
  72.8316943  58.1058515  13.6361475  71.4411751  58.7014521  13.6881561
  67.8194463  44.5024872  50.3526497  68.4264976  45.1527214  49.9992180
  68.3369755  43.6995173  50.4129410  49.8360669  27.8993177  49.5260143
  49.0072691  27.7809143  49.0619993  49.6157944  28.4588194  50.2707720
  40.6004430   4.0661523   6.0634346  41.3236131   4.5747611   5.6965895
  40.8153386   3.1575867   5.8523483   6.1471792  21.7286894  10.9870119
   5.7068367  21.0147258  10.5259437   6.8484970  21.3003132  11.4778061
  62.8168833  39.9245334  44.0350580  63.6907172  39.9402928  43.6446762
  62.8419447  40.6067896  44.7059774  66.3808218  58.0593385   7.2216196
  65.4895703  57.7938737   7.4483986  66.7074267  58.4976829   8.0073805
  49.5882622  42.2949333   2.3129005  49.1343705  41.4556499   2.3891611
  49.5948402  42.6454730   3.2035799  31.2260194  28.0834934   5.2703209
  32.0307143  27.9046079   5.7568378  30.5517562  28.1661054   5.9446926
  52.1193826  30.7524797   7.2139759  51.8503766  30.1830026   6.4931698
  52.8250985  30.2727768   7.6476593   8.4752119  26.5911150  47.1401548
   7.8464049  26.9837356  47.7456999   9.1515011  27.2595620  47.0304155
  27.9597337   4.4819328   8.8070888  27.4851854   4.1788313   9.5811481
  28.6640461   5.0279113   9.1564913  74.9790905  25.8025837  49.9087954
  74.4913334  26.6007805  49.7058010  74.8270026  25.2310228  49.1561890
  44.6929923  60.2039207  10.8150167  45.1349012  60.9022964  11.2979431
  44.9013034  59.4068374  11.3023538  55.5577031  55.0102354   0.8286114
  56.2759606  55.4268946   0.3524465  54.8188773  55.6089558   0.7195206
  60.8985623  63.7550668  51.2559748  60.0703879  64.2268769  51.3440371
  60.6840464  62.9930352  50.7179022  66.4999933  15.5280229   1.4608927
  65.8771701  15.3510591   0.7559032  66.0709865  16.1942407   1.9978638
   1.6913971  20.7994246  49.4036293   1.5847783  21.4124012  48.6762190
   1.0349333  20.1214123  49.2436695  19.7874486   9.9873632  43.1418705
  18.8566196   9.7887826  43.2436275  19.9271333  10.0019264  42.1950340
  15.4804242  22.8640699  44.7445250  15.5533314  23.6257195  45.3196812
  16.0476017  23.0699086  44.0014410  71.3530239  39.6857858  38.9501882
  71.0491949  39.8389506  39.8448730  70.7625928  40.2052546  38.4045029
   7.7554047   6.3286483  36.9177175   7.4507380   5.5242521  36.4977694
   8.6994815   6.2048632  37.0158339  60.6647980  37.5380635  21.9081974
  60.1243520  36.9691181  21.3600636  60.0352204  38.0671525  22.3980212
  41.3432506  70.2449716   0.7542248  40.8327869  69.4446148   0.6313915
  41.2214426  70.7339991  -0.0595598  33.9199749  57.5220169  10.6472034
  34.8465446  57.6602091  10.8436842  33.7657247  56.6006483  10.8558197
  70.4564199  14.1605902  31.8162322  69.8440274  14.1480792  31.0806704
  71.2182170  14.6365821  31.4855814  11.4688325  37.7925396  38.3161497
  11.4724565  36.8757415  38.0410099  12.1515059  37.8445482  38.9850926
  26.0963531  62.8158097  57.9842234  25.8258649  61.8977503  57.9688978
  26.9630166  62.8034072  58.3903933  15.9653828  51.0863520  20.5419512
  15.7514087  51.4684416  21.3931055  15.2788523  50.4364694  20.3917475
  47.7180779  45.7425451  51.3254023  47.7087867  46.6939211  51.4304209
  48.3971321  45.4415512  51.9291544  63.4548433  16.0411331  35.5788202
  62.5407977  15.7664558  35.6516619  63.4152873  16.8912002  35.1405783
   1.3086529   2.2580263  15.5081148   1.6828962   2.9274031  14.9353046
   1.7068215   2.4241134  16.3625784  48.5668313  14.0801179  52.2932339
  49.3866384  13.8798070  52.7449179  48.0583203  14.5812273  52.9308367
  65.2213521  45.9362623  12.4030084  64.8561318  45.0731680  12.5977249
  64.6877391  46.5433618  12.9157657  64.6023977  43.2310820  54.2390299
  65.0545251  42.4281406  53.9799976  64.4516313  43.6970329  53.4165955
  74.1678826  64.1555585  22.3982210  73.7345473  63.8888825  23.2089872
  74.8942295  63.5397424  22.3011083  58.8334763  32.0160437  57.3391390
  58.1050300  32.2555637  56.7662287  59.5108878  32.6651454  57.1493626
  66.1095994  26.8142152  53.2341719  66.8731802  27.0614552  52.7125883
  65.4205328  26.6545296  52.5892544  41.6119166   5.1335451  23.1084318
  41.2156411   4.9186775  22.2640199  41.3147040   6.0245821  23.2926912
  14.6969509  20.3093910  56.7751265  13.8670599  20.7298136  56.5498304
  15.3664160  20.9133005  56.4536572  41.0735130  33.2378435  57.2045946
  42.0177650  33.3823752  57.2656250  40.8278322  33.6136365  56.3592243
  18.8432968  42.2046852  52.4084234  17.9235291  42.0200968  52.5986528
  19.2575443  42.2693729  53.2689142  73.0431445   0.3105423   6.6532154
  73.1399877   0.9696337   5.9658642  72.2093518  -0.1175145   6.4588232
   5.7442851  23.3329746  13.0562229   5.9062000  22.7779791  12.2933359
   5.1073857  23.9792511  12.7514000  71.3968952  23.7248584  26.0642500
  70.8577426  23.8857671  25.2898760  70.9807975  24.2382881  26.7566938
  72.8141801  41.8825626  45.2904987  72.7408924  42.6999712  45.7831430
  73.6052603  41.9911480  44.7626400  21.3989270  65.6728925  16.0046024
  21.3912750  66.5543665  16.3776607  22.0940114  65.6971706  15.3469534
  53.3754758   7.7835151   1.1452789  52.8390659   8.4381458   0.6981201
  53.7351473   8.2453415   1.9026298   6.9677607  38.3003650  29.8285360
   6.8883101  37.3809497  30.0826902   7.9042045  38.4871621  29.8949690
  69.1814346   3.4032437  24.8413629  68.7233193   3.1711933  25.6491442
  69.9091680   3.9546820  25.1286669  41.8321122  60.9927770   6.0778208
  40.9074475  60.8195230   6.2544842  41.8678273  61.9298956   5.8860512
  40.0972462   6.6275418  58.5545969  39.4147801   5.9575462  58.5149193
  39.6241951   7.4561304  58.4778309  45.7973329  61.4789451  18.3304186
  44.8738984  61.6316832  18.5308428  45.8522431  60.5394687  18.1554813
  65.7157999  33.6174369  40.6128168  65.9095311  32.8304577  40.1035404
  65.4374146  33.2873917  41.4671040   8.1286389  13.1771338  55.6020975
   7.3496825  13.1135297  56.1547375   8.1367159  12.3594582  55.1045275
  49.2636027  10.5159399  15.0551052  49.4660096  10.0329563  15.8563490
  48.3076940  10.5628702  15.0387401  42.7423326  64.2586340  29.4385214
  43.1263439  63.4188975  29.1863127  41.7974285  64.1089190  29.4073076
  58.8310380   3.9091918   0.2283878  59.0515025   2.9974267   0.4189558
  58.0003895   3.8608858  -0.2448158  16.0262167  15.9839582  34.8935533
  16.7049527  16.3719440  34.3412709  16.2030292  15.0436521  34.8653865
  60.3780241   3.6717841   7.4034853  60.3853531   2.9011056   6.8358297
  61.1081941   4.2061898   7.0912475   9.4529235  37.7701330  48.7961674
   9.7330189  37.7840185  47.8809738   9.4477302  38.6905122  49.0590477
  23.1477900   7.1257326   1.3590832  24.0199967   7.3605987   1.0423441
  23.2638951   6.2671158   1.7659397  63.8212347  29.6050739  51.9574118
  64.5395767  29.5580578  51.3265324  63.5812711  30.5314660  51.9785404
   2.9650942  68.3767666  15.7695598   3.3028570  67.9339947  14.9910374
   3.7465612  68.6074771  16.2718696  65.8336527  11.9432947   2.4975033
  65.7440992  11.8357631   3.4444208  65.4183574  12.7854702   2.3117561
  21.3854694  21.4616871   9.2753738  22.2783232  21.6996241   9.0255195
  21.2395549  20.6110358   8.8614488  55.4489143   2.1783778   7.6328487
  56.3503749   1.8748352   7.7399082  55.3009040   2.7577302   8.3802910
  49.2679278  52.6163949  14.5504827  50.1797262  52.3888458  14.3686218
  48.8030306  51.7800094  14.5267601  41.6954938  54.6043195  18.6851950
  41.1728720  54.0253474  18.1303186  42.5972120  54.4624843  18.3970613
   2.8777930  59.7069645  59.0346670   2.5287473  59.1010523  58.3810091
   2.6047674  59.3369532  59.8741817   9.8399979  44.8511219  59.0820837
  10.6940186  44.5548391  59.3968868  10.0287199  45.2845716  58.2497787
  69.9946172  16.1914751  14.3418760  69.8916562  16.1577627  13.3908243
  70.0881274  17.1233102  14.5397825  52.8408539  27.0691109   9.2291254
  52.5373900  26.4923406   9.9301785  52.5918901  27.9474139   9.5169306
  69.6992820   1.6415775  47.1245766  70.3426620   1.0194550  46.7850828
  69.3582982   2.0822014  46.3462400   8.4258155  45.6352581  16.7529888
   9.1716007  45.3900529  17.3006267   8.7509815  45.5562962  15.8561821
  39.1779546  61.8510856   4.3566484  38.3885661  62.1591605   4.8018284
  39.8400286  62.5124110   4.5579929  74.2681117  34.3553329  30.5255437
  75.0841292  34.7717333  30.8029556  74.1914359  33.5823679  31.0848999
   6.4670558   1.4142510   2.3056907   6.2713881   2.3009750   2.0029325
   5.6099506   1.0281536   2.4860544  57.5582947   1.3016698  37.2852297
  56.6653456   1.5623709  37.5108595  58.0271877   1.3060972  38.1197138
   5.4527742  23.9308810  60.0122118   4.5322031  23.6729383  60.0596046
   5.8142871  23.6859822  60.8640146   1.8430078  44.2848063  60.5878067
   1.1380527  44.3254232  59.9415684   2.2599290  45.1452112  60.5418444
  68.1594796  12.8793689   8.3552904  68.3656259  13.8009521   8.1990213
  69.0012510  12.4793026   8.5734577   6.4336296  21.2518284  23.8033552
   6.1553617  20.9634849  24.6726389   7.1111484  21.9062206  23.9735670
   0.6300965  40.8090973  34.4776559  -0.2723630  40.5421352  34.3029213
   1.1412181  40.3952551  33.7821555  11.9242115  26.5888759   5.9561558
  11.4744587  26.2160513   6.7144127  12.7841301  26.8448373   6.2897034
  51.0206258  47.4589252  59.9770451  50.5892741  46.8718195  59.3561792
  51.8500578  47.6850891  59.5561838  64.7671330   4.1229576  36.7005587
  63.8126802   4.0709656  36.6500783  65.0615191   3.2167214  36.6094303
  16.9140215  11.8440792  10.3094549  16.5219660  11.0880062  10.7463522
  16.7075224  11.7191335   9.3831796  60.9512944   7.2614214  32.2350473
  60.8660956   7.9721710  31.5995951  60.0570138   6.9441387  32.3608560
  32.3189421  49.9112245  11.0110349  31.6782661  49.2020151  11.0638017
  31.8937702  50.5784914  10.4723139  67.7857226  42.6847219  43.4517145
  68.4410852  42.0547485  43.7514925  67.9089141  43.4463835  44.0182161
  26.6313457   9.5509434  57.3949528  26.2720680  10.1979327  58.0020428
  26.5260601   9.9489677  56.5308237   8.0344005   6.3537189   2.7431412
   7.1117778   6.5663215   2.8838558   8.4984107   6.8361398   3.4273929
  41.8479170   0.1729104   9.2531366  41.1043896   0.7185933   9.5093126
  41.5852184  -0.2128270   8.4174127  24.9257299  56.0408081  27.1678133
  24.4199536  56.6015638  26.5796156  25.3342334  56.6478027  27.7849932
   8.5100716  62.2561836  50.6416941   9.4339871  62.2691727  50.8915806
   8.0865633  62.8525877  51.2590837  69.6820587  40.8753777  23.3009768
  70.1031473  40.5541039  22.5036693  70.4040616  41.0142040  23.9138961
  53.1525517  33.1651592  60.2225971  53.2646227  32.7805901  61.0919523
  52.4171972  32.6853681  59.8414373  51.8591988  13.4009659  22.6213360
  52.4442374  13.2772768  23.3687735  51.5508759  12.5197434  22.4101114
  11.9031791  67.4864568  29.0395040  10.9615115  67.3277558  28.9738531
  12.1640483  67.7483930  28.1565733  45.1493704  18.2084215  52.3293781
  45.4447853  18.5094762  51.4701176  45.2335083  17.2556865  52.2913074
  16.9918907  60.4707384  59.9057531  16.0751975  60.3138256  59.6792889
  17.4773693  60.2377367  59.1143894  12.3212838  39.2060351  54.1724825
  12.3882115  39.5802116  53.2939911  11.3912952  39.2700410  54.3898678
  56.1648762  23.7930918  53.3123684  56.7287779  23.1116509  53.6782742
  56.0588896  24.4240928  54.0242958  59.9499380  17.4582851  37.7720594
  59.2492807  17.8298831  38.3079934  59.6019089  17.4710107  36.8804622
   4.7794992  40.6114626  57.6167631   4.9317876  41.2819672  56.9508314
   3.9423227  40.2169514  57.3723650  46.9376603  53.4698774   8.8409681
  47.6333634  54.0920497   8.6285276  47.2765414  52.9778065   9.5888014
  41.0045377  38.3780257   9.2425413  41.4142839  38.1165601   8.4179373
  41.6891280  38.8580431   9.7085352   6.0504735   7.8854299  59.7210693
   6.9717693   8.0980062  59.5718813   6.0624206   7.2690517  60.4533005
  11.9599915  48.5416746  47.2502375  11.3867283  49.1762400  47.6802683
  12.7770782  49.0181255  47.1032858  16.6491902  13.3498633  34.9470162
  17.5255549  13.5561311  35.2720857  16.5138769  12.4334419  35.1880431
  38.4015107   4.9777392  52.6913071  37.5629258   4.9549288  52.2303438
  38.4074020   5.8253509  53.1360006  43.0063692  55.5871405  23.4953565
  42.6751379  55.4917683  22.6023741  43.8777164  55.1916660  23.4711237
  40.3292922  46.4518298   2.8401918  40.9803239  45.8563091   3.2113285
  40.4468266  47.2681154   3.3260889  11.0995448  45.1392794  29.1767311
  11.1764920  45.7073736  29.9432683  10.4457247  44.4865227  29.4270492
  29.9045038  57.0454216  31.1706710  29.3207526  57.4849129  30.5523562
  29.6376681  57.3760748  32.0283985  64.5154352  14.1338464  11.3897486
  64.5707805  15.0690672  11.1934728  65.4028196  13.8057014  11.2444801
   5.8353955  37.6879621  24.6780324   5.2651089  38.3264446  24.2498446
   5.8778858  37.9779458  25.5892611  29.9097136  12.2870625  17.5599928
  29.4170976  11.6349377  17.0617027  30.1582930  11.8348397  18.3661766
  33.1777678  66.9930567  11.2913818  32.8344253  66.9586386  10.3985424
  32.6658855  67.6799001  11.7185278  54.2620841  49.1709460  14.8758526
  53.6075345  48.6584879  14.4013138  54.9448410  48.5386433  15.1000519
   4.3645656  52.4425507  41.0785437   3.5656548  52.0031357  40.7871914
   4.6987054  52.8770828  40.2938414   7.4524494   1.8441745   8.6627168
   7.3293825   2.7921673   8.7116308   6.8211503   1.5543625   8.0041570
  37.6046085  62.1527624  39.9143767  37.7498126  61.5903759  40.6752157
  38.4292006  62.6265907  39.8059154  69.4033427  53.1941721  18.7877436
  69.9235304  53.9736864  18.5927982  69.7187765  52.9035780  19.6434851
   1.6922309  35.5911493  31.7862582   2.2264971  36.3793254  31.8840814
   1.2964809  35.4615641  32.6481295  38.7874249   7.3546012  54.3572521
  38.5862294   7.7383502  55.2107668  39.6662370   6.9894059  54.4599962
  33.9277998  11.7504247  55.9693003  33.1003616  11.6369660  55.5016422
  33.7666301  12.4799187  56.5677071  56.6534115  28.4394952  11.4197178
  56.1876513  27.6594755  11.1182661  57.5592430  28.2990524  11.1440773
  12.3790610  56.9199324  46.2425470  11.5209079  56.5638971  46.0122347
  12.8081858  57.0739841  45.4009151  11.7394109  14.9735328  10.9211130
  11.0563655  15.5303165  10.5473919  12.4058814  14.9196312  10.2361746
  10.5990684  52.7597237  53.7071753  10.7584190  53.6879158  53.8783598
  10.2180815  52.7400446  52.8292799  29.2780280  13.4257102  53.8078785
  30.1367950  13.6877310  54.1396856  28.7872338  13.1702042  54.5889521
  40.5983654  70.8797492  17.1765442  39.8467735  70.3514685  16.9077320
  41.3292233  70.2620639  17.1998520  61.8032944  44.8792696  54.5583630
  62.0512676  45.8004475  54.6369410  60.9357726  44.8296738  54.9598312
  49.1540241  29.0322089  59.7675657  49.1065216  29.9031806  60.1617527
  49.8694468  28.5978103  60.2319956  15.3627226  19.2461999  51.4945555
  14.9736033  19.4679101  50.6485844  14.7595326  18.6082013  51.8758059
  13.2707858  48.2548761  54.0782261  12.8344238  48.5326529  53.2728338
  13.8392687  48.9897966  54.3083477  21.1768532  48.6280823  56.6173172
  21.6447186  48.8106823  57.4321699  20.2549076  48.5954571  56.8726301
  26.3121910  23.7529060  15.2463217  26.6322966  22.8876516  14.9911756
  27.1020337  24.2422172  15.4764480  56.6789436  64.1605949  60.0144625
  57.3294973  64.8287535  59.7986364  57.1950626  63.4095669  60.3073835
  39.4661502   9.3315919  33.0373216  39.8118273   9.5609410  33.8999557
  39.9367479   8.5340579  32.7950168   7.8300005  42.7577257  58.8584089
   8.7081176  43.0847120  59.0539122   7.4294496  42.6191330  59.7166538
   1.6020254   2.5352605  53.7638664   1.8779663   2.8967555  52.9216051
   0.7484440   2.9359658  53.9283943  45.3949920  70.1870526   9.0883846
  45.8741061  69.7984637   8.3564825  44.8752824  69.4662298   9.4441194
  65.7945283  22.1289035  28.9553423  65.6839306  22.6536104  29.7482366
  66.6902049  21.7959663  29.0114565  65.0002952  20.3887102  25.5487127
  65.1042361  21.3153907  25.3326292  64.4420583  20.0416776  24.8528833
  68.1106300  15.6418296   8.2577343  68.3709152  16.0065004   7.4118633
  67.2454388  16.0160848   8.4238882   3.1422651  47.8407383  58.4511471
   2.5117004  47.3755074  57.9014349   3.9010752  47.9757595  57.8835154
  20.5133934  11.0322878  34.0680952  19.5754500  11.0900327  33.8859911
  20.5710907  11.0116645  35.0233335   6.2548061  21.0874817  18.0881758
   6.1876722  20.8433410  19.0112753   7.0379253  20.6336519  17.7767391
  38.9168234  10.4514620  18.2806749  39.6640582  10.6002924  18.8600893
  39.3083174  10.2793762  17.4243135  63.3180821  61.8951845  49.3115711
  62.6206565  62.2376251  48.7524986  62.8867697  61.2369967  49.8565435
  55.4574735  25.6261036   7.1151895  55.0602235  26.1907455   6.4521665
  55.7341195  26.2270328   7.8069849   7.7237493  51.9967794  49.9068451
   6.9905025  51.9970846  50.5221319   7.5994104  51.2030792  49.3864489
   6.4077564   4.0813276   1.5461607   7.1423169   3.8731333   0.9688301
   6.2935276   5.0274679   1.4567346   3.2523701  38.9914083  35.6510973
   3.1680724  39.8458815  35.2280140   4.1939020  38.8190389  35.6572604
  37.3910952  59.0605783  57.3301792  37.1024632  59.9125957  57.6572752
  36.7867398  58.4339857  57.7281284  55.3035225  57.9119512   2.7668066
  55.0677706  58.8380834   2.8210182  54.7702081  57.5706693   2.0489378
  62.0504339  34.4835302  13.2309789  61.6322334  34.8191044  12.4380512
  62.8303607  34.0269682  12.9155464  30.4974127  17.5400746  55.9143162
  31.4246726  17.7500439  56.0253811  30.4921579  16.7772233  55.3361607
  21.0964795  19.4410822  25.3518362  20.5353661  18.8986656  25.9060736
  21.2015839  20.2562687  25.8424063  43.7324778   3.1817467  46.5715122
  43.0450336   3.4224255  47.1925783  43.4777454   3.6102374  45.7543612
  12.4187493  51.4302778  57.5351286  11.6029930  50.9750175  57.3265362
  12.4290264  52.1851015  56.9465971  31.5812822  13.9671156  -0.1290541
  31.6658170  14.8370382  -0.5193310  31.7464490  14.1059086   0.8035202
  22.3033166  40.0503349  56.3468504  21.5449023  40.3601885  56.8418503
  22.9626226  40.7339764  56.4659071  72.1365815  42.2517252  58.3704853
  71.5230077  42.8339481  57.9224062  72.3533213  41.5848923  57.7188826
  49.7044936  59.2470659   3.8534183  50.2870647  59.8601450   3.4051151
  49.2112557  59.7909035   4.4675751  51.1595289  68.5446061  24.7273416
  50.9248058  68.6054386  25.6533212  50.3959028  68.1432904  24.3125505
  63.6604583  50.6651163  23.8802171  64.1018820  50.0752306  23.2691431
  63.2855248  50.0859070  24.5436740  50.0860729  28.0986044  11.5072079
  49.9493864  29.0414831  11.4148254  50.6535575  28.0127784  12.2732563
  50.7088614  55.1602602  55.9809017  51.1984968  55.7113791  56.5914392
  49.7933245  55.4013014  56.1220503  48.0449740  58.7384428   1.6180677
  48.3431951  58.9370598   2.5056715  47.2170750  58.2742227   1.7418117
  36.9123192  18.3613369  12.9997845  36.5463944  17.9844209  13.7999506
  36.6871710  17.7325317  12.3141117  25.9238887  15.1054573  45.0313711
  25.9827137  14.9981308  45.9807110  26.5143514  14.4400549  44.6780634
  69.1861216  69.5573725  21.8231458  69.6992413  70.1857842  22.3311205
  69.0084807  68.8430084  22.4349947  11.4705789  40.8666420  57.5427914
  11.1352456  41.2593222  58.3487606  12.3755336  40.6325436  57.7489138
  63.9030087  20.8036852  50.0946331  64.3095851  21.6108179  50.4100084
  64.4809997  20.5023909  49.3936443   1.5406549  40.5859089  46.0516214
   0.9963787  41.2348318  45.6056452   2.1090687  40.2373695  45.3648472
  17.0235796  29.7239467   1.4272089  16.4358349  29.3878338   2.1038313
  17.7192898  29.0692350   1.3674755  14.1114640   9.3907422  42.3122501
  14.8419929   9.7167337  41.7866182  14.5192683   9.0717387  43.1173372
  61.1180110   9.4125482   7.4838753  60.9842487   8.9560672   8.3145161
  61.2940998   8.7147543   6.8527574  20.7402916  31.8541500  21.8248815
  21.0256071  30.9528610  21.6748686  20.2731009  32.0938322  21.0245581
   6.9938012  25.3380129  29.2481680   6.6377612  25.8236953  28.5041399
   7.2802182  24.5043537  28.8750524  20.7351446  69.5341063  45.6372261
  20.4873610  68.7794447  45.1030731  21.1420202  69.1534138  46.4155340
  58.7651272   9.7831747  14.1692133  58.1647594  10.5233499  14.0801353
  59.3918504  10.0621196  14.8367758  21.0999823  62.8813839  20.6916976
  21.8228531  62.3839235  21.0740829  21.5263462  63.5765362  20.1904869
  38.0391765  37.6089215  56.0364246  38.5812593  38.3977437  56.0247231
  37.1739125  37.9168963  56.3060570  66.7986504  64.7187675   0.2083702
  65.8798424  64.8556889   0.4391880  66.9266859  63.7733210   0.2856464
  64.7777183  22.6389095  51.6094656  64.0650542  23.1685707  51.9669599
  64.8328192  21.8843958  52.1958990  53.7687289  67.6225662  58.4052801
  53.8305390  66.9724321  59.1050911  53.9670145  67.1340752  57.6063490
  64.2173111  41.8036413  45.8429098  64.6696436  42.3511076  46.4847136
  64.4317198  40.9067774  46.0996199  30.6924508  64.6161951  11.9254417
  29.9532512  64.0080799  11.9219227  30.5098424  65.2109588  12.6528616
  56.1189262  47.2462822  15.1943893  56.9371930  47.3353149  14.7057743
  56.3929406  47.1677460  16.1081619  17.5645051   1.7442210  55.4803371
  16.9037405   1.0756619  55.2996397  18.3439139   1.2488063  55.7319689
   5.3262611  21.8140384  21.4474077   5.8498140  21.6401836  22.2296495
   5.1912017  20.9523031  21.0531969   7.6560158  55.5987072  46.7757988
   6.7617214  55.8996725  46.9367027   7.5515223  54.8146296  46.2367821
   5.1333928  25.0341201  41.8491173   5.0831008  25.6187606  42.6053572
   4.2250091  24.9304295  41.5657091  72.9536630  41.4229441  55.8264780
  73.4874958  40.6984377  55.5003786  72.1139943  41.3225412  55.3780270
  49.2196055   5.6859132   8.5792417  48.7834458   5.3363010   7.8022165
  48.9959580   6.6166183   8.5810728  52.9929534  64.8823418   1.7905445
  53.5155956  64.7217549   2.5762195  52.3199860  64.2018522   1.8073196
  11.3966707  14.2877133  54.1583586  12.2975258  13.9739545  54.0792799
  11.4355663  14.9581940  54.8403883  69.3433638  19.2191478  11.0203333
  68.7026401  19.2781088  10.3116484  68.8649924  19.5015880  11.7998333
  51.6932519  29.7525713  57.4148722  52.4570401  30.3221962  57.5064630
  51.1405729  29.9704858  58.1654043  51.3490649  29.2306539   5.1235981
  51.1667939  29.6752855   4.2957659  50.8887120  28.3944198   5.0527592
  29.4055100   5.8283731  11.3305349  28.9051981   6.6409370  11.2553091
  29.4642325   5.6696006  12.2726459  10.1707764   7.6953718   4.0413828
  10.0594993   8.2039138   3.2381172  10.4229303   8.3415815   4.7009725
  45.5344192   2.8694804  49.8310423  44.6732537   2.4899752  50.0059700
  45.3626934   3.8016017  49.6972704  52.9064846  55.7336664  54.1056347
  52.1783781  55.1424360  54.2967844  53.5588074  55.1795387  53.6770964
  47.2238938  17.6468118  37.5041556  47.8989545  17.2987302  36.9216061
  46.5899555  16.9346173  37.5886369  67.0859957  68.6247540  56.9912624
  66.2128830  68.5692024  57.3796129  66.9250727  68.7147236  56.0519838
  65.6618980  49.0642668  19.1570635  65.9019021  49.2992963  18.2607431
  66.1267856  48.2440068  19.3222399  68.9263828  11.9129249  11.8220682
  69.4882746  12.6420709  12.0844621  68.7981887  11.4082500  12.6252479
  47.0744951  35.2531692   8.5086174  46.5436767  34.5942995   8.9562292
  47.7754687  34.7526905   8.0910225  53.0788565  60.2075863  57.9100561
  52.9533482  59.4536495  57.3338127  52.3690176  60.1416397  58.5488081
  11.3198753   2.6041791   0.9967108  11.1791559   2.6326915   0.0503416
  10.6280871   3.1580397   1.3585157  24.6841931  35.8438778  60.7791090
  23.8162446  35.4404211  60.7682276  25.2851295  35.1245785  60.5849075
  64.0478439  37.7585861  12.7463217  64.4548841  37.0884916  13.2954330
  63.2595499  38.0143615  13.2252807  46.1156980   9.0506442  48.8572598
  46.4168230   9.8432000  48.4129477  46.5346495   9.0843089  49.7172451
  60.2122728  66.0821880   7.0410843  60.4455916  66.5127386   6.2186355
  60.9524242  65.5045260   7.2274036  18.6586682   3.0069669  42.9646397
  17.7069405   3.0100329  43.0668020  18.9653013   2.3567231  43.5966158
  15.7924147  14.5682880   7.3369093  16.5830536  15.1000425   7.2454805
  16.1056490  13.6646482   7.2975607  73.2021649  14.7166654  30.7260389
  73.9423163  14.4206878  31.2559576  73.1358822  15.6537983  30.9094114
  67.4891169  11.5528270  31.8231363  67.2291262  12.3756477  32.2373838
  66.8677337  11.4399835  31.1038370  19.2746993  36.1916277   6.2646122
  20.0870915  36.0391828   6.7473287  19.5615025  36.4768240   5.3970642
  18.5169291  47.1223545  54.6656942  18.9016247  47.9941654  54.5751953
  17.5994873  47.2868347  54.8835897   0.7408274  27.8453827  58.6460733
   0.3938693  27.1741509  58.0584526   1.6758829  27.8801990  58.4443521
  14.6050823  59.2318678  56.3575029  14.4779098  58.3088064  56.5766430
  14.6996915  59.6682119  57.2041941  49.2664710   9.9733479  58.6926556
  49.2501918   9.9334081  57.7364254  49.4333497  10.8947690  58.8910770
  65.6858750  25.7008764  33.1427641  65.5840416  25.2619287  33.9872713
  64.9299641  26.2851354  33.0838270  14.5551050  50.4151821  54.9759674
  15.2829087  50.8930254  54.5782232  14.1772962  51.0323715  55.6025219
  22.6030941  18.5229465  21.1457987  22.2976609  19.4175121  20.9951467
  23.1804200  18.5918399  21.9061727  65.8934469   8.2382700   5.7161732
  65.2270944   8.9083835   5.5640144  65.8594604   8.0764314   6.6589804
   6.7970455  49.4676399  49.6856642   6.5124297  49.3108082  48.7853146
   6.8508673  48.5949850  50.0752926  44.5475653  66.5020765  26.2009878
  44.3072120  65.6146635  26.4673776  44.6542374  66.9786562  27.0242281
   3.1293559  58.7691593  47.3061085   3.6831808  58.1382847  46.8462086
   3.7434801  59.3085241  47.8042746  40.0890923  57.4685907  47.9677296
  39.7472429  56.5746975  47.9857540  39.6585560  57.9045439  48.7031317
   6.6205609  33.4864974  41.8849468   6.1426318  33.2724261  41.0837030
   5.9385347  33.6074090  42.5455952  25.6878376  58.0019617  17.0640051
  25.9735918  58.2392263  17.9462063  24.8620367  58.4712362  16.9454062
  14.3149920  13.8046858   3.4787769  13.6889930  13.5428163   2.8036613
  15.0555821  13.2095024   3.3625192  65.0945444   3.0293771  28.8704080
  65.7741232   2.5691220  28.3778925  65.4884954   3.8734886  29.0906591
  30.6431651  56.9411230  52.4757195  31.5277791  56.6902208  52.2097540
  30.1295829  56.8992090  51.6690540  71.7735608   0.4998013  17.7630205
  72.4536355   0.0671741  18.2793159  72.2555382   1.0251209  17.1242924
  22.5268531  57.2049952  43.0454922  22.5339437  58.0640268  42.6233006
  23.3971310  56.8459272  42.8725338  68.1750313  67.2346200  23.2038565
  67.5656334  67.2744597  22.4667806  68.2187048  66.3051905  23.4285517
  26.7246218  13.0316517  10.6322689  27.2483130  13.2653782  11.3986511
  27.3539467  13.0038330   9.9115677  74.3939339  44.7848606  52.0649767
  74.5174793  45.5738020  52.5927448  73.4451100  44.7118235  51.9618750
  60.5911739   1.1921760  15.7432813  59.8670323   1.5598342  16.2499208
  61.2526221   0.9689495  16.3981790  65.0617595  13.2163593  20.3425855
  64.3239923  13.2779905  20.9493322  65.1224084  14.0872404  19.9500151
  13.5054624  39.9796200  45.6266880  14.4417274  40.1689100  45.6884098
  13.1821990  40.5849695  44.9593925  63.6722512   5.9871551  17.7680797
  63.2258506   5.1917955  18.0585260  64.0758188   5.7445690  16.9347019
  48.6094796  60.9461069  18.8990963  49.0571105  61.7456150  18.6222517
  47.6801192  61.1345005  18.7686062  11.1422312  43.4246206  56.3097095
  11.4602649  42.5259209  56.2235069  11.5860045  43.7621355  57.0877695
   9.7045131  13.4728643   4.8007746   8.9788909  12.9616901   4.4424362
   9.5237608  13.5198328   5.7395763   8.2257307  57.4594498  43.7525845
   8.6465126  58.1752586  44.2288160   8.8056046  57.2926617  43.0095100
  51.1577700   7.8742000  14.0143318  50.9430983   8.7807628  14.2340822
  51.4369441   7.9091856  13.0994196  62.0992009  24.6357091  30.4861236
  61.7672459  25.5322106  30.5342889  62.0541517  24.3149121  31.3868403
  32.7492309  56.0939646  37.6795602  32.5941348  56.4093065  36.7892027
  31.9324398  56.2766123  38.1440210  34.0605185  61.0432972  24.1950674
  33.3912197  61.2918199  23.5574884  34.2243156  60.1163472  24.0213842
   3.9661860  43.5228968  39.2835259   3.0422050  43.7324476  39.4198298
   3.9736071  42.5846004  39.0943718  67.3744567  32.3428318   0.6335277
  66.7695518  31.8541357   1.1916466  67.9321833  32.8217384   1.2465687
  10.7478495  15.9228679   4.0865393  10.2590723  15.1005289   4.1194315
  11.3754411  15.8574268   4.8063106   5.0414443  68.2641554  60.7045460
   5.9787905  68.1379652  60.5572701   4.9091408  68.0269718  61.6224051
  10.4328549  41.3959217  42.5563288   9.8314959  41.0187578  43.1984711
   9.8627400  41.8128204  41.9102621   4.9910326  13.6985466   6.3496942
   5.6998392  13.1127760   6.6155882   4.2483182  13.4386036   6.8947048
  26.8684673  39.1894341  58.2905674  27.0168018  39.9189210  58.8922930
  27.6839328  38.6888075  58.3154583  53.2957642  28.5674450  22.3256941
  52.6169838  27.9606601  22.0302267  52.8982211  29.4335720  22.2361727
  20.3145667  12.8199407   3.1206531  20.7079668  12.5247261   2.2994871
  21.0599585  13.0656311   3.6686153  22.5053692  68.5095549  56.4063549
  23.0482554  69.0320873  55.8160448  22.7127194  68.8419962  57.2796917
  11.2723827  46.6055489  45.5527592  10.4517126  47.0190287  45.2848673
  11.6564023  47.2190952  46.1791134  43.4025742   1.9946500  32.8278799
  43.1605489   2.9179212  32.9001589  43.9264722   1.9462725  32.0282430
  42.3926069  37.3318502  14.8985739  41.5846999  36.8302032  14.7896404
  42.2118695  38.1716415  14.4763012  59.1109311  46.4821005  57.4609995
  59.7551751  47.1585083  57.6699352  58.8298464  46.1477900  58.3127403
   4.2814642  43.6593533  58.6984587   4.7593832  44.3942308  59.0828848
   4.8618487  42.9075718  58.8176680  31.9926091  25.9013912  17.3465557
  31.0659666  25.9247467  17.5853414  32.2814818  26.8111250  17.4184675
  52.7734358   1.9693300   5.1827020  52.6492406   2.0997545   6.1228056
  52.3965235   2.7518794   4.7804756  66.0566385  22.7635166  16.5689010
  66.4481468  23.2975694  17.2600908  66.2036581  21.8608448  16.8513937
  40.1507417   3.5715039  48.5038280  40.4459719   4.0447982  49.2816877
  39.2684308   3.9050467  48.3410215  30.5278845   8.4894010  35.7554407
  30.7274743   7.6723644  35.2984495  31.1743660   9.1129753  35.4246111
  71.1116059  46.7609712   6.3165207  71.6907795  46.3196680   5.6951971
  71.7021186  47.1339246   6.9710655  64.0064294  13.2407781   8.5335321
  63.2156689  13.0402872   9.0342684  64.7195382  12.8699943   9.0533705
  74.4868878  41.1417818  38.2888722  73.8018457  41.1021519  37.6215053
  74.0645332  41.5560770  39.0413404  36.4146399  40.3111839  58.3420992
  37.0414281  40.4103899  57.6254892  35.7446885  40.9721899  58.1675529
  27.5214831  69.6884288  15.9929533  27.7992160  68.7736620  15.9450455
  28.0415926  70.1320518  15.3229446  11.0043514  33.6519647  40.3904915
  11.8079281  33.1465197  40.5130625  10.4232144  33.3510256  41.0890245
  30.3404996  58.1229557   1.4400263  30.6742582  57.2969879   1.0898609
  30.9685460  58.3659090   2.1202917  11.4545679  48.3088303  42.9689312
  10.7216311  48.8035679  43.3353615  12.0995188  48.2775497  43.6755371
  69.7474630   8.4534523  28.5134001  70.4888852   8.0789062  28.9890451
  68.9882405   8.2617828  29.0639276  72.2462351   6.1574480   1.9013710
  71.8661006   5.6124899   1.2123508  72.0805175   5.6719705   2.7095051
   9.7898626   3.1908995  38.3636761   9.9976981   4.0391469  37.9718685
  10.5628288   2.9715249  38.8838959  51.0437456  69.1374077   2.3698826
  51.0061399  69.3010677   1.4275284  51.0965053  70.0088300   2.7624006
   3.7668395  55.2436876  14.9926424   3.2703346  54.5190096  14.6124387
   4.5902279  55.2519703  14.5045900  32.6742220  50.9854078  22.3478389
  32.8609324  51.7714500  22.8611684  32.6720905  50.2751732  22.9895568
  58.9701690  19.1428920  13.6451502  58.5985388  19.6794626  12.9450006
  58.3547278  18.4162494  13.7423916   3.5890408   4.2980024  23.2775183
   4.4195147   4.6809789  23.5601396   3.8408728   3.5172984  22.7842493
   7.9655403  55.6412315  55.1512909   8.1756508  56.3733673  54.5715809
   7.3316664  56.0012102  55.7716560  74.5809252  44.8568174  17.8084154
  74.0206940  44.9462530  17.0374555  75.3026254  44.2997667  17.5167246
  62.6627834   5.6024763   7.3839636  62.2211881   6.4251539   7.1731729
  63.5478063   5.7095501   7.0353956  69.8581321  27.3870632   4.2136783
  70.7309301  27.5697920   4.5616216  69.4006653  28.2265112   4.2614574
  18.8318606  24.5385524  15.3438492  19.6000119  24.9945232  15.6877584
  19.1114064  23.6267730  15.2617140  26.8726513   1.1356528  32.0719814
  26.4068360   0.4387458  31.6098475  27.6059300   0.6918986  32.4981451
  33.6969924  59.9941921  49.5306015  33.0874181  60.5734396  49.9879026
  33.8041425  60.3929281  48.6670303  36.2700613   1.2292358   1.9705601
  36.9941981   0.6949994   2.2968216  35.5189843   0.6358859   1.9633026
   5.7054205  25.0746795   5.6805534   4.9007245  25.3731796   6.1043377
   6.3856097  25.2011415   6.3420505  20.2945209  50.9347534  51.5892410
  20.1021481  51.8626976  51.4545393  20.1612186  50.7961750  52.5269318
  26.1813612  51.0370657   2.0111055  25.9315653  51.8309709   2.4839086
  25.9231444  51.2066003   1.1051149  54.2706893  27.0114919   0.5479402
  53.7996964  26.2031099   0.3456611  53.9345427  27.6486608  -0.0823383
  28.7058151  21.8672021  50.4345369  28.9095227  22.3189194  49.6155834
  27.7505452  21.8914540  50.4902411  26.3737750  67.7327108  58.7067556
  26.2281609  67.1976471  57.9265404  26.0433173  67.1982384  59.4288111
  18.9005490  36.6073915  22.4414892  18.8660164  37.0480653  23.2905168
  19.8343201  36.4739391  22.2787161  17.6516123  30.1034090   6.6370268
  17.2089405  29.5824358   5.9670563  17.5608607  31.0075399   6.3361234
  70.1350219   1.6781780  28.4539575  69.9477370   1.1257455  27.6950235
  71.0700996   1.8708321  28.3850546  27.1003842  66.3897038  43.1692600
  27.0830655  65.8206415  42.3997784  27.9183269  66.1667633  43.6136675
  44.6207670   2.8579696  54.6219826  44.4248525   2.0720036  55.1319981
  44.4301478   3.5832150  55.2168941  15.9034304  30.1051648  58.3289957
  15.5248932  29.3331940  57.9082775  16.7538456  30.2167352  57.9040575
  27.4144726  68.2287182   7.7265997  26.6292836  68.6828793   8.0322904
  27.7050460  68.7363018   6.9688673  41.7402057  38.2462247  54.3536186
  42.5400249  38.7351735  54.1600943  41.2599019  38.8048871  54.9647141
  51.8269388   7.2716172  54.4456863  51.2256018   7.1300204  55.1768303
  52.1701089   6.4007123  54.2457008  73.7776057   4.4634469  34.9991465
  74.4663349   4.4121964  35.6619072  73.0569569   4.9162896  35.4371309
  65.6773392   4.2914231  43.6982584  65.3910986   4.4907649  42.8068733
  65.9500567   3.3745845  43.6628437   2.4002214  66.7400572   4.8375292
   2.1459122  66.0727712   5.4749365   3.3570595  66.7142316   4.8325701
   0.5308004  23.9023134   4.0989227   0.2684732  24.7570869   4.4406433
   0.0300212  23.8041660   3.2890959   9.7854228  37.7436515  14.4669456
   9.1698833  38.0109617  13.7843866  10.5291505  37.3771879  13.9886112
  23.9295387  51.2112713  19.0726328  23.7987947  52.1424770  18.8937521
  24.8289680  51.0379744  18.7947333  40.5217460  10.4201443  53.9636755
  39.8154656  11.0660107  53.9476013  40.3311173   9.8757298  54.7275496
   7.8643961  20.0595161   2.7967377   7.3609300  20.3970596   3.5375614
   8.4934206  19.4548008   3.1902809  22.3424635  14.7081025  45.9868145
  23.0107135  14.0329011  45.8694696  22.7801543  15.3929551  46.4924192
  43.7199736  61.4144087  34.1652513  43.6126614  61.9544792  33.3822823
  42.8736687  61.4658070  34.6095037  38.6415501  45.1311132   7.7194090
  37.8820820  45.4728624   7.2475643  38.2798787  44.7800562   8.5331602
  28.6402607  62.4583673  58.9652824  29.1317391  61.7131329  59.3106842
  29.1779590  63.2204294  59.1806364  47.4716187  58.3527613  22.7721334
  47.6004601  59.2985582  22.7007222  47.7955627  58.0035448  21.9418693
  67.6133028  12.6469167  58.1713724  66.8350712  12.1064694  58.3074045
  68.0113236  12.7163918  59.0391159  64.1808883  60.1676024   8.5636921
  64.9796263  60.0721325   9.0824718  63.5648218  59.5492209   8.9565010
  24.4609904  66.7330074  36.7475057  23.6408067  67.1934319  36.9251013
  24.2629671  65.8136129  36.9256401   7.4178000  60.1614401  22.5181265
   8.0511756  59.7759458  21.9127626   7.7822442  61.0205480  22.7310724
  72.3906184  37.2112322  57.8964806  72.0189509  36.4215517  57.5034142
  72.8484727  37.6445818  57.1761942  58.0749384   1.9968684  16.6984892
  57.6428548   1.4030106  17.3123872  58.0364791   2.8525622  17.1257317
  23.7807083  59.8837566  44.0883207  23.2476544  59.3326044  44.6613073
  23.2721114  59.9515438  43.2802582  19.5188160  30.2900049   8.7558956
  18.7839718  30.2434227   8.1442852  20.0205727  29.4921896   8.5886497
  71.3643396  63.5808992  42.3878956  71.2024867  63.0921698  41.5809393
  72.2279772  63.2864380  42.6771212  22.2478457  36.4040348  14.4715566
  22.2798176  36.7227623  15.3735657  22.9954167  36.8212911  14.0434570
   0.1787515  52.0460817   7.0977421   0.4246755  52.7950212   7.6407404
  -0.4524927  52.4010488   6.4718313   7.3906417  43.3376857  17.8568001
   7.5295849  44.2313739  17.5433559   7.6929303  42.7821561  17.1383018
   9.4875212   0.4578325   2.9705067   9.8218079   1.0308501   2.2804851
   9.9763675   0.7142350   3.7525053  48.2833163  18.4608491  46.8033457
  48.5918680  17.7941926  46.1896753  48.9430491  19.1528256  46.7569208
  28.6693419  18.3647187  26.2306833  27.9335464  17.7707990  26.3793302
  28.2617298  19.2165120  26.0740519  63.0534442  34.5137760  34.2488260
  63.2997544  33.8889381  33.5668154  63.0404003  35.3611824  33.8038988
  13.9289764  59.6001471  17.6765699  13.1084923  59.3401564  18.0954284
  14.6057800  59.3738092  18.3144922  71.9086797   9.3667576  17.3263664
  71.0945256   9.0151188  17.6865597  71.8498452  10.3100702  17.4777956
  37.6296834   0.8272393  49.7500086  37.6372258   1.6811307  49.3175316
  36.7119316   0.5561049  49.7287798   8.6800664   3.5977702  31.4585466
   8.3719670   3.1941370  30.6471319   9.6308249   3.4896903  31.4338369
  17.2847672  37.8568432  18.4707422  16.3963433  37.5629827  18.6721916
  17.8469487  37.1418449  18.7690039  63.6818218  41.3491678  32.5864720
  63.2906628  40.8143997  31.8956399  63.7915134  42.2125101  32.1879196
  55.5298725   7.7331622  46.4922810  56.1028544   8.4938987  46.5882254
  55.4814807   7.5874074  45.5474806  62.1882661  54.8770258   8.7725515
  61.6830857  55.1378366   8.0024786  62.7170153  54.1375086   8.4729404
   2.8452543  19.5163758  24.7007513   3.7343649  19.7690614  24.9494696
   2.2894339  20.2041657  25.0671434  23.2371330  60.5574846  39.0210867
  22.3529577  60.9199190  38.9653230  23.6594748  61.0621977  39.7161603
  33.3880315  21.1122735  47.0275354  34.0279034  21.7324193  47.3771381
  33.7420551  20.8576615  46.1754370  53.0786697   9.1506036  41.6075611
  52.5361244   8.7599404  40.9225416  53.4455172   8.4023173  42.0784378
  22.7939124  19.4986279  42.8105927  22.2036896  19.2906792  43.5349035
  22.6514759  18.7960561  42.1762896  15.6691885  69.9208117  27.2070932
  15.8004200  70.4369593  26.4117289  16.4429057  69.3596411  27.2588277
  16.1372983  66.8611097  43.8417959  16.0385156  65.9580088  43.5403252
  15.5287194  66.9361782  44.5767975  70.3023693  56.9773245  46.9261503
  69.8159688  56.1550903  46.8663597  70.4805776  57.2168636  46.0167027
  68.9209620   0.2900393  38.0656028  69.0831486   0.5946811  37.1727896
  69.2731444  -0.5998532  38.0827212  65.0924404  35.6952974   9.9234028
  64.6665592  35.6570217  10.7797832  65.7526095  35.0028202   9.9530477
  11.7897820  49.4300842  51.6630936  12.0293212  48.8930273  50.9078264
  12.4212301  50.1494217  51.6554022  19.9352856  13.6793729   6.3518877
  19.2052098  13.0605623   6.3693304  20.5155678  13.3850261   7.0539255
  60.6826369  21.1756547  38.9897275  60.4820696  20.8024915  38.1313848
  59.8933402  21.6607793  39.2303491  28.7829085  43.7429115   0.8335609
  29.1503020  44.6078417   1.0156317  29.1042014  43.1912395   1.5467663
  23.9865084  32.1422025  27.9576654  24.1880341  32.8719780  27.3719568
  23.3816166  31.5939733  27.4578829   2.8737787   0.0300772  54.2398930
   2.7403025   0.9571393  54.0424824   2.9104380  -0.0084321  55.1956129
  32.3868084  60.5519390  58.1811571  32.3035550  60.0193548  57.3901749
  31.5738630  60.3957415  58.6617374  38.9800854  12.1862146   5.4392786
  38.4552164  11.6062566   4.8875589  39.7019406  12.4644586   4.8755998
  49.8393250  68.4449100  18.6415482  50.6431818  68.8332748  18.2962728
  49.4701910  69.1223669  19.2081392  67.1097737  68.7553310  33.7158942
  67.1124911  69.4199181  34.4047689  66.3735360  68.1847668  33.9364409
  13.1432124   8.7849542   3.5292311  14.0910526   8.7614223   3.6606760
  12.7819415   8.8913271   4.4092340  58.8994075  35.2796432  20.9951277
  58.3706595  35.5554744  20.2464170  58.2707091  34.8866531  21.6005392
  62.4346502  45.3459760  25.7522745  62.9351373  45.3557512  26.5681524
  61.7490156  46.0007879  25.8840246  18.1326695   7.8993198   0.7777757
  17.3795624   7.4095079   0.4474039  18.1971569   7.6469680   1.6988582
  61.0358997  13.0106899   4.6249790  61.7331476  12.6383373   5.1648207
  61.3249202  13.9050647   4.4438953  52.6805736  32.6977417   3.6793728
  52.8829421  32.6708051   4.6145506  51.8714976  32.1932909   3.5947723
   9.0713211  26.8644401   2.4352903   8.1742258  26.6424152   2.1859808
   9.0820618  27.8211424   2.4642343  71.1975773  50.1712343  31.5313310
  70.5220492  50.8070394  31.2954492  72.0023425  50.5252859  31.1528749
  10.0525463  54.8550606  42.5899410   9.5299828  54.0712643  42.7597046
  10.8873796  54.5200968  42.2627068  69.0318362   5.2185710  35.6169987
  68.7561432   4.3351443  35.8615041  68.5252825   5.4182799  34.8297524
  75.0202671  69.6937217   2.2103615  74.3539349  69.2150415   1.7173118
  74.5230786  70.3052200   2.7535982  22.0668602  59.0935040  57.7361965
  21.3285255  59.3320179  58.2967377  22.5691056  58.4658337  58.2558203
   9.4100423  61.9841024  15.5290527  10.0795598  61.3215276  15.3588600
   8.5837384  61.5015814  15.5040617   9.7994800  49.0611765  17.6247711
   9.7671624  49.8762914  17.1239967   8.9678188  48.6283704  17.4317713
  15.9638456  66.6119684   4.6993513  16.1727480  67.5219287   4.4882412
  16.6680340  66.1046900   4.2955894  48.2110035  51.9290754  10.6535835
  49.0374644  52.1562311  10.2274437  48.2016305  50.9719774  10.6632156
  22.2092199  59.5256042  41.7022228  21.3043046  59.8168468  41.8141985
  22.4424529  59.8036480  40.8164883  28.7463875   8.8615724  12.4009247
  29.0497036   9.3041298  11.6082258  29.5134373   8.8428995  12.9732199
   5.4015434  26.6245580  59.1267157   5.6107605  25.6906486  59.1433764
   5.6140507  26.9333601  60.0074625  25.4220295  58.7887716  32.3248887
  24.5381427  59.1251850  32.4725509  25.5234957  58.7916613  31.3730860
  39.6861859  56.9186803   3.5084791  39.1205569  56.5720960   2.8184242
  39.4162102  57.8321191   3.6032314  34.7177086  54.5059444   2.9779882
  35.2129213  55.1296510   2.4469681  35.1614860  53.6690356   2.8405924
  53.6702219   3.7206157  51.5336323  54.4829098   3.2329018  51.3998270
  53.1049458   3.4469397  50.8112812  18.3980107  57.3666048  44.2949104
  18.0612779  56.6367579  43.7751341  19.3080521  57.1317148  44.4762468
  25.7938071  17.1323558  15.9927816  26.2194224  16.7020342  16.7343349
  26.4924117  17.2454092  15.3482599  36.2980608   9.4680960  50.8041906
  36.2290648  10.0811227  50.0722980  37.2050384   9.5486195  51.0993814
  64.2399306  24.1646310   4.4126673  64.0219410  24.6153661   5.2284784
  65.1830979  24.0111562   4.4684620  31.6180281   8.0045874  53.6570978
  32.2823111   8.4414370  54.1901350  32.0863692   7.7291901  52.8690338
  16.8934321  68.4114075  52.6226997  16.3965988  68.2397604  51.8227482
  17.0650327  67.5438261  52.9888725  33.2985754  31.2552568  10.8022470
  33.3264275  31.5549060   9.8935861  34.1080971  30.7570907  10.9150905
  21.2078495  35.2866050  21.5241403  21.0487624  34.4822284  21.0302706
  22.1611329  35.3707287  21.5442629  34.4028310   9.4649155  14.6288884
  34.1549072  10.1337655  15.2671719  34.2261413   9.8678811  13.7788105
  54.7525357  35.9920522   9.9609918  54.7412000  35.1561376   9.4947786
  54.0726064  36.5134880   9.5343418  68.5576422  25.2084610  10.7641144
  69.1676505  24.7250959  10.2069063  68.0408270  24.5298645  11.1984415
   9.2879935  32.2146961  26.2649126   8.6967535  32.3443100  27.0064421
  10.1460190  32.0725986  26.6647024  59.6575212  39.0478253  54.6678829
  59.8806858  39.9759912  54.7381258  59.1618252  38.8596964  55.4648304
  68.8698355  11.0862382  41.6217279  68.3206478  10.3193314  41.4590359
  68.2999770  11.8326123  41.4361906   4.9314761  66.6925859  32.4065399
   4.9654055  65.9450054  31.8097091   4.4339389  66.3750601  33.1601095
  14.9026080  52.5264188   1.0472126  14.7130080  52.7389833   1.9610519
  14.0417118  52.4409029   0.6376095   1.9577221  64.2723097   6.6991062
   1.9806532  63.4774484   7.2319288   1.7723421  63.9613952   5.8129949
  36.7927790  58.1866360  53.7442923  37.5567150  58.6978865  54.0112352
  37.0299506  57.8309917  52.8878450  20.5033112  67.0981216  44.0260935
  21.1077690  66.3592291  44.0961123  20.2448654  67.1096468  43.1045151
  11.3562918  64.3501663  51.7471457  12.0541441  63.8099527  51.3764620
  11.2847757  64.0585184  52.6560211  25.1002283  45.9018728   4.4813032
  24.9173518  45.7770559   5.4125471  26.0503550  45.8106062   4.4094677
  61.6145372  41.0320377  60.6258440  62.0925522  41.7796469  60.2669430
  61.1893225  41.3746595  61.4119959  35.4667214  32.7499898  58.8822079
  34.7979728  32.4261601  58.2787657  35.7415489  31.9755872  59.3731308
  43.3871869   1.3668807  49.8543835  42.6460663   1.2109406  50.4397488
  43.0319921   1.2289794  48.9762878  70.0894220  19.4716760  47.0475454
  70.5668647  19.4499656  47.8768797  69.4580801  20.1833507  47.1531935
  59.5632537   9.2898008   5.1976843  60.2582545   9.5252535   5.8123131
  58.8099421   9.0894958   5.7532329  29.6912026  60.7890558  51.8902779
  30.5299187  60.3817940  52.1069002  29.3837595  61.1590099  52.7178335
  26.8690892  48.1866380  10.3144092  26.3785668  47.5303480  10.8092899
  26.3032694  48.9587042  10.3141756  50.6608057  64.1221857  48.4906101
  50.8807468  65.0155163  48.7548542  50.1799250  63.7633371  49.2364073
   3.9014478  46.9186136  39.6608610   3.9357753  47.8751394  39.6501798
   4.0926524  46.6619894  38.7587423  11.5565006   3.0932219  31.6622424
  11.4899639   3.8808615  31.1224031  11.6168610   3.4219964  32.5591779
  34.8657346  56.0377073  53.5710907  34.8167348  56.8615913  54.0559006
  34.5842171  55.3728724  54.1995621  26.4943667  39.9049684   0.0070543
  26.5779324  39.9596378   0.9590311  27.3767682  40.0778171  -0.3211575
  59.5509195  70.5395508  59.5203447  60.1138258  69.9059200  59.9651861
  60.0472546  70.7968235  58.7433672  34.2352839  50.4722425  25.7802172
  34.8908062  50.0292894  26.3190336  34.3783732  50.1287862  24.8982973
  66.0209890  19.4549867   0.0600357  66.8265338  19.4327709  -0.4565220
  66.2011452  18.8871023   0.8092232   8.5907979  44.4338104   5.7546635
   8.7891241  43.5447714   5.4605360   9.3976875  44.7330352   6.1737461
  18.5681555   5.5298455  59.2068529  18.2714150   4.6399577  59.0163946
  17.7891824   6.0729630  59.0866184  13.7794943  17.9727956  18.4560509
  14.5267744  18.5252592  18.2267351  13.7751146  17.9610225  19.4131727
  55.9516445  15.0780232  58.4080791  56.0522405  15.3868897  57.5076818
  55.0084821  14.9545319  58.5149622   9.3094436   4.3886931  49.5685959
  10.1951686   4.3645032  49.9307251   8.7444738   4.1421254  50.3008842
  44.9981467  70.2808870   4.8935909  44.3192760  70.0502361   4.2594213
  45.3742186  69.4412769   5.1578922  57.9148594  20.3221734  34.1155219
  56.9595114  20.3190644  34.0560937  58.1997649  19.7242196  33.4244919
   5.0929493  63.0479002  58.3203173   4.9556327  63.7307692  57.6637602
   4.2117721  62.7431107  58.5367966  63.8206144  24.5352623   1.0204763
  64.6197779  24.6005556   1.5432663  63.2275601  25.1788780   1.4081402
  17.8453799   5.0380346   2.3277922  17.6068421   5.0835678   1.4019127
  17.1302052   4.5497653   2.7356500   9.7612315  58.4330225  56.8221998
   9.8836929  57.7806330  57.5118542   8.8452399  58.3369207  56.5615129
  51.9106579  65.2703667  43.0590963  52.8033352  65.2711630  43.4045887
  51.8564367  64.4696283  42.5374556  72.1439568   8.3098729  45.5995607
  71.8147675   8.5850508  44.7439098  71.3562933   8.1250937  46.1111069
  12.0542562  55.4557037  48.7962627  12.0312476  55.8225060  47.9124308
  12.5874436  54.6650600  48.7136459  13.2942291  33.3428022  13.3924026
  13.2599826  33.4157201  12.4385948  12.9744049  32.4596473  13.5767288
  45.1505104  70.3605832  26.4633341  45.8651797  70.2864183  25.8308954
  45.1104490  69.5004524  26.8814344  10.7981515  60.4482031  54.0549898
  11.6453600  60.3077364  53.6322117  10.5106306  59.5721674  54.3121481
   6.2334009  27.3852226   8.5908813   6.5935631  27.5528070   9.4617624
   6.8967386  26.8490287   8.1564779  66.1888130   7.5699207   0.0104875
  65.3681154   7.8746053  -0.3766279  66.5422757   8.3385297   0.4583044
  34.4071217  59.6215269  12.6432199  35.0832005  59.6848795  11.9685860
  33.6951704  59.1380426  12.2241707  25.0579663  66.4022276   8.4524460
  24.7478695  66.3004800   7.5526018  25.8449908  66.9415113   8.3750315
  46.0143299  61.8406603  12.5364132  46.5874691  61.5480062  13.2450027
  46.5983315  61.9510099  11.7860813  22.8464805   3.3977084   7.3721666
  23.6324512   3.5664992   7.8917761  22.4221789   4.2522578   7.2951526
   6.9459124  56.2750265   0.4981346   6.5333338  55.5990431  -0.0395041
   6.8458910  57.0797369  -0.0104599  11.8586750  37.5757381  33.4915037
  12.4475189  37.7187654  32.7505369  11.5523572  38.4516117  33.7265463
  36.2543917  66.5767956  18.3801985  37.2028279  66.4701843  18.3071768
  35.9463882  65.7433462  18.7361920  70.7854040  19.1536447  49.6029444
  70.2282341  18.3772728  49.6580763  70.6367929  19.6142360  50.4287786
  45.5555383   0.3644069  27.0333743  46.3467518   0.8806069  26.8792629
  45.0462905   0.4605706  26.2286067  71.2776184  68.7595415  49.2700386
  70.6493473  68.4351301  48.6248493  71.5980434  69.5820236  48.8997936
  18.6899443  69.5036909   5.9484215  19.2106648  70.2344152   5.6150646
  19.3366118  68.8467237   6.2061949  46.5153523  39.7470113  10.9602327
  45.6816645  39.6276542  10.5053158  46.3025351  39.6269008  11.8857117
   0.4575200  49.2064401  26.2902231   0.1360579  48.9708540  25.4199381
   1.0927387  49.9043581  26.1301012  29.0766811  70.2671289  50.9590244
  29.1410255  70.2807283  51.9139624  28.5144520  69.5164871  50.7675219
  59.9464790  21.7257436  50.8833838  60.6289665  21.0810216  51.0698748
  60.1379291  22.4546941  51.4734745  57.5656521  13.6945474  32.0267820
  58.0651867  12.9519999  31.6871929  57.8291368  14.4321728  31.4765859
  16.3562739  17.1738088  44.8782539  16.8658984  16.6807556  45.5212259
  15.8866429  16.5044427  44.3806314   9.9330890  26.1963153  58.4256935
   9.9214637  25.3462815  57.9857588   9.2143881  26.6840458  58.0234241
  49.6898114  19.8437810  50.6088781  50.0121629  20.0428367  49.7298431
  50.2012717  20.4111362  51.1857224  34.9451001  10.5921098   2.3074932
  34.0117355  10.5190488   2.1081848  35.2931125  11.1598512   1.6198988
   2.1404499  19.2536974  45.8890438   2.0459874  18.4554029  45.3693962
   1.3209128  19.3187225  46.3793087  49.2532054  48.9227737   3.5079021
  48.3261720  48.6853565   3.5297174  49.3044726  49.6290625   2.8638811
  46.6496793  49.0196039  11.7000170  46.0702268  49.4092347  11.0452957
  46.3607518  48.1093086  11.7641659  62.6991939  21.6104174  31.8504238
  63.2899177  21.4343357  32.5827289  61.9644463  22.0815802  32.2433400
  49.2966878  19.5255435  54.9592543  48.6666858  19.7009695  54.2602873
  49.4140374  18.5757017  54.9430943   5.7821172   7.0438337  38.4959173
   6.5547824   7.0687073  37.9314685   6.1124140   7.2739160  39.3643618
  69.8902514  21.5297484  44.0023756  70.5656805  21.6910839  44.6611595
  70.1112884  20.6728244  43.6376047  14.3925086  43.8520701  21.7507047
  14.3388060  42.9700096  22.1185560  15.2320514  43.8692583  21.2912435
  61.1576517  60.5372612  55.1453876  60.4803809  59.9032454  54.9096775
  61.7754730  60.5105166  54.4147587  63.0330002  33.4273362  49.2308044
  63.2993960  32.5557280  48.9382839  62.3411393  33.6835766  48.6209679
  12.8044450  29.9613309  61.1440325  12.2911716  30.1045179  60.3488684
  13.2086396  29.1030240  61.0168886  29.2331052   4.6803373  32.1313596
  29.9739861   5.1242852  31.7187619  28.7130833   4.3506372  31.3984847
  31.2591306  41.1176319  31.1463804  30.5119160  40.5220951  31.2032766
  31.9015757  40.7547898  31.7561693  27.1120381   4.3191698  35.2090168
  26.9126916   4.9138674  34.4859481  27.8276348   3.7746364  34.8809361
   9.0926337  18.4597611   7.4188268   9.0557539  19.1202354   8.1106681
   9.9876350  18.5136485   7.0837134   6.2254262  17.5353396  27.3599815
   7.1487701  17.3209178  27.4929929   5.8691162  17.6188648  28.2444572
  24.3231583  16.1924243  22.1352959  25.0869203  16.2370324  22.7105427
  23.7417245  16.8822074  22.4552393  55.5016377  57.3416679  33.9526772
  54.6463727  57.3601799  34.3821073  55.7949789  56.4349251  34.0421224
  72.6980713  26.7812873  29.6452780  72.3832134  26.2043060  30.3411169
  71.9253043  26.9503428  29.1063089  51.9111410  51.8795039  15.5409975
  52.4849359  51.6145469  16.2598772  51.8633047  51.1083032  14.9760217
   7.3192692   7.3140877  22.6523304   7.6752251   7.7808964  21.8962765
   7.6048470   6.4085823  22.5309324  46.3209764  65.4099048   2.8981561
  45.9756438  64.5334519   3.0678816  47.0639268  65.2652825   2.3122043
  72.5747502  13.7835383  44.5066023  73.1262061  13.2997966  45.1215219
  72.3842931  13.1550848  43.8101816  47.3450815   5.8542281   4.6045414
  46.5519154   6.2431979   4.2360014  47.7152002   5.3398412   3.8871509
  11.2745392   3.6511335  45.6798983  11.6551769   3.4929904  46.5438080
  10.6592715   4.3713811  45.8174562  36.8857837   6.6882050  45.5095053
  36.0211611   6.9175768  45.8501625  36.7166471   6.3659990  44.6241760
  11.4993485  67.9858808  45.1590919  11.3938316  67.9141463  44.2104340
  11.0266074  67.2313403  45.5103970  26.0926485  14.7526515  35.5245256
  25.4368186  14.4974446  36.1733627  26.8297052  14.1632116  35.6843424
  45.0040070  63.6326493  15.4236574  45.9403435  63.7479843  15.5855388
  44.7298077  64.4512428  15.0101967  16.1259305   8.9885509  40.4747915
  16.6379702   8.5100204  41.1267519  16.7174554   9.6722978  40.1604319
  13.9614058  32.3841596  33.7496710  14.1782522  32.8871512  34.5346618
  13.3761561  31.6939163  34.0615678  10.1517264  61.9905461  10.1395960
   9.7660915  62.7609910   9.7225399   9.9135188  62.0735754  11.0629577
  43.4438280  66.0430421  18.4331865  42.8200511  65.3194727  18.4930296
  43.6614612  66.2474860  19.3426199  43.8547353  60.9588469  15.1003904
  44.0912477  61.8861283  15.0792999  43.2235686  60.8563913  14.3880958
  26.6625912   2.3388216  13.5676832  26.8522413   2.4679181  14.4969816
  26.9938238   1.4616200  13.3752413  31.7174510  48.6130859  14.4742889
  32.5286332  48.6397876  14.9817343  31.4372925  47.6988686  14.5184488
  17.9437363  19.3250656  44.4379616  17.5617504  18.4526646  44.5340586
  18.7917447  19.1707003  44.0216875   1.7055413   1.3014726  49.8908901
   1.6452181   0.4855940  50.3878164   1.5456659   1.0416878  48.9835930
   0.4635962  68.1525761  45.8603764   0.4922780  67.3448275  45.3475904
   1.3824567  68.3906941  45.9837723  30.9073877  10.3370237  22.2707033
  30.6882548   9.4206530  22.1019506  30.2186799  10.6432402  22.8607416
  16.6901302  37.3573160  53.7947464  16.7339921  36.4390230  53.5282040
  15.8928752  37.6888227  53.3815622  42.3457146  21.6637349  60.6639099
  41.6742945  22.2709012  60.3528166  41.8548489  20.9048438  60.9791374
  15.2751505   0.1894447  54.9986029  14.4081044   0.5861426  54.9143839
  15.2583826  -0.5532703  54.3950081  14.9421418   8.5496998  34.4967484
  14.0129232   8.3829761  34.3386722  15.1979935   7.8887928  35.1401567
   8.9897776  23.2750511   8.9397663   8.0493331  23.4457541   8.8882262
   9.3963194  24.1311073   8.8051468  19.0210418  52.7735938  19.0072603
  19.2916963  53.6639823  19.2312784  19.7531990  52.2234846  19.2857523
   9.2595124  13.2012415  18.8697040   8.6733246  13.8318241  18.4513974
   9.7744972  13.7240708  19.4842529  71.4665194  69.3724059  58.7337542
  71.7447229  70.0142867  59.3870735  71.8230291  68.5413402  59.0475416
  23.9647508   7.1244150  37.9418707  24.4482541   7.9491031  37.8934431
  23.7448525   6.9219422  37.0325422   0.5210169  55.6124501  50.7843637
  -0.1253096  55.1416723  51.3105392   0.2064952  56.5164034  50.7710886
  58.7239118  69.5070227  50.1430941  57.9201009  69.1160384  49.8006725
  59.3997022  68.8499032  49.9765635  55.2581183  15.7721354  11.2550134
  55.7508365  16.3493313  11.8383713  54.3403021  15.9595062  11.4518280
  68.1684351  14.0027392  14.5849717  68.8136863  14.7043383  14.4975603
  67.4831372  14.2278337  13.9557409   3.7346581   3.9939359  55.2288914
   3.2454500   4.3413273  55.9746981   3.1732342   3.3044785  54.8743725
  66.7309487  27.2528076  35.5043101  67.3593449  26.9101644  36.1398768
  65.9353864  26.7423010  35.6549549   5.9190643  22.7540493  35.8903408
   6.0261285  21.8454361  35.6089282   6.7106909  23.1951165  35.5820918
  24.6291590  23.2691312  32.1244049  25.4498124  23.2430792  31.6323853
  24.5725369  22.4094176  32.5414395  44.0026426  23.4697008  49.6539593
  44.3669748  24.1238236  50.2502918  43.4417915  22.9266524  50.2078342
  74.2607835   6.1168206  38.2852960  74.4393024   5.8888274  39.1976476
  73.4445032   5.6610721  38.0798411   5.3299558  16.1770022  45.6772375
   5.8795321  16.8874359  46.0081196   4.7496456  15.9629762  46.4077616
   5.7250603  63.8820361  36.4552832   5.5180772  63.0505143  36.8818545
   6.6194137  64.0782677  36.7343116   0.2764407  56.9442977   1.3619728
   0.6988255  56.3777651   2.0076246   0.6294719  56.6537846   0.5210180
  55.3403298  55.8693351  23.8868208  55.3911487  56.8251695  23.8924856
  55.9360138  55.6019606  23.1868906  64.6168256  39.8671126  60.5080080
  64.3927264  40.5898809  59.9218178  64.1511976  40.0646353  61.3206625
  37.4596222  66.7398463  23.1303406  36.7209466  67.3422055  23.0422807
  37.4260422  66.4514054  24.0424299  17.8140850   3.5381505  11.5986986
  17.5441189   3.0206606  12.3573513  17.0139809   3.6441299  11.0840816
  23.0264306  13.1329310  52.7982378  22.9977369  13.4348702  53.7061167
  23.4726024  13.8359070  52.3260212  26.0134721  22.4147224  45.9136343
  25.2250266  22.0556092  46.3206053  25.8102775  22.4395871  44.9785805
  24.2415166   3.9830321  34.9840021  24.9119782   3.6045256  35.5527234
  24.5140290   3.7413937  34.0988016  58.8389154   5.8171627   2.2372360
  58.6322768   5.2789947   3.0013771  58.8195462   5.2055093   1.5012045
  20.9003019   6.3755232  49.4843292  21.4708400   6.3040704  48.7190771
  20.4140377   7.1882385  49.3454933   7.9572344  10.9511125  60.5364084
   8.3944219  10.1338303  60.2973509   8.4171635  11.6243374  60.0349474
  63.0805965  50.1514265  16.1940164  63.5679157  50.8017942  16.6997499
  62.5567968  50.6677553  15.5814237  39.5562494   4.8433378  11.2257564
  39.8374808   4.5892224  10.3468001  38.8136160   5.4293042  11.0795665
  11.7216262  66.7015071  49.0832996  12.0552310  66.9031052  49.9575424
  12.3759278  66.1127530  48.7071514  27.7481181  55.3397192  54.2292852
  28.2285122  56.0376967  54.6745748  28.0285448  55.4008163  53.3161325
  64.8293400   8.9383543  35.2599001  65.0964313   8.0942792  35.6238127
  64.1762292   8.7170839  34.5960355  18.5884893   9.8260468  28.0608225
  18.6164367  10.6035340  28.6184645  19.4952476   9.6986151  27.7819252
  14.1177201  21.5680575  42.2060156  14.2210054  21.2248015  41.3184690
  13.3323753  22.1135163  42.1619749  48.9610636  28.7138510  52.3953724
  48.4473335  29.4484401  52.0596790  49.5402014  29.1055346  53.0491447
   5.6041912  57.3946775  12.0147962   4.8366777  57.3818363  12.5866241
   5.3306249  56.9103493  11.2358064  32.4664835  52.5671829   6.0727186
  33.3782396  52.4819161   5.7940407  32.3948089  51.9942786   6.8361826
  29.2158413  39.4138026  31.7199206  28.5362792  39.8590350  32.2260737
  29.5059490  38.6983657  32.2858000  12.2473542  53.5692681   6.7333574
  13.1296364  53.3341659   7.0206470  11.9725076  52.8376521   6.1806984
   5.4179913  11.0527170  42.0139217   6.2688100  10.6320977  41.8897486
   5.0454509  11.1040664  41.1336899  22.3866892  18.6471462  54.2697382
  22.2600889  19.4159484  53.7137270  21.6656017  18.6846542  54.8981142
  34.8425613  47.8065659  10.8538027  34.6078245  46.9993569  11.3115616
  34.0654007  48.3600737  10.9304972  17.1929860  12.7009118  45.8226299
  17.3120213  13.6409426  45.9582901  18.0763769  12.3368537  45.8802080
  40.3111211  48.6615158   4.5195980  40.7900802  49.4883074   4.5765800
  39.7994260  48.6249555   5.3277225  68.9230132  16.6846490  48.1058502
  69.3767428  16.8368971  47.2768879  69.2460817  15.8340311  48.4030199
   5.8699501  23.7709093  55.7464695   6.0325330  24.5187783  55.1715899
   5.6521320  23.0539060  55.1509094  30.8016477  68.6598147   8.5208673
  30.9914181  67.7216853   8.5093613  30.3199211  68.7967457   9.3366022
  60.0939584  49.2035580  50.1397276  59.8752427  48.6839628  49.3661547
  60.1551521  48.5634279  50.8487558  37.2136799  58.2099880   0.8785219
  36.8407265  57.8689922   1.6914530  36.4577845  58.3486689   0.3078861
  34.6540260   0.9860183  50.7817316  35.3206205   0.9373686  51.4669418
  34.3176961   0.0926552  50.7109118  19.7748613  47.9419756  14.1154981
  19.4899809  48.7049007  13.6124837  19.1992652  47.9307413  14.8802173
  54.5604268  28.7670602   8.1527872  54.3676344  28.7342717   7.2157783
  54.0002290  28.0922992   8.5363359  57.0869603  63.1967787  40.8710432
  57.9471227  62.8717105  41.1369085  56.9581445  63.9884441  41.3934469
  61.9899007  68.8862520  36.8659735  62.8688880  68.6118849  36.6045642
  61.7036351  68.2147837  37.4851799  56.4845562  53.4405184  46.9207525
  55.5563402  53.2435703  47.0466805  56.9408285  52.8116751  47.4798584
  27.3305542  55.2504779  23.5870523  28.1532077  55.0828828  24.0468187
  26.6568888  54.8852552  24.1606493  63.8142562  19.2754412  35.4715610
  62.9010677  19.2994165  35.1856518  64.3033135  19.0185785  34.6898460
  65.4601723  36.4616251  57.2030020  64.7405529  36.1013937  57.7212811
  65.6694621  35.7726288  56.5723562   6.4154824  48.8045423  47.0142746
   7.1316847  48.2393901  46.7246342   5.8669361  48.9131849  46.2374067
   3.4486536  45.0569303  21.8255777   2.8323082  44.4806994  21.3735742
   4.2371897  44.5254697  21.9350786  18.0590892  10.1414204  33.2374334
  18.6439097   9.8661816  32.5314164  17.1790922  10.0069702  32.8856373
  53.4652921  63.6225842  31.5913796  54.1304930  64.1431652  31.1411190
  53.8004087  63.5248642  32.4826598  46.7140274  18.6738559   4.7376461
  46.6558517  17.7348158   4.9138470  47.2425480  19.0201685   5.4566450
  50.0525605  38.4391713  57.0515537  50.5157125  38.2718730  57.8723621
  49.4724238  39.1743660  57.2494411  22.8384034  50.5180062  16.2809677
  22.8708608  50.5445529  17.2372455  23.2444405  51.3395931  16.0046310
  32.3501667  66.0149516  46.6180134  32.4610552  66.0980232  45.6708956
  32.2597202  65.0737427  46.7669344  67.2088486   8.5377550  32.5308347
  66.8447536   8.9232850  33.3277249  67.1810537   9.2461723  31.8877149
  27.3840809  67.0558339  23.4752436  28.3087540  67.2491985  23.3208914
  27.1788549  67.5057846  24.2947931  25.3673744  29.1173840  24.8652840
  25.6929398  29.9690413  24.5738721  26.1057830  28.5219860  24.7368908
  19.6024058  64.3985762  22.5166864  20.3397677  64.1101469  21.9787855
  18.8556377  64.4010676  21.9178839  67.3182153  33.5885334  37.9630876
  67.8193986  34.2149973  38.4851909  67.5351524  32.7355051  38.3392692
  59.6354510   6.3132784   5.4736061  59.0413631   6.2329885   6.2198276
  59.4848837   5.5190250   4.9610443   9.2652830  57.2974531  37.4804306
   9.6012291  56.7270653  38.1718278   9.9700221  57.3303084  36.8335176
  16.2596545  46.3531078   4.2517156  16.4331875  45.9817089   5.1166887
  15.7188729  47.1234561   4.4259281  73.7788472  57.5393677  57.0676327
  73.2151219  57.4340391  57.8340244  74.6334210  57.2157478  57.3526049
  58.9535858  62.2676282  49.5058250  58.1616320  62.6958583  49.1807699
  58.7721779  62.0985417  50.4303455  63.5940563  13.5786402  44.4056749
  64.1909349  12.8402305  44.2843533  64.0606618  14.3273211  44.0342045
  23.8451672  20.8314633  46.4225912  23.3602762  21.3637400  45.7918835
  23.3093596  20.0463462  46.5354300  71.2021658  11.7625511  55.0679255
  70.4067692  11.4184380  55.4743242  71.8046012  11.8997180  55.7990122
   9.7316897  23.9934540  39.7733474   9.0534139  24.0607715  40.4453897
   9.5832348  24.7503805  39.2065525  22.2710308  56.3117640  54.1451979
  21.5616115  56.9420151  54.2706394  22.8059181  56.6890876  53.4468031
  58.8069705  36.4638588   4.4762344  58.8917903  36.4376857   3.5231609
  58.6520175  35.5534527   4.7279949  73.6560295  29.4552851  44.0833950
  74.1934249  28.7604427  43.7030888  73.7291325  30.1810217  43.4635592
  48.5849932  32.5074182  12.8708334  48.3989981  32.4652327  11.9328279
  47.7224806  32.5334205  13.2851095  57.3063413  48.4853615  10.7795687
  57.3896829  49.2286111  11.3769502  56.3991586  48.1972612  10.8808012
  34.2023406  68.4157313   1.6085214  34.2642657  69.0678848   2.3064442
  33.2991484  68.4817375   1.2984915  35.4904139  26.2270021  60.6378651
  34.6854984  26.4343452  60.1631498  35.2852142  25.4250360  61.1184645
  58.1747424  14.3856287  22.4391985  57.8979921  15.2884245  22.5960445
  57.3931443  13.9514709  22.0973778  -0.2613155  53.4508674  55.2434111
   0.0269302  54.3180124  54.9584436   0.4678544  53.1155185  55.7650280
  67.0913100  35.8948350  29.3915319  66.5280324  35.1707029  29.1184330
  67.1532166  36.4550591  28.6178708  61.4111006  18.2953751  34.3858314
  60.5055344  18.4596074  34.6489072  61.4233291  18.4732902  33.4453917
  53.4604226  17.3732063   6.0533924  54.0714173  18.1019136   6.1624975
  53.5700334  17.1032020   5.1416273  12.8539169   5.6594920  53.3961678
  13.3074844   6.4111263  53.7776852  11.9718575   5.6991261  53.7658024
  15.7000840  12.0698154  43.6966372  14.8062551  12.4122345  43.6895227
  16.0780251  12.4037313  44.5102024  32.3294377  24.4818020  60.2572918
  32.6578736  25.1061630  59.6103477  33.1171298  24.1299438  60.6719780
  39.6835804  30.7250953  56.5312576  39.9878025  29.8219490  56.6207552
  40.0597239  31.1802983  57.2846079   4.3094966  19.1346931  39.1050839
   4.9923003  19.5232534  38.5582471   4.7275907  19.0087438  39.9568868
  33.1832433  38.5109568  23.0388713  33.4336066  39.4117284  23.2442045
  32.7510166  38.5707784  22.1869135  43.7021112  13.8762856  52.7750683
  44.0595818  13.8590443  53.6628485  42.8132534  14.2152202  52.8813171
  19.5325971  32.4579763  45.4227448  19.0112638  32.4394011  46.2253046
  20.3417444  32.0009232  45.6521177   8.9159540  52.5625528  26.1423368
   8.7065867  52.0609678  26.9302530   9.8563520  52.4334027  26.0190363
  66.1299085  54.5901537  39.1656041  66.0788965  55.2695894  39.8379135
  66.0735273  53.7674952  39.6516967  65.0706362  53.4602690  33.6313820
  65.5729097  53.5258722  32.8191948  64.2235505  53.8535261  33.4215665
  56.1975372  35.3122187  44.2172337  56.9342530  34.7637701  43.9476299
  55.9424817  34.9670362  45.0728178  18.1525011   1.8212482   3.4737511
  17.2855111   2.1529266   3.7073011  18.0196829   1.3697788   2.6402206
  74.5516592  31.8503475  27.7516675  74.2835702  32.6848722  27.3670530
  75.1029711  32.0952487  28.4948421  23.4367800   1.9868693  55.3249025
  23.6165094   1.1323565  55.7169962  22.5391316   1.9172478  54.9999285
  64.1875803  53.8646460  42.5362158  63.5038888  53.2360125  42.7677679
  63.7723207  54.4464874  41.8996191  17.5056779  44.8391676  17.4203598
  17.5182319  45.6597185  16.9276416  18.0750871  44.2522812  16.9227934
   5.9120480  65.6908478  18.7836428   6.2211493  65.0096525  19.3808527
   6.6280977  65.8043875  18.1586523  18.6607230  48.6745453  57.6261616
  18.6681962  49.5392609  57.2157478  17.9215956  48.7041330  58.2336569
  61.9273133   9.0203497  29.7782774  62.7718039   8.8142177  29.3775530
  61.7131074   9.8935386  29.4498129  71.6159947   4.6577641   4.6423025
  71.0721452   3.9617297   5.0110788  71.7523463   5.2656433   5.3690262
   3.2971179  27.5015378  57.6704741   3.9668614  27.1622324  58.2642317
   3.7911543  27.8768659  56.9415808   9.5581144   3.5166296  20.1500869
  10.3041101   3.6935544  19.5770097   8.8567615   4.0712216  19.8083806
  37.0055202  24.4681050   7.4836130  37.2861413  24.0796293   6.6550178
  37.3897294  23.9041234   8.1548376  70.1554779  68.8614835  25.3322382
  70.5595830  69.5630540  24.8216219  70.2157072  68.0899776  24.7688742
  45.2938811  68.6810054  17.1714372  45.9018675  69.4012321  17.3383493
  44.9399701  68.4616984  18.0333443   0.3923854  61.1152701  57.0449066
   0.7248195  60.6912558  56.2537479   0.0054630  60.4029088  57.5538874
  11.8692541  37.9275036  58.6121273  11.8805063  37.7679968  59.5558786
  12.6438415  38.4662938  58.4510279  69.1216850  10.3297949  13.9466465
  69.1890871  10.3111494  14.9012887  69.7748542   9.6970052  13.6480176
  37.5056815  20.2509665  50.6926870  38.4009385  20.1433277  51.0138750
  37.6093960  20.5195236  49.7798061  26.6297722  15.3756273  23.6148143
  26.4458632  14.4510865  23.7810540  27.5327373  15.4967773  23.9084244
  65.4907030  17.9139197  49.3143368  65.7872420  17.1026695  49.7268534
  64.5367241  17.8848743  49.3872261  42.2790436  47.9895569  11.9690151
  41.5683941  47.4401034  12.2996349  42.0167450  48.2079448  11.0747356
  23.2509041  10.2984154  56.8154001  23.3915520   9.3946534  57.0976496
  23.1813884  10.2436149  55.8623028  72.2705361  24.3602347  35.2540636
  72.5392504  25.2787781  35.2366805  72.5395412  24.0158296  34.4024444
  37.1179211  16.4400423  38.9582276  37.2818720  16.9113612  38.1413960
  37.7365386  15.7097888  38.9417005  13.6322125  65.1377349  26.7387486
  14.2522391  64.5203345  26.3506579  13.7933167  65.0789081  27.6804590
  57.3052303  23.3366264   8.3368416  56.5320317  23.3449508   8.9010448
  57.1152417  22.6667632   7.6800127  67.8438719  64.9379824  35.9498024
  66.9140991  65.1502220  35.8678961  67.8590997  64.1092567  36.4285660
  31.0581919  62.1679454  20.0643611  30.7976421  61.2511121  19.9762547
  31.9597097  62.1926300  19.7435975  44.0896038  49.1460933   0.8462210
  44.4517258  48.5233964   0.2158661  43.2777504  49.4517316   0.4416056
   5.8123736  63.5569371  16.3110275   6.6809324  63.3922161  16.6780538
   5.6165413  64.4613732  16.5557213  18.1557477  20.3931260  52.4899101
  18.4446597  19.5591950  52.8604794  17.2462201  20.2393508  52.2342873
  34.5766830  13.8110161  51.3065243  34.2930269  13.3924627  50.4937601
  34.4525599  14.7471130  51.1498499  46.1739270  45.4558994   6.1307831
  46.7703215  44.9462618   5.5823202  45.5349127  45.8183302   5.5171556
   0.3018322  23.7355208  52.1373844   0.4647285  24.4248915  51.4935923
  -0.5581509  23.9459515  52.5012255  58.3973980  50.4742718  51.7422247
  58.4202897  51.3624191  51.3859940  58.8654601  49.9450445  51.0964203
  68.6632998   4.6529886   5.9964533  69.1158874   3.8108107   5.9502907
  68.4447415   4.8575946   5.0872774  18.4538827  50.8909179  14.0779323
  17.5879345  50.4890014  14.0084381  18.5307471  51.1363138  14.9999399
  14.1882169  18.9112163  44.0012693  14.2479920  19.7225499  43.4968901
  15.0700557  18.5407662  43.9644194  19.7057092  16.6056585  48.3111715
  19.3585896  17.0293224  49.0961838  20.5650926  17.0070720  48.1824923
  26.2350944  45.0319184  13.9524002  27.1262477  44.8799379  14.2670126
  25.7189358  44.3283571  14.3458671  35.0397531  57.2104467  30.5440969
  35.0320271  57.7819480  31.3119287  34.9179778  56.3300766  30.8995504
  71.1971299  43.5332633  11.4146299  70.5055825  43.6062653  12.0724029
  71.2223307  44.3941964  10.9970302  13.9603583  28.6040820  29.1594572
  13.9013461  29.5086939  29.4667501  14.7738985  28.5747571  28.6559458
  24.9220705  21.0325551  54.7793102  25.5593705  20.8328319  55.4650164
  24.2327619  21.5220404  55.2281857  16.8394828  41.2966442  54.1184473
  16.6312122  41.2390137  55.0509357  16.0153818  41.5528011  53.7043571
  14.4156802  22.7796531  60.1974773  13.6071050  22.7576041  60.7092905
  14.3217719  23.5479093  59.6342754  59.0370249  37.5273895  15.6424117
  59.3050301  36.6463184  15.9034133  58.7229883  37.4259043  14.7439051
   1.4853792   8.1200498  35.7466507   2.1728215   8.7789530  35.6491709
   1.1094587   8.2920301  36.6099787  29.1775370  61.4353742   8.6459751
  29.4998500  61.0707368   7.8217287  29.6649567  60.9654583   9.3226070
  34.5647553  62.5127591  10.1786918  34.3382452  61.5839542  10.2260704
  34.0845910  62.9136480  10.9032364  15.5594468  25.0170040  55.5148220
  14.8716056  25.0380611  54.8494911  16.1714458  25.7030916  55.2484083
  14.1895075  10.1026031   7.6515932  14.9602480  10.6687519   7.6924152
  14.5194860   9.2733881   7.3055477  17.4441651   0.8258374  48.5003233
  18.2250515   1.2836058  48.1890440  17.2627584   1.2159188  49.3554020
  71.7599311  47.2497606  42.4414158  71.3711875  48.0562353  42.7801037
  71.7621985  47.3656082  41.4912558  16.3211083  41.7153549  44.6722174
  15.8945799  41.5222359  43.8373470  16.0196841  42.5955582  44.8972130
  24.1121721   1.7715716  44.3732500  23.2937336   2.2679313  44.3690014
  24.7720647   2.4002758  44.6656609  60.9002419  29.6768686  19.0150709
  60.7729919  29.3760273  19.9148149  60.5220945  28.9830753  18.4748049
  14.0625536  15.2465975  31.2766433  13.7307918  14.3524694  31.3585067
  13.4718084  15.6648529  30.6502938  24.1743698  35.4348118  20.9900732
  24.2745025  36.3598826  21.2146826  24.2878705  34.9729980  21.8207807
  68.2621021  27.5875351  12.6307840  68.4594007  26.8767854  12.0207519
  67.3063369  27.6014206  12.6813097  36.9184784  67.9032267   1.8903465
  35.9971563  68.1554831   1.8289871  36.9098858  67.0829977   2.3836822
  28.6373758  19.5020783  54.8879147  29.1645813  18.8549149  55.3563881
  29.1104078  19.6487379  54.0687943  71.0004902   3.4391338  58.8162518
  71.3328078   4.2677340  58.4709692  71.3656535   3.3839834  59.6993399
  57.4899912   9.8661143  19.7914779  58.4403014   9.9770969  19.7627449
  57.1442723  10.6502664  19.3650794  72.1541670  55.5381918  23.5537004
  72.2820228  54.6622658  23.1895113  71.2947669  55.4999590  23.9734650
  30.5459285   4.9488023  52.8349113  30.2330327   4.4311228  52.0930624
  29.8950768   4.8016152  53.5211754  67.3792346  31.3371011  32.4611540
  67.9853935  31.5645906  33.1661768  66.8739636  30.6016800  32.8076906
  64.9640484  10.3299209  20.8751364  65.0226469  11.2798616  20.9771414
  64.5763738  10.0244257  21.6952677  24.2457177  55.0666882   4.5253010
  24.1104560  55.0718988   5.4728813  24.2647025  55.9919871   4.2809791
  63.4124414  57.0729269   7.8527422  63.1284252  56.5297903   8.5879726
  62.6560394  57.6260008   7.6572962  60.6960269  67.4886267  49.7312593
  60.7925411  66.7704014  49.1059017  61.5414675  67.5325029  50.1779556
   7.8359771  27.6551175  57.6446676   7.3993164  28.3073187  57.0967674
   7.1398044  27.3038793  58.1998301  15.5400646  27.0358324  47.6352739
  15.1174664  27.3375082  48.4394121  16.4594376  26.9218516  47.8760958
  25.1550984  18.7121487  52.9890251  24.5002985  18.0545843  53.2237101
  24.9786925  19.4463992  53.5772324  59.5441782   6.6331071  29.7582293
  60.4617583   6.6860086  30.0255895  59.1694534   5.9554368  30.3208804
   9.2947692  62.7283192  40.5140018   9.5226794  61.8302631  40.7543755
   9.9988490  63.2611942  40.8835220   3.9446516   4.5173880  32.7767343
   3.5156508   4.7838041  33.5898847   3.4074517   4.9034139  32.0849008
   2.8591976   5.6642777  39.3664002   3.5060859   5.7865149  38.6715436
   3.2301795   6.1201441  40.1219082   1.5492742  43.4004164  49.9016953
   1.0613966  43.3099985  49.0831423   1.0317725  44.0146875  50.4223633
  65.3250116  47.8888702  33.3529830  64.7030842  48.1536531  34.0307212
  64.8130643  47.3392248  32.7596617  74.6816976  41.1313248  49.0462208
  74.3093607  41.7062330  49.7148561  75.1133365  41.7257738  48.4325838
  70.5921903  44.6104765  60.8909369  69.8122373  44.1027212  60.6671286
  71.2809404  43.9550877  61.0019398  14.7966719  28.1778526  56.7035532
  14.3070769  27.7096629  57.3798132  15.6201577  27.6959252  56.6270733
  41.8969536  13.4002757  39.4619560  41.4123583  12.8055859  40.0344419
  42.2641134  12.8335297  38.7835574  28.5632849  17.4368846  58.1664705
  27.7089882  17.8582156  58.0721951  28.9828300  17.5526726  57.3139381
  53.2743827  44.6779491  11.7093153  53.4942809  44.6441145  10.7783289
  52.3460118  44.9103589  11.7278404  35.3753439  18.8873543  17.8880138
  35.2135900  19.5618667  17.2283954  34.8469780  19.1558195  18.6396713
  59.5288016  13.0596325   2.0583839  60.3774948  12.7510664   1.7409868
  59.0222008  12.2604677   2.2030229  57.7356423  10.7786724  27.9954691
  58.3319385  10.2920553  28.5645647  57.2521509  11.3524362  28.5898275
  23.1610084  22.2305346  59.1538668  22.6199746  21.5856457  59.6095371
  23.1697536  21.9353509  58.2433605  16.6403925  38.6436653  59.4602442
  17.3618031  39.1969013  59.7597885  16.0249877  38.6348081  60.1933384
  18.8715585  67.4369906  36.6558146  19.1469749  66.5203519  36.6435838
  19.2803320  67.7994348  37.4417996   1.0506658  47.0370379  44.3794685
   1.8418126  46.5352813  44.1830986   1.2109737  47.8979615  43.9930182
   5.0204015  42.8383112  56.1403084   5.7621503  43.3648443  55.8423138
   4.8484856  43.1483030  57.0294571  13.2184339  13.8316154  25.3468752
  12.6689982  13.0478501  25.3548574  12.6091313  14.5528638  25.5043006
   3.0185755  58.3779113  53.7582207   2.7554616  58.2695644  52.8442955
   3.9467438  58.6077599  53.7146091  32.7255221  42.0504066  10.2169390
  32.9660995  41.3156149   9.6526356  32.3663755  42.7048990   9.6178694
  16.6630328  40.1012230  47.4660921  17.1944487  40.6232262  46.8649769
  15.8632970  40.6135082  47.5853443  54.4301335  51.1618353   5.4697914
  55.2582351  50.7160426   5.2916021  54.6205441  52.0883883   5.3232450
  49.2613160   1.7914428  59.9191809  49.4974696   1.4482209  60.7809591
  49.0750062   2.7176368  60.0730801  72.9521134  66.2242746  47.2403765
  73.0955185  65.4881716  46.6455507  72.1778863  66.6663837  46.8920279
  68.9339987  33.4810887  11.8046541  68.2644240  33.6307429  11.1371965
  69.5197216  34.2344205  11.7294664   9.9596441  37.1846914  41.3229609
  10.3220260  36.7936969  40.5279589   9.1638970  36.6816330  41.4960289
  54.1002083  10.7322085  52.8939342  53.8641644  11.5702832  52.4962616
  53.3678818  10.1527190  52.6838732   0.5516168  19.2075312  42.0900917
   1.2668246  18.8258779  42.5990629   0.0718674  18.4531319  41.7481041
  54.6735297  26.9573995   3.4883947  55.3621943  26.3175270   3.3080263
  54.1325356  26.9560358   2.6987428  53.1183588  46.1054651  36.6093779
  53.6606987  46.8938057  36.5844846  53.4456750  45.6132452  37.3622489
  47.1558229  43.6876567   4.3126888  47.0418803  42.9125280   4.8626203
  48.0878917  43.6918498   4.0948267  20.6331082  15.2619573  16.9303484
  20.0755139  14.5754596  16.5642328  21.5087958  14.8757908  16.9469566
  34.7073622  24.3242857   3.6595220  34.5279475  23.7184879   4.3785877
  34.0846606  25.0397846   3.7881107   9.7342058   6.2614605   7.6955337
   9.9977942   5.7999870   6.8994255   9.1479822   5.6513235   8.1430883
  36.4142513  53.2955122  52.3940802  36.3715172  53.4261703  53.3413553
  35.5001426  53.2139874  52.1220636   9.8641439  23.0926105  34.1807337
   9.6567817  22.6141283  33.3780546  10.7744356  22.8633091  34.3678827
  52.1656525  26.7568847  17.5533981  52.3079414  26.0381385  18.1693382
  52.6558842  27.4906608  17.9241819  68.5831220  30.1423380   2.0163269
  68.8244028  29.6567127   1.2275429  69.1606755  30.9056589   2.0136995
  37.9700128  62.7969016  13.2239170  37.9304353  63.7515844  13.1669493
  38.5512117  62.6250590  13.9647980  72.8527458  46.2033749  57.6106405
  71.9313067  46.2486219  57.8658581  73.1644030  45.3788137  57.9837370
  62.9871225  18.2757437  53.8932800  62.8987515  19.1603327  53.5384178
  63.8492274  17.9838324  53.5969782  62.9651077  12.5998804  21.8434782
  62.3918529  12.8870460  21.1327333  62.6339836  11.7344305  22.0834417
  38.5647161  44.7300216   2.3476095  37.6969559  45.0444433   2.6013012
  39.1715880  45.3523466   2.7484102  15.0722595  39.9993202   0.7272930
  14.2781277  40.4635402   0.9920378  15.6766053  40.6917879   0.4599256
   1.0736318  18.7798711   6.3134022   1.4871259  18.4143802   7.0954914
   1.0702963  19.7251770   6.4637918  40.9888077  24.7649622  57.4406719
  41.6657639  25.3727531  57.1430826  40.4920626  24.5539641  56.6501331
   5.9730285  55.8069420  43.6409664   6.8203133  56.2502480  43.6836290
   5.3613651  56.4861870  43.3568478  16.2063348  60.0908422  48.0761623
  16.1349463  59.3329716  47.4958467  17.0738673  60.0083923  48.4721708
  43.0152468  56.0064329  10.3010864  42.8227893  56.6388978   9.6088571
  43.3863846  55.2534784   9.8411436   5.2344366  31.3979360  20.7549257
   5.5744405  30.9094497  20.0052614   5.8766385  31.2491485  21.4489527
  43.1822003  45.8048746   4.8524732  43.7192084  45.6017324   4.0865869
  42.6520116  45.0196001   4.9883575  66.0938151   5.0460073   9.7922153
  65.2759488   4.6580455   9.4810695  66.1603911   4.7647545  10.7047338
  62.8820701  46.0711023   0.7587309  63.6332090  45.5111906   0.9549923
  62.5219114  46.2979147   1.6160984  28.4712410  67.1735191  47.1683550
  28.8126087  67.0658112  46.2806034  27.5660396  67.4587536  47.0439196
  66.6526953  39.5329888  18.2375908  67.0317475  38.7157567  17.9140508
  65.7671181  39.2943318  18.5115027  19.3507548  33.4539100  23.4549017
  20.0601406  32.9313537  23.0808039  19.5614643  34.3546840  23.2090540
  70.2446333  32.2536214  43.0148888  71.0776058  32.6309235  43.2977819
  70.3831974  32.0301659  42.0945072   3.5425715  16.5746625  52.9839182
   4.3947271  16.9693501  53.1690788   3.5440306  15.7571061  53.4817457
  29.7254773  29.6103212  22.8326292  29.4480915  28.9207908  23.4358187
  28.9383717  30.1366064  22.6922102  38.9649164   6.8324332  14.2637415
  38.7177169   5.9787611  14.6192236  38.1456506   7.2002940  13.9325208
  21.5770550  17.1775695   4.2563886  20.6939335  17.3939630   4.5555610
  22.0647307  16.9972440   5.0600595  74.0670164   1.6112301  10.7817573
  74.1682060   2.5622698  10.7428236  74.9595626   1.2723729  10.7127018
  64.5057932  10.7603677  54.6528435  64.0933768  11.0616811  55.4623795
  63.9685241  10.0197823  54.3715858  42.5158167  62.8626537  58.9597654
  42.2720814  63.6614418  58.4920454  42.4057531  63.0835867  59.8845959
  52.0153666  69.0810633  46.5130091  52.7400637  69.3665409  45.9566355
  51.6457605  68.3255768  46.0559988  29.7607923  68.9479685  28.2495046
  29.9192047  68.0675364  28.5900569  28.8621998  68.9195871  27.9209304
  68.1507619   5.7960817  46.7921228  67.6219506   5.2419731  47.3661871
  68.1302650   5.3514454  45.9447069  35.9480739  63.6569595  38.1913328
  36.1939263  63.3570194  37.3162222  36.3715172  63.0367470  38.7848520
  12.9806562  21.1428281  13.1885977  13.7895294  20.7324669  12.8827209
  13.1647869  22.0818588  13.1652422  38.7428451  59.0647411  25.5473638
  38.2684398  59.8003864  25.9346557  38.2372117  58.8379049  24.7669077
  67.4625821  57.2471735   4.8969478  67.3721845  58.0580064   4.3963356
  67.2165759  57.4883768   5.7899971  18.7569737  61.9941664  61.2196445
  18.8615668  62.8193760  60.7460213  18.0727041  61.5276146  60.7397079
  32.2584792  13.7877962   9.9637766  32.9858084  13.6932394  10.5788202
  31.8464442  14.6171877  10.2057905  60.8938133  19.6851540  59.9938965
  60.0649500  19.8206425  59.5346975  61.5222120  19.4855595  59.2999840
  29.7205261  14.4918855  51.3795996  29.4978527  13.7301476  51.9147778
  30.2701096  14.1401513  50.6792545  30.6256652  69.1023397  43.3605099
  30.7336688  70.0443792  43.2296610  31.2979293  68.8709164  44.0013981
   7.0789272  48.8185453  20.2524662   7.6861137  48.1268883  20.5154586
   6.7411858  48.5309935  19.4042456   4.3697695   5.5130608  36.9925666
   4.8692803   6.1598094  37.4909973   5.0335459   5.0070555  36.5239596
  45.9885788  63.9510918   9.9967521  46.8203974  63.6453009  10.3584146
  45.5998564  64.4733286  10.6984591   8.1200033  58.3655596  40.6803608
   8.8851821  58.9404058  40.6973362   7.6722062  58.5383463  41.5085268
  12.3259206  66.6107103   9.1552563  11.5532036  66.3133356   9.6355839
  13.0655165  66.2517091   9.6455116  38.9726877  55.1398563  48.5086107
  38.9822149  55.0503635  49.4615698  38.6186647  54.3082333  48.1934786
  50.7379055  59.7018337  50.2564096  50.8310890  58.7538004  50.1627254
  51.5383005  59.9782324  50.7027292   5.6510516  28.2191250   3.7283583
   5.4917283  29.0090105   3.2117100   6.2081142  27.6763174   3.1704397
  19.2290850  56.2277433   3.8180752  19.2395754  55.8756563   4.7081013
  18.8286372  57.0925638   3.9073248  57.1161119  33.3476098  55.1056480
  57.2505060  32.8334267  54.3095398  57.0236198  34.2486317  54.7960711
  14.2555296  67.5937223  45.4000711  13.4978008  68.0662823  45.0554466
  14.0094483  67.3682451  46.2971973  35.7413602  56.8979979  49.0672064
  36.0903764  57.3368549  49.8429823  35.7247305  55.9706402  49.3037701
  63.7571581  29.3466875  17.7236433  63.7301870  29.0802690  16.8046589
  62.8447600  29.5315906  17.9462881  21.1684342  54.0761682  16.9136734
  21.9862004  54.0070554  17.4063272  20.4962750  54.2072698  17.5824375
  34.1584682  50.3702164  49.6113205  34.2000222  50.6520271  50.5251503
  33.2244325  50.3730726  49.4020319   9.1877418  20.4854540   9.4569464
   9.1221523  21.3516764   9.0549774  10.0454747  20.4828886   9.8818226
   0.4438595  67.5494528  41.3563061  -0.3455632  67.5870180  41.8963385
   0.9896992  68.2661247  41.6798353  60.3580061  15.7031567  40.6775713
  59.4563857  15.9118398  40.4331017  60.8946697  16.1963303  40.0570822
  36.8726750  48.2182523   9.1322918  36.1574383  48.2037660   9.7682638
  36.6840573  47.4878999   8.5430307  18.5538025  27.0298216  10.6846351
  19.2440434  27.0555565  10.0219602  18.0378981  26.2545797  10.4631252
  38.2294960  65.7547495  13.1147260  37.6769467  66.4265844  12.7152843
  37.9230090  65.6995699  14.0198536  65.0232998   5.2880318  40.3342915
  65.5266205   6.0134776  39.9646688  64.3094674   5.7106097  40.8118916
  36.3224097   9.7996065  22.2009535  35.6351395  10.4583284  22.1010465
  36.8890877  10.1472541  22.8896112  45.8268757  64.0652010   6.8412657
  46.7557640  63.9421579   6.6456623  45.7822724  64.0717527   7.7974052
   6.0208197  41.8953630   7.0937652   6.8659850  41.9393131   6.6465635
   6.0769124  41.1078855   7.6350326   1.2858386  21.6687223  12.7440758
   1.4710422  22.5220701  13.1361599   1.9901987  21.1023685  13.0592747
   4.8489718  22.4265225  48.0313253   4.3186144  22.2602589  47.2520208
   5.1366476  21.5587170  48.3148718   1.9039245  29.0295669  14.3822498
   1.6332598  28.1117365  14.4059200   1.4416976  29.3962261  13.6284990
  54.7772026  63.7247086  36.5763307  54.2545176  63.5735512  37.3638487
  55.6735325  63.8200045  36.8984127  48.0851527  33.1004354  10.2180452
  48.6143132  32.8915903   9.4482393  47.2136135  33.2834551   9.8671121
  37.6472930  21.3829072  48.0076170  38.5792772  21.3926060  48.2256603
  37.6149896  21.0552819  47.1088123   6.3858052  26.1178562  16.5178604
   5.5214210  26.3152906  16.8785448   6.9862385  26.6695758  17.0191736
  50.0545311  70.4098082  47.7968693  49.6773481  69.8173761  48.4472466
  50.6613398  69.8628330  47.2980404  37.2933364  60.4493952  60.2064610
  37.2177887  61.1704969  60.8313894  36.5755224  60.5911207  59.5892954
  47.4832392  70.1044941  25.0093150  47.8775883  70.9657478  25.1469994
  48.2094669  69.5519924  24.7202277  70.9264771   5.1623709  45.5264664
  70.5403248   5.1464637  46.4021730  70.1780573   5.2502950  44.9362373
  32.9901810  67.4855444  26.3846464  33.2878418  67.6654646  27.2764273
  32.6448651  68.3224794  26.0739679  59.2759265   7.2973177  35.4913778
  58.5344352   7.9011699  35.4491491  59.6673943   7.3373195  34.6188040
  37.2242264  34.0013821  53.9687824  37.0872370  34.2741616  53.0615616
  36.3663355  34.1019471  54.3812656  16.2479544  64.0194464  42.6755619
  15.6346881  64.2673540  41.9836998  16.4305389  63.0939102  42.5134516
   2.2809509  12.7424271  57.7893019   2.8745274  13.4577687  58.0177402
   1.5160183  13.1770737  57.4122238   9.8881574   0.2743575  13.0764408
   9.7753926   0.8588931  12.3268862  10.5931874   0.6726619  13.5868521
   3.4654478   9.1769250  45.6438875   3.8764433  10.0142224  45.4288149
   2.5590233   9.2729790  45.3516531  45.9745999  44.7248813  14.2144031
  45.7176562  43.8460704  13.9353008  45.5780240  45.3074285  13.5666437
  14.3614073  31.1558124   4.1688843  14.0555044  31.7034218   4.8919220
  13.5830017  30.6760046   3.8858719   2.7312998  33.7351258  49.6942711
   3.0033020  34.3338807  50.3897810   2.4798969  32.9335244  50.1530457
  57.2568861   9.7990544  47.0636368  57.4844567   9.7939427  47.9933739
  58.0425469  10.1275761  46.6265488  32.9551716  26.2742922   3.5115022
  32.2221632  26.6396686   4.0069122  32.6533003  26.2728473   2.6031513
  41.6168070  65.5818415  46.3225222  41.0385799  64.8459387  46.1216831
  41.0563040  66.2091541  46.7791843  67.4816175  28.0627319  26.8542070
  66.7828782  28.6623975  27.1157236  67.7107306  28.3349201  25.9655828
  74.0543683   6.9757339   8.5596723  73.9545066   6.0239860   8.5804910
  73.2820518   7.3076650   9.0174742  68.4824915  25.3998300  32.7704592
  68.3996601  24.7253200  33.4445638  67.6150389  25.8020755  32.7262659
   7.3917742  68.1814024   8.6623068   8.2482667  68.0647298   9.0734501
   7.1110721  67.2942754   8.4377069  40.1299143  69.7280931  44.5139170
  39.2834926  69.5709324  44.9323702  40.3306246  68.9075041  44.0638304
  26.0387731  63.4594488  32.6289511  25.3042626  62.8885889  32.4034643
  25.6554031  64.1319180  33.1920171   2.0325808   5.7787545  57.4294281
   1.0822920   5.8771880  57.4885321   2.3505835   5.9931548  58.3064318
  61.9210998  22.3142178  28.7835717  61.9526163  21.8145783  29.5994139
  62.1481744  23.2077534  29.0410042  73.7888447   1.9264491  25.5303478
  73.6447159   2.1560796  26.4483500  74.4923512   2.5095542  25.2452040
  42.2225829   1.9887492   2.1926184  42.8298541   2.3311421   1.5367098
  41.3688775   2.0045325   1.7599840  73.7683026  42.8545220  40.4399109
  73.0111805  43.1019624  40.9707355  73.8826720  43.5841782  39.8310161
  12.5655794  70.3752995  37.8664398  11.8874931  70.9205770  38.2653213
  12.8414464  69.7849846  38.5676193  39.9674082  36.2930226  53.5060167
  40.4714870  37.0090508  53.8925982  39.1386771  36.6960311  53.2471275
  42.0366164  16.3860342   4.2211504  41.2699719  15.9395000   4.5804472
  42.7086850  16.2883636   4.8956985   0.3143124  32.6861699  20.7504058
   1.1217360  32.7498086  21.2605500  -0.1992794  32.0136197  21.1977744
  57.3130838   2.8234275  45.0094795  58.0074326   3.3076270  44.5626450
  57.6987640   2.5710614  45.8484030  22.6386642  48.9966345  58.9507771
  23.4150934  48.5965776  59.3423700  22.7413106  49.9333668  59.1187811
  32.2945280  59.7329160  19.1184206  31.4829941  59.2313787  19.1966314
  32.9486485  59.2025587  19.5734854  50.2900410  61.7595959  57.2854233
  50.8575869  62.0330143  56.5647554  49.6668530  61.1545372  56.8832111
  14.0058537  48.5091707   9.9819202  14.8049946  48.8513204   9.5812483
  13.5797568  48.0145570   9.2818947   6.0554405  39.1409942   7.6736469
   5.7131954  38.9383003   8.5442848   7.0052405  39.1666052   7.7896471
  18.8660387   8.4413369  49.0147591  18.6668734   9.1682847  49.6047640
  18.1629566   8.4602912  48.3654928  52.5710058  69.0505409  17.5805807
  52.7122402  69.4946718  16.7445004  52.8511667  68.1488943  17.4231565
   1.8694405   8.8710625  24.8978424   1.8743757   8.9464362  25.8520579
   2.3571877   8.0672057  24.7185540  70.1098744   4.9590428  21.8950486
  70.7707516   4.3737634  21.5250230  70.6004301   5.7370456  22.1601892
  23.4104208  25.4530080  21.6099620  22.6669125  26.0463078  21.5030861
  23.0131201  24.6019872  21.7947793  43.9149189  69.9900866  35.2069950
  43.0198574  69.8066139  35.4923630  44.0528059  69.4065189  34.4608951
  16.2037726  28.8529417   4.5996542  15.5600377  28.1517526   4.7005052
  15.6812163  29.6539470   4.5600767   8.2987074   1.7058499  48.4699249
   8.6091999   0.9963305  49.0324259   8.9716295   2.3825057  48.5444164
   2.3494315  27.9432539  27.5998659   2.3682665  27.9988055  28.5552664
   1.7333292  28.6252455  27.3323889  60.0289483  44.5157072  10.1586742
  59.9117763  43.8613817   9.4699306  60.7465739  44.1752884  10.6928654
  70.4573647  27.1036275  34.0678835  69.8294226  26.9274552  33.3672547
  70.0023714  26.8425591  34.8685431  49.8499457  11.6092141  36.7031765
  49.0892021  11.4446004  37.2603130  49.4790617  11.7999776  35.8416152
  73.1001122  14.7466203  14.7075195  72.8256638  15.0566074  15.5705471
  72.5164349  14.0114233  14.5203323   4.2065767  37.1713383  57.8850651
   3.6437801  37.2443993  58.6558771   4.9238161  37.7824624  58.0533886
  26.2993689  30.8631870  28.8587923  26.6428109  31.0152170  27.9783506
  25.3669329  31.0685798  28.7909193   4.6850152  20.4094574   1.2051124
   5.0963254  19.5477745   1.2726707   4.5523138  20.5385467   0.2659864
  73.2234637   4.3253072  22.1188974  74.0962855   4.3012507  21.7266798
  73.0607144   5.2539571  22.2842860  49.1900349  63.6310768  20.6399584
  49.3183899  64.3213463  19.9893486  48.2494211  63.6408234  20.8171105
  12.7203834  45.2415276  53.5277319  11.8520534  45.4049349  53.8958693
  12.6021087  45.3387165  52.5828505  48.4783641  36.8578275  48.5933685
  48.2325617  37.7619012  48.3972454  48.6633126  36.8582661  49.5325327
  52.1378461  13.6396058  32.9171944  52.9691974  13.8449796  32.4895120
  52.2898976  12.7963860  33.3439016  17.2015305  45.6354448   6.7700548
  17.9866429  46.1827490   6.7871828  17.1142455  45.3137037   7.6673240
  34.7244711  33.0920240   4.1426153  34.9939890  32.7095243   3.3075828
  34.1741534  32.4212095   4.5468254  72.0928398  22.2521146  45.2589512
  72.5440995  21.7053540  44.6157885  72.6542631  22.2234471  46.0336876
  17.1196576  45.6469747  12.4213714  16.3116379  45.1365015  12.4738283
  17.6736565  45.2905389  13.1158275  23.2471994  43.0052502  30.7864308
  24.0192179  42.8300507  31.3245058  22.9216293  43.8482697  31.1019611
   6.3255982  19.9886449  48.0492353   7.0456890  19.5776208  47.5709534
   5.7371048  19.2650445  48.2644176  58.9817373  14.6577771  29.0362024
  59.4687978  15.0002797  28.2867360  58.4248582  13.9723714  28.6669707
  24.7615405  27.4466678  13.0298872  24.7349568  26.8178627  13.7510891
  23.9777775  27.9827615  13.1505222  57.7310983  34.8781331  49.0476561
  58.3298317  35.3714211  48.4869337  57.0518581  34.5611317  48.4523582
  18.6467381  34.5849678   1.2992878  18.0832930  35.0045749   1.9494362
  18.8458271  33.7266037   1.6731853  30.6129904  47.4109670   7.2994776
  30.0340720  48.0998727   7.6258011  30.9981175  47.0283720   8.0878515
  61.4314938  51.6472149  53.5382938  60.6285715  51.1904335  53.7890863
  61.6223764  51.3291216  52.6559019  16.8376751  39.2804119  15.8005400
  16.0453864  39.6278974  15.3909464  16.5158768  38.6999532  16.4902849
  67.3458052  59.7183895  35.8767843  67.9202223  60.4195070  36.1845279
  67.0712900  59.9994326  35.0039220   3.2547510  67.1661663  41.5622902
   3.2536495  67.7555990  42.3164749   2.3320616  67.0839357  41.3212252
  66.8861409  46.2746545   3.2254524  66.5413685  47.1513101   3.3952923
  66.2261410  45.8614275   2.6687832  54.3078033  20.9475167  44.2610216
  54.5621363  20.5667527  43.4204435  54.7768847  21.7810757  44.2981100
  24.7552113   1.3731511  51.6907883  24.3989376   2.1868689  52.0473862
  25.1413254   0.9295066  52.4459934  63.5825396  55.2761793  54.2167139
  63.7557554  56.0908842  54.6883917  64.4302511  55.0281143  53.8478231
   4.1768737  48.6592790   5.8051128   4.3895502  49.4844076   6.2411995
   4.6089621  48.7203237   4.9531669  62.6194850  33.8885434  39.9533224
  62.8633205  33.2899125  40.6593037  63.2136337  33.6676724  39.2360830
   9.9064863  56.2475348  58.8880014  10.7927370  56.0136652  59.1638565
   9.4327748  55.4158974  58.8737535  62.4911634   3.2766898  28.0957341
  62.5709907   4.0118439  27.4879479  63.3866779   3.1114037  28.3906388
  55.7903115  30.3380235  59.0537548  56.6153280  30.2711518  58.5730171
  55.4665057  29.4384511  59.1000843  25.5216380  15.8389446   3.7426443
  24.6931000  15.3757831   3.8660736  25.2674742  16.7508384   3.6009378
  39.3419528  64.5096445  24.6993566  39.2198586  64.3946838  25.6417513
  38.8087845  63.8205719  24.3029451  14.5741037   4.0933926  59.2423773
  14.1294149   4.9100716  59.0153933  13.8767723   3.4379180  59.2601776
  17.0968346  15.6418259  54.0324926  17.2487644  15.5015977  54.9670982
  16.1727671  15.8845074  53.9738226  49.1684882   4.7967084  60.5008650
  48.2579175   5.0213368  60.3094625  49.6793715   5.4874499  60.0788403
  24.6497158   6.4899953  52.3082829  24.2821364   7.2477896  51.8534565
  24.2685703   6.5290578  53.1854582  36.3207916  17.7001317  47.1897125
  36.1377815  16.7606862  47.1761036  35.7465748  18.0461343  47.8729248
   0.6374586  38.0913997  58.2489157   0.5197609  37.3891187  58.8885880
   0.3755844  38.8857365  58.7144136  36.2326932  51.8651390  55.7157803
  36.8518782  51.4677095  55.1034927  36.1374092  51.2175512  56.4141941
  71.1835654  30.2444193  45.3854532  72.0184047  29.8967716  45.0717325
  70.8133681  30.6981632  44.6282835  61.9914150  60.7100105  22.6867986
  61.1784077  61.1169672  22.9861927  62.0095253  59.8597097  23.1260014
  64.3829107  51.9627094  17.8434598  64.0670967  52.5323248  18.5449088
  65.2869701  52.2412586  17.6974535  13.4983631  41.0637352  29.1148252
  13.3369203  41.9785329  28.8839311  14.3233104  40.8488342  28.6795015
   6.2317232  25.1230271  39.3263745   5.7650189  25.6263287  38.6592102
   5.7632403  25.3111298  40.1396275  21.2937883  30.3195031   6.4843893
  20.4010872  30.4922231   6.7835253  21.5563683  31.1239941   6.0370886
  70.8259583  69.9012375  44.4541311  70.6230450  70.8338737  44.5265913
  71.6486073  69.7972488  44.9323225  26.2477402  10.7457192  44.1451836
  27.2015099  10.7481988  44.2260981  25.9331040  10.5451901  45.0266790
  30.6166335  36.7728588   4.8340483  30.9410925  36.6337606   5.7237739
  29.7222062  37.0925256   4.9525184  27.5376769  43.0207988   7.7273149
  27.6228257  43.5684272   8.5077543  26.8711396  42.3743698   7.9598684
  10.0316607  10.4896025  18.7744303  10.5701839  10.3430132  17.9967851
   9.7735303  11.4095549  18.7170715  64.6539481  27.3696109   2.3003692
  64.6446700  27.3482677   3.2572861  65.1162274  26.5705129   2.0474453
   6.2970976  14.6675618  53.0126572   7.2315697  14.6251710  52.8096867
   5.8662037  14.3236001  52.2301865  10.4620715  64.8261663  19.5374746
   9.7879548  65.2555391  20.0642080  11.1982198  64.7108862  20.1383371
  73.8143587  57.6790428  49.6119070  74.2250299  58.1032848  48.8585138
  73.8061953  58.3531904  50.2913857  40.1619612   2.9610877  33.6186952
  40.7544505   2.4579291  34.1772814  39.5340764   3.3519511  34.2263288
  69.7720400  31.9295152  61.2365103  69.5381371  31.0045941  61.1587238
  70.2676932  32.1190388  60.4398680  37.6588555  51.7155477  19.5110388
  38.0376215  52.0315191  20.3313608  36.8680592  51.2465498  19.7773428
  43.2853547  27.1882851  49.0903997  42.9146675  28.0703290  49.0617943
  42.7196995  26.7103131  49.6968746  41.0644579  53.5965014  35.2498102
  40.9844255  53.1774187  34.3929601  42.0060015  53.6128569  35.4214334
  11.6167883   4.7769959  42.9460239  11.6434483   4.6578725  43.8954067
  11.7094330   5.7213910  42.8204346  24.1728500  13.6920007  58.1165123
  24.6069960  12.8452714  58.2204151  24.0987305  14.0340836  59.0074205
  57.4185705  60.1991606  44.1407156  57.9343414  60.8557463  44.6088028
  57.3669052  59.4592333  44.7457504   7.4409855  60.4977942  27.6442957
   7.8038967  59.7507572  28.1201768   7.1744621  60.1366425  26.7988563
  59.8588172  19.0938599  40.7702637  60.3011195  19.7483094  40.2296066
  59.9675289  19.4108136  41.6668987  73.3835236   8.4252246  31.3304710
  74.2540327   8.2968791  31.7072630  72.9376618   9.0037377  31.9491529
  21.0539059  15.3562100  43.5498476  20.9602264  16.3032372  43.4469461
  21.5556625  15.2516015  44.3582582  11.2212956  60.8998728  25.8071184
  11.2275934  61.6054344  25.1603007  10.8153498  61.2887812  26.5818381
  51.1761013  26.7922623  52.1365833  50.6593338  27.5714524  52.3416471
  51.1736432  26.7480405  51.1804104  28.4181757  54.3725988   2.1991415
  28.6561604  55.0653860   2.8152866  27.5951691  54.6696111   1.8109722
  34.1235991  54.5750448  17.0048971  34.2391594  53.7579843  16.5198345
  34.8584945  54.5956728  17.6178713  19.5755930  39.0247509   1.8946237
  20.4339619  39.4465658   1.9334526  18.9554806  39.7241661   2.1008081
  60.8483402  12.3848088  50.8993149  60.8655206  12.5140221  49.9510288
  61.7047445  12.0102914  51.1055613  51.9632212  19.7528489  48.8037014
  52.1743647  20.1782639  47.9726362  52.5128189  20.1993497  49.4477606
  70.2364079  48.8825257  45.2953100  69.9009768  49.0483697  44.4142818
  71.0043303  49.4490750  45.3698111  62.1349764  67.3836946  57.8205442
  61.6998911  67.0558453  57.0334959  61.4192200  67.6664877  58.3897114
  15.8134131   2.7998383  41.1902714  16.1231379   3.3740695  41.8906736
  15.0846676   2.3174317  41.5807199  54.1285610  58.7053776  40.5453348
  53.8868332  59.1939020  39.7584796  55.0465202  58.4708309  40.4090738
  27.1904011  20.3132698  17.4322481  27.8059216  19.6919796  17.0431967
  26.8614359  19.8675510  18.2128544  56.0382763  27.5761922  59.0736723
  56.3001577  27.1316178  58.2674408  56.8184129  27.5469907  59.6275377
  16.3582075  69.8193169  30.4582977  16.8758392  70.1353550  29.7177505
  16.0505784  70.6150150  30.8924246  23.6002083  40.6463215  14.6295852
  23.0904885  40.5278942  15.4310818  24.1604968  39.8714945  14.5853824
  42.0343975   8.2649072   6.6670495  41.2801639   8.2281764   6.0788196
  42.4902192   7.4354298   6.5241361  71.9129196   8.0617364  26.8652034
  70.9881846   8.1011088  27.1092176  72.2909275   8.8623507  27.2290134
  64.9635131  68.4429666  37.2313757  65.1554091  68.0431101  38.0796213
  65.2134211  69.3608781  37.3372621  61.2111425  63.2201004  55.2924156
  60.2864075  63.4538412  55.3728056  61.2104988  62.2669411  55.2045584
  19.0409537  60.7899210   5.8636875  18.4313555  61.3220236   5.3523321
  18.4872647  60.3336641   6.4973230  50.7755232  54.0491438  23.7155628
  51.0949898  53.4299517  24.3718958  51.5421629  54.5761776  23.4903097
  67.2719145  58.4303856  57.9210520  67.1378660  57.4940920  58.0680799
  67.9028749  58.4720707  57.2024536  29.7959729  23.7885496   7.0621509
  30.3024359  24.0136739   6.2817354  30.1441498  22.9404089   7.3372192
  35.4391594  33.3449432  12.2701855  36.3655062  33.2209894  12.0634241
  35.0492783  33.6483547  11.4503307  15.7512497   1.6089587  18.2056827
  15.5867862   1.8384890  19.1202898  15.7402789   2.4467234  17.7427978
  63.6640374   5.9016927  56.3958454  64.2910425   5.2331717  56.6718435
  63.4342352   5.6588204  55.4989433  10.2422480   8.1487401  38.8677692
   9.9624876   9.0630276  38.8225555  11.0725359   8.1755622  39.3433070
  71.9048277   3.9449580  52.5241280  72.4020258   4.1257985  53.3218241
  72.4970309   4.1880687  51.8124914  14.4621940  52.7031633   3.8727779
  15.0247498  53.3488199   4.3004436  14.4874306  51.9420072   4.4526405
  44.0009979  11.5053017  56.7128992  43.6288361  11.2527688  55.8679438
  44.7267346  12.0883782  56.4903069  31.2390518  61.2732077  48.4795237
  30.8430910  60.4247332  48.6783791  31.2353230  61.3210917  47.5235271
  63.7433373   2.3126273  14.1444750  63.5559737   3.2369570  14.3079967
  62.9085385   1.8688826  14.2942591  20.6880335   1.9528420  44.8727179
  20.2908043   2.5361569  45.5193901  21.2102989   2.5314315  44.3171024
  57.0164028   6.1533912  58.1437778  56.3592378   6.6955455  57.7073908
  57.7934114   6.2262471  57.5895405  42.0349693  69.6529150  40.2184582
  42.4953651  68.9742899  40.7121611  42.7309084  70.1509094  39.7896242
  68.5500765  66.0543203  51.1486530  69.1826200  66.1091948  51.8649673
  68.3053350  66.9632816  50.9750843  36.6343522  48.2189894  59.0342569
  37.3538780  47.7874470  59.4950008  36.4585567  47.6538944  58.2819271
   3.7369621  60.8072567  34.1910100   4.5118749  60.2714872  34.3604064
   4.0473783  61.4996529  33.6075234  11.7783169   9.6371396   5.9795803
  12.5774006   9.7953637   6.4822334  11.3137631  10.4738362   5.9986240
  48.5282373  66.9009686  37.5540853  48.7180567  67.7148438  38.0207872
  48.3792925  67.1732521  36.6485977  62.2249595   7.9190190  57.2446537
  61.5595619   7.6895125  57.8933430  62.6705042   7.0930941  57.0560408
   2.0056792  52.0761701  20.2083750   2.0977946  51.5231058  20.9841795
   1.5251036  52.8441450  20.5174036  28.6699700  58.3398771  59.3867254
  29.0058923  57.4539661  59.2505550  28.0185866  58.2448578  60.0816393
  67.0269076  17.7580960  28.9489698  66.4539400  18.2852967  28.3922005
  67.0486609  16.8998463  28.5256839  56.6272004  38.6924001  10.9976454
  55.8871104  38.1222746  10.7891769  56.9020052  39.0469858  10.1520796
  37.2417617  69.0796900  45.7143831  36.7140341  68.3517218  45.3860569
  36.7884851  69.8633862  45.4035997  63.0755854  36.2022972  58.6484098
  63.5797930  35.4635882  58.9894581  62.1629715  35.9670186  58.8157940
   5.0088266  30.7309563  29.8517966   4.3550400  30.5618890  30.5301881
   5.8394960  30.7750256  30.3253746  73.3182819  37.7476808  21.1560411
  72.5716598  37.8922435  20.5747576  74.0786059  38.0175993  20.6409807
   7.1980710  46.8957540   5.0482578   6.6858049  46.9888803   4.2450495
   7.5977178  46.0287973   4.9782915  20.9757380   8.5969289  36.0285521
  20.2528957   8.1985076  35.5437922  21.5925793   7.8791173  36.1716580
  53.5299773  59.9668237   0.8356829  53.6568405  60.2168199  -0.0795441
  52.7279346  60.4184362   1.0983677  19.0974812   1.6825660  40.1404953
  20.0120548   1.9622739  40.1010990  18.7181334   2.2030385  40.8486176
  23.2707934  14.2750676  34.3966389  23.3677630  13.4554799  34.8815107
  24.0158896  14.2875417  33.7958837  49.4460344  59.4564724  12.0280254
  49.6354532  58.8463116  12.7408075  50.3064013  59.7552538  11.7335117
  10.6534381  57.8834554   0.4655380  11.2716861  57.3037454   0.0206346
  10.7641335  57.6836034   1.3950748  60.2844516   2.5214322  48.8604021
  60.2478520   2.0664151  48.0190611  59.4772283   3.0349763  48.8902760
  59.4792004  28.5227701   7.9003496  58.7029000  28.9741632   7.5689382
  59.3323250  27.6023361   7.6825018  48.9364210  18.9027150  16.1409557
  48.2689253  19.5338280  16.4099729  48.9108936  18.2246621  16.8161070
  54.4191094   6.6475174   8.8698168  54.7083493   7.4427339   9.3172569
  54.9531050   5.9505245   9.2509765  47.0402924   7.8426631   7.2540706
  47.3769203   8.7371190   7.2005355  47.5058762   7.3698409   6.5642160
  38.9104716   2.6072247  54.0685129  38.7983087   3.4892543  53.7139988
  38.9799157   2.0457871  53.2963800   4.9989847  17.0665486  29.8715830
   5.6112627  17.2474702  30.5847573   4.1637615  17.4202092  30.1774573
   5.0521167  55.5220597  19.9309146   4.8700246  55.8925252  19.0672994
   5.9913906  55.6572239  20.0563192  19.3899642  22.5459555  50.8406918
  20.3143220  22.3690096  50.6660931  19.1289411  21.8656078  51.4613568
  11.0341692  29.3146873  31.3678527  11.4399326  30.1018524  31.7311120
  10.2096510  29.2277002  31.8462157  24.6096015   2.7877495  32.2618103
  25.4676127   2.6910409  31.8486595  24.5375133   2.0314172  32.8440452
  13.0207443   5.9384215   4.8347405  12.8510463   6.6215909   4.1861156
  12.1881580   5.4732072   4.9160331  20.6885910   0.6298336  23.6013961
  20.2948570   1.3323717  24.1187406  21.5178227   0.9952787  23.2930851
  64.4244023  69.9008922  17.4045575  64.8581835  70.6947839  17.7172899
  63.4900244  70.0838948  17.5029492   9.5589101  11.7955089  58.5151243
  10.3569949  11.3121581  58.7288141   9.8674881  12.5753927  58.0538273
  52.9718288  56.0020570  25.4559755  53.1177922  56.0671322  26.3997412
  53.8360586  55.8086984  25.0927258  42.0020702  12.8978454  58.3635240
  42.4407335  12.1716653  57.9202794  41.1199995  12.9075395  57.9919206
  17.8804541  15.8815992  19.9837756  17.1725130  16.4928591  20.1872802
  17.7980411  15.1918423  20.6423163  43.3007669  12.2211409   7.0638263
  43.5268784  11.7614794   6.2552369  43.6233759  11.6509521   7.7617085
  27.8816509   7.6937163  31.3356495  28.2877064   7.9880381  32.1509552
  27.7919817   6.7465699  31.4410257   5.0498527  36.3559747  15.7537794
   5.7232863  36.4921808  16.4202380   5.2336872  35.4849315  15.4020405
  70.7496650   3.8573715  10.2688141  71.0453375   3.2192299   9.6195192
  69.8523553   3.5936138  10.4725237  54.0632426  26.0016036  51.1240911
  53.1424176  25.8812213  50.8921003  54.0680730  26.7705393  51.6941357
  52.5622003  61.2445436  35.6853509  52.9720860  61.4414202  34.8430538
  52.1374024  62.0629869  35.9421182  73.3617153   2.0574118   4.3019110
  72.8451612   2.8575268   4.3979299  74.0535821   2.1387672   4.9583662
   7.1189296  28.2334352  49.3147564   6.7123145  28.8296914  48.6859703
   6.3905531  27.7187586  49.6623325  17.1490383   3.2568663  58.6240387
  16.2852538   3.5524416  58.9116955  17.0428002   2.3176274  58.4731245
  72.8637429  62.1263061  59.2425871  72.7795168  61.9469671  58.3061171
  72.0128294  62.4844925  59.4953346  35.0843171  23.1234671   0.9281607
  34.9768416  22.3023917   1.4082784  34.9407629  23.8052667   1.5844936
  11.2725532  15.5355620  27.4680042  10.4712605  15.1021755  27.1741700
  11.5733135  16.0268056  26.7035055  21.4043617   8.8901901  24.4224787
  21.8057299   8.4773082  23.6578441  21.7340088   9.7887516  24.4101453
  64.2674362  11.8544376  41.9847298  63.7026369  12.5128329  41.5800714
  65.0575393  12.3353839  42.2310162  66.9989794   9.2689419  41.0281944
  66.7888909   8.5687345  40.4102945  66.2679934   9.2703491  41.6461706
  43.1961246  60.4409759  24.7438025  43.5640582  61.3242684  24.7183061
  42.3059513  60.5424969  24.4068813  57.3453792  67.0742564  37.3988199
  57.2736629  68.0005349  37.6292467  58.1269153  66.7721404  37.8615928
  20.7141089  15.8910894  22.0049214  20.7829452  15.8003128  22.9553199
  20.8485627  16.8248904  21.8431497  18.4442115   7.2888100  56.3274097
  18.0232346   6.4547777  56.5357399  18.3630359   7.3672390  55.3768921
  60.2014446  14.2749369  57.7095222  60.5892134  15.1369691  57.5586414
  59.9115038  14.2990208  58.6214399  14.6373757  59.6069925  50.7467270
  15.2411016  59.6444277  50.0048733  13.9919575  58.9456503  50.4971457
  16.7715728   6.3249969  17.1593666  16.1699903   5.9023851  17.7723348
  17.4164021   5.6486881  16.9519186  13.9150906  26.1486292  43.4201241
  13.1393623  25.5888653  43.4538889  14.3263555  25.9376979  42.5819063
   5.5372673  35.6909060  51.5464735   5.3900111  36.3438582  52.2307253
   5.0212342  34.9336267  51.8230009   6.7977448   1.2306997  26.8833895
   6.4479204   2.1117756  26.7508669   6.1940976   0.6594011  26.4085646
  13.5805941   9.4697046  24.5438313  13.6412382   9.6429396  25.4832697
  14.2167771   8.7718242  24.3874145  15.6136346  32.6688910  31.6266799
  15.0508440  32.5515294  32.3920059  16.3674688  33.1579804  31.9564605
  62.4513983  13.1807888  12.9191673  63.0956721  13.5627973  12.3231697
  62.9239177  13.0711508  13.7443554  18.7689003  61.0638885  23.5579228
  18.2190593  61.1953275  24.3303394  19.5923647  61.5020625  23.7727308
  10.3163012  56.2907855  28.3129096  10.7797774  55.4962938  28.5778737
  10.9739217  56.8078224  27.8476787  52.9780256   8.5986024  37.6999664
  52.3134315   8.6386687  37.0122600  52.8785455   7.7251118  38.0785823
  31.4224648  15.1032019  41.9512844  31.8104982  14.7438133  41.1534739
  31.8561149  15.9484017  42.0688248  29.3595338   9.5920569  48.3980656
  30.2222085   9.7860950  48.0314970  29.5303702   9.3880594  49.3175411
  73.4160381   5.8322710  47.0838737  74.1049989   5.2344924  46.7936563
  72.7121743   5.7142442  46.4460039  30.1082492  31.6899872  58.9281559
  30.1682019  32.6403713  59.0251541  30.5957603  31.3418078  59.6747017
  26.7916448  14.5503630  20.5323000  27.5098375  13.9849748  20.8164949
  26.4009703  14.8686661  21.3461084  30.5190078  39.6029295  17.4363298
  30.9975360  40.1510806  18.0582399  31.1666611  39.3766166  16.7688246
  72.1836110  67.6275991  40.2795792  72.2667452  67.4696131  41.2199831
  72.8432461  68.2946825  40.0895452  18.0846772  41.5763296   2.6793976
  18.8242296  42.1162875   2.9582138  17.6583139  42.0899524   1.9933672
  55.5532034  57.3076014  26.6993713  56.4610227  57.5593369  26.5298867
  55.0409838  58.0773895  26.4518094   4.5622830  51.7782928  14.9876995
   4.8661951  51.5796663  15.8733721   3.8274483  52.3782135  15.1155395
  52.7501146  11.8949164   2.7023954  52.8305332  11.6640629   1.7769403
  51.8079082  11.9832028   2.8462238  25.5741477  20.3918028  43.2016277
  24.6327806  20.2460575  43.1077194  25.7916164  20.0117445  44.0528011
  11.2625551  21.0972667  23.6834025  10.9535253  20.2535558  24.0133810
  12.1860719  20.9507084  23.4787846  72.7077795  32.3656273  13.9401495
  72.6203081  32.9805970  13.2118678  73.6470404  32.3432446  14.1232347
   5.5041045  15.4982197  19.1358912   5.0107503  16.0364461  19.7548783
   4.9260396  14.7588670  18.9476609  66.6441178  44.8376226  26.4954066
  66.9326567  43.9717770  26.7840099  65.8551842  44.6679068  25.9806132
  38.6390928  37.2091828   0.3225870  38.1232921  36.7560831   0.9895820
  39.5016984  36.7965157   0.3656072  57.1770324  64.3537979  38.2152891
  57.2231325  65.2529238  38.5403728  56.8553390  63.8459878  38.9601874
   8.2081151  24.2050529  35.9960508   8.4340763  23.6820436  36.7652297
   8.8628274  23.9630032  35.3410745  32.5192070  16.4825130  18.7035239
  31.9739437  16.7992377  17.9833806  33.1261563  15.8674276  18.2918024
  25.2045998   6.8913296  46.4954846  25.3960653   7.1685413  45.5995338
  25.9225042   7.2514537  47.0162110  21.5550400  43.2884976  56.6980280
  22.0667414  43.8856873  57.2436996  20.7302834  43.1788478  57.1712985
  69.3483671  43.4456532  27.4160528  70.1996084  43.5802810  27.8325820
  68.8168295  43.0207889  28.0892467   0.8300739   4.1341579  47.8353262
   1.0744447   3.4791356  47.1815252   1.2279724   3.8215861  48.6478615
  23.2803226  44.6772575  58.3134222  23.0028677  44.7319937  59.2278910
  23.7067962  45.5168533  58.1418610  59.7878899  64.5690642  16.3300645
  60.3833707  65.2906178  16.5325367  60.2120038  63.7965094  16.7035866
  27.9939198   9.3718624  36.3758922  28.8927841   9.0445948  36.4100885
  27.9252839   9.7944164  35.5197549  14.2704471  63.1127588  20.7765961
  14.4607958  63.2810836  19.8537374  14.9602874  62.5116311  21.0576630
  34.5283405  61.5012697  55.2696454  33.7137727  61.9532946  55.0496798
  35.0451307  61.5336016  54.4645899   3.5856851  65.9448476  38.1070447
   3.3036503  66.7287157  37.6356220   4.4451054  65.7400574  37.7386856
  60.5754486  56.3514222   7.1059246  60.8617822  57.1811403   6.7240686
  59.9593989  55.9935178   6.4666910   3.2510790  65.3356878  52.6721191
   2.3802551  65.2357160  53.0567026   3.7509926  65.8153047  53.3326387
   6.9951614  56.0902660  38.9467239   7.2294387  56.6816001  39.6620369
   7.1119603  56.6146247  38.1544900  55.1590550  13.0546749   4.3619019
  54.4260370  12.9516006   3.7550315  55.6815827  13.7641919   3.9880252
  58.6491408  37.8172390  37.9439616  59.1092374  38.6503069  38.0466270
  59.2698868  37.2565524  37.4786258   2.8749880  68.1055564  36.8393183
   3.6021360  68.5567509  36.4104700   2.2339066  67.9678132  36.1419845
   1.7606045   7.1647131  20.6495762   1.4468704   7.6101118  21.4366102
   1.7647928   7.8442073  19.9754083  20.1286769  22.8001022  43.4982634
  19.4401562  22.4058032  42.9628229  19.6676922  23.4220481  44.0612125
  36.0109282   5.2926970  37.6670218  35.6994581   5.8442885  36.9494104
  35.7920980   5.7837933  38.4589624  56.6011667  40.2193880  56.3231516
  56.6406155  40.3423071  55.3746939  57.2725964  39.5626068  56.5076780
  71.4810916  63.5577898  56.2803173  71.4688583  64.1768114  55.5503178
  70.5942150  63.1984912  56.3045597  61.8089851  64.7775166  10.9815037
  62.5527652  65.1570986  10.5135930  62.1704193  64.0084516  11.4221120
  67.6124398  33.3616786   9.5289869  68.2527939  32.6508294   9.4994087
  66.8217007  32.9880671   9.1399116   4.0564305  24.8696876  18.3372700
   3.2118765  24.5369530  18.0335462   4.0128222  25.8128858  18.1800747
  21.2396034  49.4505160  49.0439892  21.6043457  49.8029129  49.8557854
  20.7222446  48.6947243  49.3221140  56.2012092  39.1169579   1.5817947
  56.0916177  39.8290030   0.9515447  56.1140219  39.5383592   2.4368114
  65.6263435  23.9584804  30.9111285  65.6853592  24.3373394  31.7881775
  65.4878956  24.7098398  30.3344798  54.2582166  15.2618778  43.4867048
  54.2813146  15.0208759  44.4127846  55.1763117  15.3950310  43.2508993
  41.6296687  68.0362116  25.4828787  41.7744215  67.1577750  25.1312709
  41.5009906  67.9002588  26.4215970   2.2661391  15.9567547  17.2784889
   2.9956213  15.3793740  17.5036979   1.5898284  15.7510900  17.9238868
  13.2507622  12.7140677  39.4576669  12.8774083  13.5518765  39.7313714
  14.1344643  12.9312217  39.1607714  72.2071749  28.5454059  17.2606015
  72.5502565  29.3447661  16.8611658  71.3687440  28.8082051  17.6403415
   9.5457017  25.1362705  61.0768032   9.2498106  24.2276502  61.0212374
   9.7387952  25.3810525  60.1717997  52.9616610  48.7655593   4.7249479
  53.4191982  49.4855048   5.1591940  53.6590282  48.1721891   4.4459791
  28.3643317  18.9884412  35.6466341  28.9592314  18.4127212  36.1271262
  27.6016927  18.4414792  35.4583621  68.2582124  60.3101961  18.5491955
  67.7290257  60.4839997  19.3276465  67.7355142  59.6930926  18.0371392
  53.2236910   5.1357889  30.9305048  52.5905704   4.5332608  31.3208246
  52.8288126   5.3911239  30.0967765  72.8669711  65.4869454  18.1360364
  73.8064667  65.4561554  18.3166766  72.7615043  64.9824838  17.3294222
  73.9346977  50.3137064  51.9645071  73.0485339  50.2904558  52.3256254
  74.1424942  51.2458229  51.8995810   9.8206997  34.9915957  49.6407986
   9.8080534  34.9058104  48.6875343   9.7893846  35.9354830  49.7967768
  58.6107095  64.4819944  13.3423471  58.8971790  65.2761798  12.8913081
  58.9893057  64.5543538  14.2185104  56.7890744  43.4831897  54.8221128
  57.1360759  42.6489434  54.5061158  55.9370069  43.5657957  54.3938731
  57.8222441  26.5463066  32.1113014  57.7898478  27.2009683  31.4137340
  57.9523039  25.7154417  31.6541576  24.0210414  22.5859547   8.4998161
  24.8511219  23.0623078   8.4828448  23.5651302  22.8709173   7.7078730
  11.7003974  42.5462000  24.2730904  11.8447241  42.0095508  23.4937263
  12.1269830  42.0617072  24.9798608  69.4764431  67.2171329   7.2732747
  70.1362654  67.9088654   7.3219901  68.6496755  67.6831128   7.1485770
  15.8491039  11.6714776  18.8331890  16.2964916  11.8618608  19.6577072
  15.9355485  10.7241237  18.7269759  18.1984329  55.1032734  25.6364799
  18.7658012  54.3819666  25.3643632  17.4267697  54.6745253  26.0065389
   2.6653966  49.8943703   2.9806715   3.3641919  50.5465941   2.9304507
   2.2060498  50.0977485   3.7954536   8.3357668  56.4828444  11.1312807
   8.9773005  56.5288448  10.4223728   7.4875307  56.5264416  10.6898892
  38.9000964   4.8661819  35.3754282  38.2063532   4.2116016  35.4559016
  38.5570502   5.6358206  35.8295298  63.3272218  13.6084008  58.4138584
  63.4143281  13.9282656  57.5158978  64.2263162  13.5577643  58.7383509
  39.4050888  56.2860478  23.4383268  39.5967010  55.6563438  24.1332979
  39.7711269  57.1116389  23.7555761  65.2662462  17.4476767  45.4671955
  65.6752187  16.6466022  45.1396990  65.5990898  18.1381691  44.8938990
  37.9949812  55.0294496  21.6831465  37.4736754  55.7983531  21.4523573
  38.6422721  55.3574933  22.3073549  19.1788805  28.7451410  49.3177986
  19.6695793  28.5305476  50.1111412  18.2799900  28.8752007  49.6199751
  50.9961349  68.6499675  59.8369074  51.2883737  69.3629342  60.4048061
  50.6856017  69.0872197  59.0440607  28.9704561  20.8259940  42.1261835
  29.0445685  20.3458381  42.9509163  29.3077660  20.2209234  41.4656210
   7.4549993  51.2996714  47.0616961   8.2958444  51.0738282  47.4594450
   7.1776303  50.4987614  46.6169024  12.2981970  64.9127463  54.6240406
  11.4772932  64.4413951  54.4820016  12.3463194  65.0293973  55.5728864
  18.5047972  18.9638555  21.8945289  18.4381080  19.9181986  21.9263482
  19.2011952  18.7934351  21.2603235  14.9367914  38.6105232   5.8211393
  14.8799566  38.8042395   6.7568083  15.3377537  39.3911160   5.4388637
   2.6094213   7.1481115  41.8103123   3.4620428   7.1112120  42.2437954
   2.0304689   6.6380286  42.3767567  72.2511390  12.5920594  58.0713272
  71.7331069  12.9790044  58.7771225  72.4763517  11.7183125  58.3908224
   9.9767578  10.9414923  11.4125001  10.4068172  10.5904067  12.1922553
  10.6391776  10.8778298  10.7244742  45.7558655  54.4950788  21.0280824
  45.8607464  54.5615332  20.0789690  45.8048426  53.5564713  21.2093282
  33.8266659  21.4766765  56.5809727  33.3884597  21.7565322  55.7773018
  33.1543732  21.5500712  57.2583675   0.8968695  64.9856906  53.6084032
   0.4176267  64.1758011  53.7834358   0.2213224  65.6634133  53.5847950
  60.4713877  69.5715086  47.0307350  61.0551568  68.9294271  46.6267872
  61.0588034  70.1846719  47.4725580  31.1598730  18.9983881  20.3240013
  31.9222307  19.0646946  20.8990169  31.4581466  18.4583831  19.5921135
  35.7897910  63.3819167  28.6504602  35.3639396  62.5534968  28.4299994
  35.2528580  63.7475865  29.3534684  55.7643493  43.6529271  36.8444395
  55.3715696  44.4025271  37.2917151  55.7711979  43.9021127  35.9202695
  19.2332029   7.1414953  24.5385265  20.0374031   7.6599693  24.5645761
  19.2204273   6.6770780  25.3754163   8.2952023  31.4225960  34.8824120
   8.4315288  32.3518419  34.6976233   7.3554921  31.3466644  35.0479722
  60.1633179  12.9728138  48.3963680  59.3990922  13.4354687  48.0526495
  60.8686387  13.1892920  47.7865410  33.4634908  64.8876213  51.0241652
  32.7431520  65.5179732  51.0225773  33.9108452  65.0372355  51.8570662
  47.4829880  67.1698607   4.6643085  47.0147864  66.4645828   4.2175360
  48.3885685  67.0821656   4.3668766  21.0433435  19.0392351  40.4798317
  20.7334805  19.2840648  39.6078968  21.9694638  18.8317525  40.3553867
  68.9060122   6.6424173  30.7645416  69.0257293   7.5023049  31.1676455
  69.3982225   6.0438722  31.3264179  36.1290050  52.7016497  12.0589006
  36.2374258  52.5114393  12.9907250  35.1873946  52.6223087  11.9062304
   3.2018717  69.8066400  46.2188673   3.1702026  70.3822792  46.9829798
   4.0411171  69.3527463  46.2955523  74.3112770  60.8986915   0.8390493
  75.1745287  61.1648644   0.5225344  73.7315480  61.0241712   0.0877828
  74.2819067  57.1511512  45.5413723  73.5253378  57.5957148  45.1590109
  73.9193746  56.3581710  45.9363174  21.0762239   7.1804339  32.6722288
  21.8402934   7.7529550  32.7404213  20.4270411   7.7025211  32.2008300
  51.6859618  41.2814601   8.8896961  51.1472575  41.4114822   9.6701593
  52.5791565  41.4626486   9.1822738  13.9015746  12.8539681  50.9236193
  14.5829678  12.1861720  51.0009766  13.0825436  12.3590493  50.9018469
  67.8496247  42.2362041  29.5018196  67.5967508  41.3335180  29.6953082
  67.0403605  42.7379084  29.5999002  15.1079583  21.0433745  35.7788205
  15.5022037  20.1895308  35.9570241  15.3014839  21.5639448  36.5584278
  37.1988225  20.3232002  45.6132698  36.9549251  20.8438921  44.8480082
  36.5766215  19.5958149  45.6162405  54.0499761  64.3749098   4.2554024
  53.3666511  64.6820502   4.8511907  54.3135782  63.5260193   4.6105519
  69.0098369  41.1236858  12.1794224  68.9809948  41.9824409  11.7575979
  69.7630053  41.1712408  12.7682412  11.3944244  16.5527594  32.4536777
  11.6224039  17.4815273  32.4130964  12.0097828  16.1287332  31.8555403
  10.5568850  23.1626320   0.3390279  10.0480068  23.9540577   0.1631846
  10.9891737  23.3366776   1.1751297   4.6615776  63.9239697  50.9954166
   5.5716928  63.9349721  51.2917280   4.1909131  64.4423567  51.6480923
  11.2984093  45.8547823  42.0137167  11.1807927  46.7563264  42.3130798
  10.6469091  45.7455032  41.3210154   5.7697662  33.8249962  15.0556660
   6.6482934  33.7625496  14.6808016   5.7438334  33.1373517  15.7210279
  26.7860961  22.9735231  22.1402884  26.6675115  23.6792183  22.7760267
  27.3571014  22.3457193  22.5830626  66.0163053  66.5140034  52.6179695
  65.8747872  65.9211285  53.3560133  66.6593715  66.0645659  52.0696068
  59.2894854  47.5038497  20.3251433  58.3885231  47.6694529  20.0475216
  59.2024257  47.0602052  21.1688447  69.3839355  46.4478128  16.5942001
  68.4373876  46.5022199  16.4626050  69.4973751  46.5026228  17.5430727
  13.9247000  31.2356138  56.1172962  14.2164218  30.3623223  56.3790083
  13.0398333  31.1008835  55.7780457  68.6545654  54.9327628  47.5113726
  68.1872447  54.6130745  48.2831478  67.9814621  54.9985652  46.8340015
  23.7452921  63.9611827  42.0098591  22.8993877  63.9238374  42.4562597
  23.7437614  64.8083316  41.5642452   1.8182262  31.4465968  51.1684799
   1.3473805  30.8884470  50.5496073   1.2351974  31.5104191  51.9249439
  44.6724749   7.1636474   5.7997131  45.3316450   7.1922874   6.4931875
  45.1347876   7.4640989   5.0172639  34.9988162  28.7679219  54.8011923
  34.2676651  28.3270311  54.3684530  34.6569931  29.6329784  55.0271702
   0.3532156  58.5553233  21.1387110   0.6566962  58.8676696  20.2863193
   1.1466631  58.2492130  21.5779948   6.9847830  45.7219426  47.4782228
   7.4984487  46.0356633  46.7339420   6.2246379  46.3029854  47.5065517
  37.1001271  35.6502391   8.1220980  37.3790304  36.0483096   8.9467115
  37.7039400  34.9188312   7.9929323  58.4036140  46.7437485  60.2690882
  57.8936486  47.5152436  60.0221825  57.9940919  46.4344767  61.0770945
  26.5810633  19.1255260  30.8951354  27.2686076  19.1216803  30.2291775
  27.0422006  19.3053079  31.7144394   2.8028163  68.7059647   7.0934505
   3.7036443  69.0071946   7.2117777   2.3617116  69.4351846   6.6576786
  67.6148041  59.3748145  30.9731936  67.1016856  59.5739774  30.1900744
  67.1706148  58.6233298  31.3658714  13.8630474  32.8672934  49.4206953
  13.6252618  31.9545341  49.5836639  14.5356536  32.8219151  48.7411547
  61.9802157  53.0294718  -0.0060492  62.3577896  52.3941327  -0.6143360
  62.4116508  52.8474237   0.8287926  31.9443306  52.0240264  56.9116831
  32.1490892  51.9303171  55.9813452  32.4319729  51.3183658  57.3365116
  61.3151523  62.7290802  47.8524351  61.0002681  62.2932540  47.0605183
  60.5243846  62.8923933  48.3664846  62.6401214  25.0922516  59.1582939
  62.7145080  24.1545657  59.3356182  63.2167749  25.5041757  59.8017373
  43.9738371  53.5468249  17.1919644  44.1514548  53.3557896  16.2709928
  44.7827204  53.9442329  17.5144649  50.7792662  64.5546584  31.0229969
  51.7312687  64.5121495  31.1130857  50.4610400  64.7069214  31.9128180
  60.7162881  15.2852881  19.7262180  60.7656419  16.0501051  19.1527617
  59.8040402  15.0011849  19.6685874  58.1701501  28.7569062  30.3440714
  58.7885769  29.4601934  30.1461554  57.8211995  28.4977691  29.4912457
  74.5844946   1.4817040  37.2516084  73.7500981   1.3275717  37.6946187
  74.6499611   2.4346042  37.1889400  24.5194411  20.8570242  30.2685928
  25.1246786  21.5886521  30.1475930  25.0435185  20.1812387  30.6985760
  49.2268795  60.5174951  30.2511191  49.2310615  60.2578966  29.3298030
  50.1525675  60.5800854  30.4865265  46.0555267   6.9613028  33.3622766
  45.5456161   7.7175218  33.0718350  46.7741203   7.3377991  33.8703156
  63.4942889  21.4175415  39.4447327  63.7968886  20.5565119  39.1561222
  62.5393533  21.3561201  39.4211125  63.2340642  41.2569968  51.4514256
  62.7045580  40.5612604  51.8410540  62.7643271  42.0633380  51.6644764
  41.8043832  61.6901578  10.5476446  41.0685698  62.2068061  10.2191896
  42.5554577  61.9908751  10.0360937  20.5128765  25.8516097  37.3682785
  20.3845239  26.4862108  36.6632676  19.8473024  25.1817465  37.2116756
  23.0118036   7.9524118  50.7708979  23.2986164   8.7427443  50.3133535
  22.6162934   7.4105728  50.0881004  13.0923891  11.1613595  34.0587616
  12.5786960  10.4862070  34.5020676  13.4185147  11.7174017  34.7663593
  50.0127983  10.9445870  30.4645824  50.2400208  10.0752211  30.1347256
  49.2381477  11.1965513  29.9619293  31.6712316  57.4678235  21.1261916
  31.0813364  56.9450001  20.5831337  32.2243532  56.8234639  21.5678811
   7.6109368  12.9586947  34.2754507   7.2710329  13.8530254  34.3049598
   8.5523510  13.0646622  34.1385508  15.3301334  12.2612274  26.1067748
  14.6683192  11.6955280  26.5045381  14.8520124  13.0533338  25.8614182
  71.8699151  15.3991270  49.9581861  72.7613756  15.1212502  50.1686954
  71.6457498  16.0260272  50.6459236  26.5230083  34.0544605  28.9138055
  27.2731900  34.4130135  28.4395695  26.7286396  33.1256962  29.0203166
  31.8366289  26.1619186  40.8334398  31.0677338  26.3741255  40.3042889
  32.4537969  25.7727599  40.2138519  29.7916651  26.2578273   3.4851477
  30.1092553  26.9346857   4.0828374  30.1656961  25.4444623   3.8239264
  63.4897804  22.7037501   9.4775629  62.7591801  22.2383261   9.8847914
  63.1569147  23.5888171   9.3289429  24.7647834  34.2008829  32.2811270
  24.1691566  33.6903405  31.7326689  24.1928363  34.7944283  32.7677608
  68.7158552  29.0833278  15.3267546  67.8626934  29.0328933  14.8957081
  69.2084185  29.7202952  14.8091764  39.6395230  17.4970055  44.4808388
  39.5310926  18.2265222  43.8706923  38.7651610  17.1145535  44.5546913
  18.4681416  20.8751607  17.4476445  18.9788306  20.2302766  16.9582033
  18.9641738  21.6892147  17.3610318  58.4745741   3.9612228  33.7788534
  58.8051486   3.8294896  34.6674466  57.5332701   3.8015833  33.8473654
  14.9274119  64.3982296  57.3674202  14.9817308  65.3082608  57.0756578
  15.3396066  63.8962762  56.6643047  63.2155045  70.2553182  52.0990515
  62.9582711  69.3451137  52.2459888  64.1088732  70.1999629  51.7598486
  62.4611783  13.1225145  16.1117053  63.3738684  12.8476655  16.0240269
  62.4633991  14.0452361  15.8571208  48.7580919  28.5306931   2.5040549
  49.1654253  27.8220010   2.0059948  49.4678020  29.1544580   2.6572308
  67.8407818  17.4514616  37.6635599  67.4185979  17.1787715  36.8489218
  67.3741048  18.2466626  37.9206562   7.7556714  69.2517757  11.8235075
   8.0148491  70.1724986  11.8599534   8.4707435  68.8199878  11.3561082
  41.2167835  28.4753060  57.4642611  42.0590591  28.8154030  57.7661419
  41.4234781  27.6164103  57.0957422  48.7735987  12.7349675  46.8650579
  49.5884991  13.0224180  46.4532995  48.9569807  11.8438971  47.1627092
  35.1400948  19.9723804  39.5281029  35.8673573  20.5946469  39.5178699
  35.3309822  19.3690467  38.8099241  38.5729933   7.1935803  42.8548145
  37.9263449   6.6733885  42.3778677  39.3473935   7.1874613  42.2922325
  30.3052640  59.5485497   6.7118484  30.9698844  58.9459515   7.0455945
  30.6878591  59.9075699   5.9112507  21.3096976  11.9753397  57.9489470
  21.8613386  11.3027596  57.5494957  21.8403029  12.7713084  57.9154301
  23.6899805  18.3850431  28.3935022  23.1157064  17.7328730  28.7948895
  24.0768337  18.8518286  29.1342378  29.5249701   7.6765776   7.7695107
  29.6777868   8.4621477   7.2443843  28.5768461   7.6560044   7.8994018
  47.3875179  70.5563117  38.1214237  48.0506327  69.9148481  38.3764434
  46.5584894  70.0821219  38.1853604  34.0366054  13.0559957  40.5728960
  33.3939409  13.4159136  39.9616098  33.5135102  12.7249730  41.3029861
  16.1029232  31.5052533  11.5312028  16.1116540  31.3560748  12.4766660
  16.6844177  30.8323789  11.1771774  71.4276075  46.2288761  36.2149525
  71.0663176  46.0378742  35.3493786  70.9481192  45.6500816  36.8076754
  30.1903152  12.7906001   6.6732490  29.4235516  12.2389257   6.5184456
  30.9188628  12.1737766   6.7438066   7.5057638  42.8816557  44.0475893
   7.1461284  42.5836658  44.8831081   8.4419334  42.9903603  44.2149258
  56.5003776  14.8676300  48.6024570  55.9920013  15.5775428  48.9946413
  57.3840511  15.2252376  48.5160351  21.0133219   0.8678763  32.2348738
  20.2529240   1.3086660  32.6139927  20.9327412   1.0187792  31.2930846
  29.3478990  21.9800067  53.2458973  30.2959228  22.0631528  53.3486938
  29.2210627  21.8263578  52.3096609  11.9446599  31.7928338  21.4192367
  11.3741672  31.1105204  21.7730951  12.6411259  31.3136744  20.9702682
  48.7147496  63.8347225   6.7140192  49.0247797  63.8647239   5.8089155
  49.5131650  63.8568644   7.2415364  25.9765220  17.3507917  35.6940389
  25.0785136  17.3821127  35.3641462  26.1823583  16.4171171  35.7400346
  14.9965179  23.3142972  16.2405181  15.2481580  24.1369224  15.8207607
  15.3574002  22.6346993  15.6711829  13.3595689  64.5961122  48.2630825
  13.3099064  63.7771659  47.7700377  14.1400846  64.5001720  48.8088131
  24.9647927  16.9249892  31.5442896  24.1009307  17.3305058  31.6186595
  25.5604672  17.6574922  31.3866663  61.5788972   9.6889740  52.3310757
  61.7489481   9.1257358  53.0861092  60.8787572  10.2736342  52.6212597
   9.8042353  64.8020379  47.7607632  10.6602105  65.0368218  48.1191206
   9.6519121  65.4420786  47.0655107   4.6313781  34.7351313  47.4944878
   3.9605245  35.4176664  47.4761868   5.3431821  35.1127148  48.0112076
  56.9035923  34.2356777  26.2649632  57.0606184  33.4631205  25.7220745
  57.3083305  34.9551702  25.7804561  50.9711281  52.1271147   9.6586819
  51.0212151  51.8348600   8.7485666  51.6616169  52.7853598   9.7372122
  17.6459312  21.7799425  24.8063588  18.4139037  22.3498368  24.7654510
  17.3123837  21.7627454  23.9093161  41.3068847  46.5488566   7.1484775
  40.4429141  46.1404456   7.2031374  41.8324772  45.9304274   6.6410036
   2.6840922  19.3296003  59.9358034   3.5982111  19.5171356  59.7226143
   2.6162353  18.3763444  59.8816824  17.6253664  14.2889571  11.4352441
  17.3600614  13.4622276  11.0323000  17.2884512  14.2384028  12.3297632
  26.3411951   7.7512842  40.5160999  25.6996942   8.3147639  40.0834370
  26.9716811   7.5347638  39.8291969  27.7486229   3.3744964   1.5444578
  27.1446800   4.1165066   1.5745457  28.3662701   3.5964963   0.8477075
  20.2496719  11.3838422  20.1730609  20.1149774  12.3209274  20.0317788
  21.1231875  11.2117445  19.8215151  24.6425200   5.7297510  15.1235259
  24.2461729   6.5914983  14.9949551  23.9463115   5.1107055  14.9037385
  21.8552995  28.6743498  13.6537194  21.4204741  28.9147115  14.4718790
  21.6242504  29.3757033  13.0446625  14.1323876  45.4119110  25.7171726
  14.0217221  46.1586428  26.3057065  14.8589051  45.6623459  25.1464820
  19.3198732  45.3558339  20.3655119  19.1284899  44.4404115  20.5694837
  19.7699503  45.3240777  19.5213194  74.0744348  59.9721210  14.4903278
  73.5883709  60.5157815  15.1103330  74.7495647  59.5490317  15.0208271
  30.1664672  52.0995320   2.1846886  29.7474060  52.9543544   2.2841711
  30.6924925  52.1817829   1.3892240   0.8455418  25.4509950  35.4812908
   0.5003879  24.6411705  35.1054144   1.7899600  25.3055358  35.5373955
  61.2375899  61.2419502  39.9368691  60.5007156  61.3844953  40.5309486
  61.7383619  60.5338995  40.3419924  71.9258515  41.2834854   4.1293449
  72.5859133  41.5956063   3.5103674  71.8423191  40.3490348   3.9394541
  30.1202798   8.9650083  51.0235453  30.2502513   8.9306414  51.9712591
  30.1993465   8.0548853  50.7377863  59.2464380  44.4325248  55.5480926
  59.2985491  45.2135232  56.0990529  58.3097701  44.3110576  55.3927546
  55.2045965   2.5258756  37.8722429  54.4825029   3.1025168  38.1218362
  55.6766844   3.0120635  37.1962357  49.2802274  66.7151381  58.7296391
  49.7908775  67.2092859  59.3709564  48.4141340  66.6291536  59.1280365
  23.4476304   7.3977292  57.4980259  24.2775011   7.1722704  57.9183960
  22.7781558   7.0668846  58.0968380  12.0498288  26.0127807  19.0648031
  11.8323660  25.5429149  19.8698914  12.1993351  25.3232193  18.4179783
  48.8926927  49.2813052   8.4676857  48.1013743  48.9153243   8.0725832
  49.2229358  49.8985065   7.8148193  51.9540262  34.5993996  55.8760118
  52.4949121  35.2993202  56.2417793  51.2052965  35.0528550  55.4886961
  73.5040072  42.3765756  12.2596521  73.0586175  41.9444765  12.9884500
  72.7985314  42.7761210  11.7508287  42.4889699  37.2813347   7.0457239
  43.3997444  36.9978693   6.9659204  42.2349218  37.5244963   6.1554642
  53.9717484  13.3703566   6.8916559  54.3080091  13.1028318   6.0363245
  53.2738972  12.7432978   7.0814693  67.8128891  56.2064842  60.8966112
  67.8458051  55.3806928  60.4136848  68.7223606  56.3771442  61.1415003
  65.8733483  64.6697460  54.4722080  66.4789637  64.6275739  55.2122641
  65.0541767  64.3098156  54.8122644  58.3870306  57.2979037  59.3755674
  57.5897004  57.3532431  59.9022865  59.0838440  57.5869493  59.9647522
  41.2613074  36.1165096   1.0424824  42.1038631  36.5473909   1.1862631
  41.1664370  35.5217050   1.7864151  44.9821774  51.4725078   2.6187725
  44.9103264  50.5580438   2.3452349  44.0788058  51.7883815   2.6381988
  70.4175505   9.0396196  47.8965092  69.5010197   9.1639751  48.1429625
  70.6377381   8.1679177  48.2249689  29.3980007  55.5743459  59.1450498
  29.2409937  54.6544722  59.3581574  29.5011778  55.5855158  58.1934922
  65.0658401  64.0896444  50.5884504  64.5053931  63.4615110  50.1328421
  65.1234933  63.7542586  51.4831161  11.5024030  30.7066369  34.1592741
  11.0419536  29.9242520  34.4627404  11.2283540  31.3957047  34.7645164
  38.8502400  54.4024459  60.5231416  38.7369101  53.4963206  60.8100622
  38.4930555  54.9270287  61.2397061  65.8709784  56.9011252  31.8238378
  66.1363002  56.0772328  31.4151359  65.4593023  56.6384320  32.6470923
   7.7131498  33.9521837  51.0005760   8.5320187  34.1625190  50.5517483
   7.0968336  34.6199942  50.6998825  73.5213753  40.7287829  52.2672606
  73.0117460  40.0210564  52.6617622  72.8644367  41.3398878  51.9337749
  26.6854509  70.7341506  34.2024040  25.9616932  70.2496566  34.5994806
  27.0016416  70.1619719  33.5032129  27.4595699  40.4510309   5.5867166
  26.6485766  40.8253981   5.2426691  27.5230435  40.7949908   6.4777250
  55.3391600  42.1663189  42.4895334  55.3282356  42.8796339  41.8513346
  56.1352539  41.6752481  42.2862673  37.9635334  64.5175934  27.2940445
  37.6106668  64.8206425  26.4574575  37.2389913  64.0433264  27.7018929
  21.9732193  11.4148362  49.0997887  21.1334662  11.8461831  48.9417171
  21.9063286  10.5819733  48.6327887  18.2165134  64.6566725  46.9860554
  17.8463352  63.7755585  46.9328356  18.4740055  64.8629618  46.0875130
  21.6169854  26.6474840   0.7428903  21.9387741  25.7620689   0.5734081
  22.1785136  27.2121545   0.2117939  41.9383430  63.6818218  22.3328137
  42.2322655  62.9849386  21.7461324  41.0261345  63.4644508  22.5247836
  14.6973709   8.0722363  37.9100895  14.0340952   8.7543662  37.8052449
  15.3215031   8.4392531  38.5361791  29.7853426  16.0550340  32.1761870
  28.9773611  16.5231355  31.9657731  30.2999596  16.0911210  31.3699031
  58.9608756   1.0225995  59.8859501  58.1905595   0.6610711  60.3242970
  59.5577184   1.2496217  60.5990219  34.9347659  44.3778011   8.7363024
  34.6922942  45.1401064   8.2106323  35.7382794  44.6417400   9.1845627
   7.8771643  16.0636361  55.4627514   7.7869801  15.1106961  55.4604101
   8.3902744  16.2575848  54.6783209   2.0726574  33.9657307  43.8377142
   1.5807331  33.1495643  43.9278030   1.5372360  34.6190405  44.2879820
  57.3956147   1.3003762  12.1586013  58.1957666   1.6198476  12.5756502
  56.6928331   1.5726121  12.7487004  20.5836857  53.4780645  50.1100636
  20.8987415  53.1414795  49.2712069  21.3770569  53.7454176  50.5740690
  64.9630070  58.8528013  46.6281462  64.0951538  58.8571930  46.2243557
  65.3985548  58.0881643  46.2515068  19.7798208  19.5626385  19.6161664
  20.5420736  20.1386388  19.5575571  19.0494446  20.0999577  19.3094516
  18.3575682   2.3140605  37.7243423  18.1539158   2.1133883  38.6378455
  18.4938339   3.2614310  37.7118683  38.6109757  57.2329187  14.3993843
  37.6817846  57.1811724  14.6233356  38.8682866  56.3259602  14.2337024
  59.1832677  15.9678395  48.7150574  59.1922394  16.8718655  48.4006071
  59.4420067  15.4471810  47.9546642  65.8759785  59.4150829  49.3835926
  66.5934277  59.0393829  48.8733578  65.2183580  59.6557474  48.7310219
  60.3992748  51.9679403  33.0887842  60.5419827  52.8409767  33.4543967
  59.6723747  51.6105700  33.5988188   3.0223612   0.8512385  56.9072199
   3.1089691   1.4248593  57.6685953   3.9151720   0.7577498  56.5749836
  58.7543026   6.9750674  18.4117389  59.5945803   7.3060401  18.0945230
  58.1599156   7.7218373  18.3391345  55.3708982  60.7647753   3.0853283
  56.1612701  61.2890387   3.2145253  55.1837444  60.8402157   2.1496391
  67.1827427  10.3822644  36.0152745  66.2971798  10.0883229  35.8017182
  67.3350493  11.1264737  35.4328704  64.3805552  55.1903105  47.2305393
  63.7810040  55.6074095  47.8492498  63.8360596  54.5624352  46.7556381
  68.3544461  53.5166551  26.6062803  68.8791481  54.2634798  26.8946714
  67.9772106  53.7967504  25.7723303   0.9226898  47.9074682   4.9357099
   0.1693205  48.0569459   4.3644638   1.2533526  48.7843837   5.1304216
  74.1439358  11.5171273  29.2474985  73.2231394  11.7775567  29.2708468
  74.3340079  11.2288125  30.1402330  50.3528587   5.1826937  48.8275814
  49.8513237   4.5366986  48.3302021  51.2271205   5.1583226  48.4386015
  35.9044428  28.4758970   3.7532062  35.4467411  28.6063406   4.5837040
  35.2251645  28.1738207   3.1502409  -0.0356352  35.0543690  22.4868798
   0.5226028  35.4644704  23.1474972  -0.1603996  35.7333183  21.8237853
  15.3950298  67.7082253  14.8256516  16.1036003  67.2805643  15.3065538
  14.5974338  67.4267197  15.2737796  67.0777479  20.0056870  38.8136792
  67.8356139  19.8894341  39.3867040  66.7828194  20.9000333  38.9850903
  44.3127175  29.1030142  11.8942423  43.8230009  28.8923999  11.0992307
  45.0643893  28.5106393  11.8765325  16.6524605   8.7495644  46.9908237
  16.4717297   9.6716054  47.1736145  15.8400110   8.2968171  47.2170591
  22.1470455   7.5751813  39.9380088  21.2167553   7.5854333  39.7128606
  22.5425486   6.9863589  39.2952871  22.3703436  10.5405934  39.7218132
  23.2726530  10.8567078  39.6755528  22.4501900   9.5867379  39.7170377
  21.7538059  60.1658010  10.4347074  21.5938652  60.3922176  11.3508880
  21.4393127  60.9239388   9.9422115  50.8929292  20.8327706  15.4901695
  50.5046073  19.9748738  15.6617594  51.1378352  20.8041604  14.5652723
  66.5380955  43.2655954  47.0351410  66.4175701  44.0324497  47.5951719
  66.6461563  43.6262989  46.1551142  39.8134060  48.8984701  14.0780611
  39.6624346  48.7311670  15.0083561  39.5094557  48.1038496  13.6393947
  18.8933949  16.1066373  34.1822362  19.1592220  15.6070550  34.9542403
  19.5541100  15.8970292  33.5221219  37.3726583  65.2851439  15.7859576
  36.7216086  65.9866333  15.8025002  36.8571949  64.4815540  15.7168841
  12.4555019   1.3107903  44.7158957  11.8082241   1.0043843  44.0807772
  12.0159344   2.0221980  45.1816368   3.4814871  48.5189772  27.1134615
   3.2287586  48.8046265  26.2355304   3.6183298  47.5754547  27.0282125
  22.1574215  17.4482758  31.2012672  21.8982176  16.6760571  31.7039847
  21.5285448  17.4871571  30.4806924  61.3753653  60.4622221  57.8988171
  61.0946894  60.4018974  56.9856834  61.5197659  61.3973045  58.0437279
  63.2496158  23.0909188  34.4876909  64.1924993  22.9266389  34.4731593
  63.0363098  23.1800492  35.4165554  18.9080576   3.9391215  29.3572950
  19.3771938   3.1068023  29.2990780  17.9940943   3.6898358  29.4942594
  37.2430344   3.4291336  15.2082701  38.1780548   3.6326858  15.2315206
  37.1161671   2.8040907  15.9220333  65.7548539  15.3799184  50.5925322
  66.5184943  14.8765214  50.8748007  65.7380501  15.2763589  49.6410990
  61.9723034  60.1969004  51.0495949  62.1446514  60.6946325  51.8488359
  62.5230169  59.4180298  51.1290359  42.3220158  69.1796160  30.3132701
  41.3776827  69.3320894  30.2783895  42.6075411  69.6266603  31.1100483
  41.0605911  13.6026509  13.5354209  41.6912083  13.2278569  12.9205382
  41.0326485  12.9781373  14.2602837  40.8238363  -0.1019817  44.3874674
  40.6349277   0.4993671  45.1078313  41.7384291   0.0712627  44.1644340
  39.6075905  62.2971106  58.4295750  39.4009865  61.4417315  58.8062334
  39.4678009  62.9149103  59.1472197  48.3516522   7.0248386  11.4904947
  48.1945391   7.4311372  12.3428268  47.5559111   7.2038385  10.9895058
  65.3872649  24.4992478  40.0398827  65.9696928  24.0424474  39.4329739
  65.0511566  23.8105519  40.6134367  46.8407555  27.9846641   9.7180624
  46.1546727  28.5752794   9.4071073  46.9972821  28.2547304  10.6229372
  34.3238167  14.5404656  43.0969381  34.0028099  15.3914578  42.7986050
  34.4802765  14.0476735  42.2913837  47.0614052  65.3140688  12.2429550
  47.7319908  65.7735586  11.7375648  47.5024652  64.5293236  12.5683379
  12.9027069  60.2199125  34.3876338  13.2278049  59.6444702  33.6952376
  13.6812103  60.4453802  34.8968863  13.8164381   0.7907851  37.1718311
  14.2170576   0.9573920  38.0250454  13.4171681  -0.0747268  37.2596097
   4.2400602  -0.2496116  45.0703669   4.2417053   0.2473433  44.2522764
   4.7668270   0.2770026  45.6715584  55.9712648  57.3770094  49.6182680
  55.5054760  58.0051470  49.0662527  56.8963051  57.5257587  49.4222927
  60.2038423  14.3479092  36.6498709  60.1082317  15.1887353  37.0972133
  60.3514401  14.5798428  35.7329965  69.5417038   2.8024466  18.1149185
  70.4477898   3.0781348  18.2536066  69.4862095   1.9430478  18.5327518
  60.8637468  36.9432195  36.3900542  60.6626836  36.0315926  36.1785245
  61.4130656  37.2417386  35.6652284  63.7379066  11.9641526  51.8685484
  63.6052362  11.6756757  52.7715492  64.0223423  11.1765607  51.4048386
  65.6505537  65.1548815  26.4133954  66.5562820  64.9081993  26.6005826
  65.4022837  64.6074295  25.6684852  69.8817396  56.7391300  44.3153715
  69.1279697  57.0657015  43.8240337  70.6270361  56.8782330  43.7310648
  63.0726910  64.5378447  43.5732841  63.1269503  65.4890203  43.4807825
  63.3358955  64.1986036  42.7177906  57.3510408  68.3050823  57.9678917
  56.4283371  68.5244322  58.0972672  57.8197050  69.1167688  58.1621885
  60.1203521  47.3122512  52.2908251  59.4876751  46.6584312  51.9933843
  59.7063526  47.7166663  53.0532442  69.2730284  26.9059682  36.6502929
  69.5610094  26.5804958  37.5031495  69.4651413  27.8433824  36.6743493
   6.8155674   1.1946376  23.4013963   7.6385740   1.4458878  23.8206458
   6.5538744   0.3906377  23.8501024  54.9473906  65.4281998  30.1076531
  55.3125000  65.7591343  30.9282684  55.1001453  66.1315775  29.4766569
  27.6634479  57.1105623  12.3076761  28.6019135  57.0712328  12.1233690
  27.5982404  56.9626236  13.2511234  41.4505406  51.1387464   5.2399893
  40.8479376  51.4462587   5.9171457  42.2669049  50.9628412   5.7077904
   4.2059219  70.5262852  30.2751827   3.2927358  70.4971123  29.9897408
   4.2824590  69.8109579  30.9065962  54.2954350  65.3694677  60.7248878
  54.5219946  66.0962868  61.3050938  55.1193476  64.8993206  60.5969810
   3.3851564  46.7070055  60.9565115   4.3153465  46.7326069  61.1808300
   3.2906854  47.3491049  60.2529383  61.7474071   9.3683989  39.5228505
  61.0990778   8.6677726  39.5936966  61.4882938  10.0029595  40.1910019
  22.2648243  27.6775582  18.7693632  22.1116308  26.7816289  18.4692395
  23.2178740  27.7570565  18.8094652  60.5908243  32.2506459  34.8151898
  61.3851324  31.9889481  34.3495464  60.8304421  33.0641301  35.2591014
  70.8627987  35.9575796   1.0082150  71.0694790  35.8413649   1.9355822
  71.0175133  35.0970268   0.6186752  13.3021589  38.9637491  18.1925840
  13.5170098  38.1200430  17.7948017  12.4489112  38.8244936  18.6034460
  55.1202488  50.7377386  20.4213381  55.8032036  50.1277494  20.1425552
  55.5935097  51.4383364  20.8701324  41.6746712  67.2466135  57.3670959
  42.1598387  67.1397972  58.1852818  41.5203619  66.3526678  57.0616817
  63.0046502   0.7063277  38.5333753  62.5182430   1.4684518  38.8477111
  62.4250809   0.3018697  37.8878188  33.1906208  13.9000760  53.5345851
  32.7277311  13.0624066  53.5510867  33.6712059  13.8918935  52.7068155
  16.8688873  14.3899854  28.5753822  16.3000969  14.0845902  29.2820954
  16.9554428  13.6344178  27.9941320  73.5653511  22.7281983  58.6274052
  74.5160357  22.8360493  58.5990715  73.4343592  21.8528111  58.9917660
  58.4035078  17.8361447  32.7346635  57.6381937  17.3811467  32.3832393
  58.9935390  17.9256089  31.9862700  23.5291533  13.2630284  25.4078627
  24.2986683  13.0331548  25.9286666  23.5529188  14.2184289  25.3542280
  62.7240467  54.0636396  16.2255692  61.9225502  54.5132208  16.4933574
  62.8656387  53.4025288  16.9031513  19.5152668  22.9780133  38.8224912
  20.0723652  22.4630101  38.2388401  20.0781206  23.1872685  39.5678997
  59.7261492   4.6799357  39.0752053  59.3728105   5.1917537  38.3475876
  60.6228105   4.9984820  39.1789317  60.0821018  60.0550365  33.0447817
  59.3246651  60.2006054  32.4779272  59.8977709  60.5727768  33.8284898
   4.0416626   5.7402261  27.8818536   4.7262196   5.3642447  27.3284531
   3.2395176   5.6455405  27.3682070  10.0987287  49.2341825  30.2798242
  10.6716152  48.7339613  30.8610411   9.2191549  48.9098760  30.4732199
  37.6104196  27.8730498  54.7530257  38.2609066  28.5640250  54.6279060
  36.7783483  28.3392345  54.8339974  70.8330107  56.0052395  10.4135573
  71.6457891  56.4027119  10.7260334  71.0084867  55.7897043   9.4975960
  56.9348574  61.9853926  26.6718030  57.8345060  61.7057514  26.8411088
  56.4837503  61.1872911  26.3965344  14.0578636  45.6139098  55.8466386
  13.7363442  45.3563701  54.9826192  13.3502492  46.1405669  56.2183168
  65.9838057  52.3687553  22.8045535  65.1145077  52.5126696  22.4306011
  66.1789608  51.4518452  22.6110983  72.3099772   1.0515435  22.0011616
  72.8029791   1.8155892  22.3001814  71.4647547   1.4052565  21.7241859
  70.7958237  20.5033143  52.3267174  70.1785008  21.0341389  52.8300762
  71.1465231  19.8779328  52.9608679  59.1621637  66.0038853  33.9338064
  59.3715763  66.4856243  33.1336164  59.4798326  65.1161098  33.7689781
  33.2321811  58.3151531  24.3035197  33.4573150  57.5917339  23.7185335
  32.3184991  58.5135508  24.0984488  71.3929812  12.7080281  46.8595839
  71.4693133  13.3042748  46.1146688  72.0348803  12.0203431  46.6826963
  39.0434651   7.4670680  38.9865971  39.9074463   7.5618966  39.3875742
  38.7431149   6.6023858  39.2664957  31.2994456  61.2169027  34.8734617
  31.7830682  60.3927946  34.9299788  30.9539557  61.3528490  35.7557249
  57.3378325  67.4363852  44.3793106  57.9503107  66.8946028  44.8768806
  57.4803305  67.1830606  43.4673071  52.9232454  60.1651144   3.7988722
  52.3825741  60.5696440   3.1204480  53.8222694  60.2906656   3.4951872
  19.9394850  32.3738797  25.9176564  19.6507029  32.6246579  25.0401902
  20.5616812  33.0563767  26.1692262  52.8538179  68.3526325  41.3188314
  53.5368252  68.9880371  41.5332985  52.0354700  68.7960958  41.5421629
  63.3968870   5.9095748  31.6524649  63.4242455   5.0443394  32.0609307
  62.6163093   6.3236316  32.0205498  27.5755076  11.0122712  34.1148591
  27.5656180  11.5764649  33.3416700  26.8688873  10.3848012  33.9625525
   2.3579824  69.4878387  23.8143134   2.9407633  69.8728132  24.4688296
   1.4774931  69.7074175  24.1188717   4.1072945  22.1251519  16.6700983
   4.9844317  22.1618588  17.0515597   3.5305933  21.9449551  17.4125111
  51.0836811  24.8056623   2.7442665  51.4646454  24.7441169   3.6202259
  50.6775017  25.6720707   2.7200670   8.5039238   0.6015380  45.8955097
   9.2372421   0.1803572  46.3439322   8.0123238   1.0336049  46.5939903
  70.8369509   7.8120454  53.6385536  71.5460030   7.5611718  53.0464888
  71.2682120   8.3158763  54.3287706  27.9837008  31.2648031  20.8941717
  28.3282109  30.5811903  20.3195257  27.3944207  31.7723056  20.3361101
  59.1123962  69.5497131  32.8852582  59.6384525  70.2680826  33.2365990
  58.2079554  69.8514223  32.9700398   3.4280352  21.7754109   2.9813108
   3.9580731  21.9414647   3.7608716   3.9953903  21.2552865   2.4122620
  70.3849316  60.5747604  49.5066357  70.3335810  59.8544502  50.1349211
  69.6314621  61.1275339  49.7138977   8.6971048  31.1151917  17.0048714
   9.0444426  30.9017976  16.1388159   9.4708399  31.3229115  17.5287187
   6.1309119  10.1030990   6.7021913   6.3572688   9.1790172   6.8073816
   5.3481646  10.2207300   7.2404308   8.7855534  11.2483342  25.4117393
   9.2885260  11.0896619  24.6129441   8.3909754  10.4011281  25.6185794
  66.3948107  60.2606535  54.2827702  66.0488844  60.3240681  55.1730156
  66.4771461  59.3202734  54.1242170  14.0173487  20.7509263   4.1837677
  14.4764237  20.3747399   4.9347401  14.0815739  21.6971619   4.3132272
  70.9598494  60.9677839  57.2061491  71.0416842  60.0981092  56.8147421
  70.3701639  61.4403391  56.6186142  28.2333072  48.4343825  55.9868341
  28.0835565  47.5701915  55.6034439  29.0508064  48.7343322  55.5894010
  45.2238846  65.9767771  56.2862253  44.4775963  66.5021372  55.9976339
  45.7939863  66.5986490  56.7384338   3.0090709  50.4920217  17.9546137
   3.9608283  50.5894396  17.9246206   2.6983233  51.3002226  18.3626242
  60.7244492  56.5786076  25.2094746  60.5570459  55.6497574  25.3689837
  59.9025631  57.0128012  25.4379725  31.3824912  34.8024580   2.9488725
  30.9905692  35.6464121   3.1733055  31.4160319  34.3258163   3.7782831
  21.1265377   5.8043225  44.7025585  20.5544285   6.0483964  43.9749908
  21.4034227   6.6392358  45.0800228   7.0950512   7.5115664  17.8146291
   6.1937241   7.4457200  17.4991810   7.5728611   7.9176076  17.0914030
  55.0819226  23.4381935   5.1534195  54.1545744  23.6752197   5.1444597
  55.3701325  23.6322662   6.0453291  72.6640240  10.9229310  27.1757078
  73.3340184  11.1175187  27.8310490  72.4291292  11.7768224  26.8124866
  32.4954990   5.7499297  28.0079770  31.8416313   5.1167472  27.7117014
  33.0674366   5.2491935  28.5896826  17.6612667  46.3077386  25.4728627
  17.5086073  46.6870625  24.6073914  17.1775011  46.8760808  26.0721874
  38.6389661  62.2317028  51.9563150  39.1859221  62.8066158  52.4916172
  39.0427256  61.3681602  52.0429277  29.9702978  54.6026802  23.8786483
  30.8566999  54.3360138  23.6349010  29.5642877  53.8042784  24.2162037
  15.5816273   3.6557849  24.7993517  15.9670881   4.5313580  24.7674322
  16.1243538   3.1778748  25.4264736  60.6043768  56.9850540  30.5801654
  60.6587791  56.0315752  30.5157208  60.7590675  57.1717358  31.5061522
   3.8523153   8.4749682  53.5040569   4.7563986   8.1607087  53.5143995
   3.4426455   8.0507405  54.2580032  70.1533747  56.4564753  38.1573582
  70.1010418  56.0651731  39.0293550  69.2411089  56.5760851  37.8933692
  43.2295179  31.9508719   8.5270208  42.7139473  31.2005806   8.8227904
  42.6072502  32.6780462   8.5118312  61.5343276   5.0069745  21.7837238
  60.9446064   5.1942237  21.0533810  61.9012872   4.1465314  21.5807247
  56.7355100   3.7875254  25.4948974  57.2002426   4.4250186  24.9528098
  56.9696227   2.9384692  25.1200318  19.8041061  21.3463242  46.1614752
  19.3913607  22.0414098  46.6740561  19.2654089  21.2779076  45.3732157
  46.4299527   9.6558984  19.0583277  47.1051375   9.0041144  18.8698292
  45.6574599   9.3436845  18.5871518  44.7602224  62.2270584  49.2194223
  45.4804516  62.4432421  49.8116779  44.0090370  62.7045107  49.5715475
  11.3622240   0.8451207  57.5832033  12.3117498   0.9390099  57.6594925
  11.2147240   0.6463511  56.6585588   1.3973129  65.2203560  56.2826967
   1.3257730  65.1244926  55.3329992   0.4957664  65.1583004  56.5982771
  35.5749512  65.0443935  46.1212730  35.5418921  65.6201410  46.8852425
  35.0315714  64.2943430  46.3629246   1.2211581  26.4440366  20.1645155
   0.8934040  26.6359255  19.2858858   1.1235042  27.2679731  20.6418199
  29.5633396  25.3928672  54.7412412  30.1705631  25.5935441  54.0290337
  29.3690618  26.2425338  55.1369130  10.6963019   4.8599799  56.3437748
  11.5471748   4.4238980  56.2982035  10.6485943   5.3766806  55.5394268
   7.5405872  54.5310688  59.1041660   7.0346630  54.7260475  58.3153391
   7.3504246  53.6114311  59.2894602  47.8141347   1.3342316  50.4678583
  47.3297731   0.9618743  51.2047243  47.2564474   2.0436890  50.1486540
  69.8277727  32.6432736  50.7815456  69.8419062  31.9648106  51.4566231
  68.9282385  32.9703839  50.7895184  61.7497960  25.6595071  12.8971171
  62.3185102  26.3450082  12.5465620  61.4814011  25.9867795  13.7556565
  53.1093884  66.0084295  23.2187486  52.4427414  65.3474712  23.0318117
  53.4348440  66.2705898  22.3575974  41.8354988  44.9934912  17.3742676
  41.9663000  44.1337967  17.7743316  41.0185194  44.9072552  16.8830085
  15.0851015  15.2331860  46.8792295  14.9447493  15.1617368  45.9350777
  14.8952154  16.1494286  47.0809412  35.5032229  57.2480965  58.8615036
  34.8979759  56.5076542  58.8208723  35.1865053  57.7764082  59.5941734
  58.3006779  15.0206025  14.7558725  57.8171007  15.1457341  15.5724037
  57.6929013  14.5473130  14.1876817  66.0808992  66.6039467  49.1794682
  65.6698179  66.0200167  49.8168659  66.7760420  67.0426035  49.6699667
  40.0922394  58.8838768  21.2585235  39.8186111  58.2729340  20.5743384
  41.0284424  59.0114403  21.1052847  68.3938503  54.2783117  35.2708101
  69.0913773  54.8809671  35.0129533  68.4108686  53.5925531  34.6032214
  61.0331312  37.5093301  44.2946768  61.6977135  38.1767686  44.1241121
  61.5321628  36.7043431  44.4331837  66.8618170  17.0167573  34.8808599
  66.1352698  17.1993573  34.2850256  67.5522105  16.6680844  34.3169308
  16.3459972  24.8962910  35.4263496  16.9498829  24.4542916  36.0231757
  16.9137863  25.3700002  34.8185325  71.6037623  30.3423150  20.7021379
  71.1082665  29.5408089  20.5339193  71.1940066  30.9996827  20.1398206
  68.1889073  18.4720643  18.9339232  67.6027218  18.7877305  19.6216512
  69.0079705  18.2758458  19.3887544  64.9836937  11.5885384  34.2957926
  64.6762530  12.1786435  34.9838996  64.9124018  10.7147725  34.6800852
  71.4999676  53.5582638  30.4042602  71.0530615  53.0417013  29.7336841
  70.8157492  54.1185474  30.7705379   3.2985199  42.8504848  54.1273022
   3.6614836  42.4135208  54.8977232   2.3502147  42.7954817  54.2452955
  70.6514406  49.2415905  19.1948819  71.3211250  48.6692095  19.5692194
  69.9201822  48.6567163  18.9963436   1.5012062  52.0923710  52.9096413
   1.8913543  52.8785563  52.5276423   0.9016454  52.4232483  53.5784292
  61.2900877  67.6031017  41.0037994  61.5600300  68.5167408  40.9109163
  61.4152861  67.2266245  40.1326990  10.7532076  12.0899804  28.9517188
  10.6174521  11.1431058  28.9869213  11.7006306  12.1929391  28.8621378
  37.9308510  70.0641203  55.3192139  37.6608920  70.1432753  54.4042873
  37.8334141  69.1328669  55.5179739  42.5011396  53.8208961   4.6070790
  42.2445059  54.7185040   4.8184311  41.7928553  53.2805395   4.9571902
  27.3905921  64.3971062  55.8822060  27.8446674  64.0205765  55.1283646
  26.8934870  63.6672020  56.2514687  54.2816433   2.2039138  56.0431605
  53.4808477   2.4876128  55.6021731  54.3610510   2.7899204  56.7958378
  72.9583597  48.8750267  54.3785238  73.3932066  49.3382168  55.0944805
  73.6271334  48.8052320  53.6972713  63.9556551  56.1438751  17.8670132
  63.6880541  56.1584377  16.9480956  64.6898556  55.5302763  17.8929710
  67.1753597  53.2514477  60.0108337  66.6395092  52.9480886  59.2779827
  66.5885448  53.2185650  60.7663488  60.3757000  57.0921993  15.5598807
  59.7368383  56.5648127  15.0803459  61.2189054  56.8581676  15.1719880
  73.6687572  22.8699562  17.6179476  73.2508905  23.7282964  17.5481195
  73.2508547  22.4610683  18.3758373  44.7644234  68.6602068  13.6609066
  45.6406164  68.2753801  13.6814892  44.8697376  69.4689417  13.1598151
  25.6914572   6.3767989  43.6263800  24.8523478   6.4222987  43.1680632
  26.1987833   7.1061595  43.2701683  54.1519467  13.9831479  46.6684675
  54.9810544  13.8134797  46.2212276  54.2951433  13.6751588  47.5633812
  54.6347141  33.7766123  41.6946125  55.2442169  33.0386043  41.6855526
  54.8902512  34.2888832  42.4617577   6.2207464   3.8791354  26.3606954
   5.8042006   4.2701085  25.5926728   6.7548708   4.5834096  26.7280364
  64.0786830  21.4901479  56.5065527  63.5999814  20.7314523  56.8404150
  64.9687544  21.1680634  56.3641644  44.8954602  21.4405080   1.5166683
  44.3377419  21.5929767   2.2795172  45.5983849  20.8783409   1.8424005
  66.0513464   1.4225705  42.7921772  65.8026425   0.7019027  43.3709812
  66.2152020   1.0050090  41.9465876  52.4186420  52.1454000  59.3743134
  52.9701138  52.5066900  58.6803532  52.6709270  51.2234497  59.4251823
  44.7225952  49.2051458   9.7489011  44.4732475  50.1196527   9.8820871
  43.9254427  48.7839222   9.4274247  72.1854845   6.9334634  22.2140408
  71.9349495   7.4285682  21.4340830  72.5153939   7.5951035  22.8220057
  53.7363831  17.1785481  39.9522328  53.5847131  17.4569543  39.0490627
  53.1385413  17.7157529  40.4720688  11.7317919   8.0350526  43.5182285
  11.7422823   8.1188758  42.5647640  11.5722660   8.9240916  43.8350821
  64.9981070  61.9793415  33.4397316  65.9205151  61.7307043  33.3799791
  64.9991512  62.9306841  33.3340430  66.0306803   6.4562877  36.1753798
  65.4865662   5.6846841  36.3328815  66.4590231   6.2803538  35.3376436
  18.0141834   5.7818063  14.0623653  17.1861033   5.3308614  13.8975346
  18.6228470   5.4047044  13.4271085   4.3533138  19.4710286   9.0655404
   4.8513798  18.6957104   8.8065976   4.3405060  19.4390137  10.0221193
  60.7522011  51.9010210  60.5030203  60.1621389  51.7736578  61.2458754
  60.5785704  52.7955246  60.2098513  61.0595703  64.2488146   4.8410329
  60.4247570  64.2239380   5.5570126  60.9675407  63.3992720   4.4097108
  59.4754306   3.6026795  19.8189592  59.0758697   3.3183844  20.6410027
  58.7614290   3.5713990  19.1822040   8.0836252  10.0469239  57.0600939
   7.1946434  10.2317746  57.3630238   8.6376003  10.6410058  57.5664663
  58.5518094  14.1903612   6.3938494  58.7561436  13.6440632   5.6348820
  57.7199669  14.6083042   6.1711330  37.4358626  27.8517458   7.1251650
  37.0130034  28.0121681   6.2815494  36.7709179  27.3993274   7.6441974
  11.5995979  29.1645861  19.4348657  11.8576324  28.2444048  19.3808544
  12.4015152  29.6239758  19.6841073  66.3696357  60.1171069  24.5069599
  66.5393110  60.1397102  25.4487300  66.8031724  59.3190865  24.2045665
  10.5836141  45.0788069  18.5540307  11.1620390  45.5867290  17.9851103
  10.9455681  45.1986647  19.4320142  28.6772537  21.9374919  13.6341286
  29.2155385  21.1692595  13.4435940  29.1193891  22.3635960  14.3684196
  39.7029786  34.3234563  55.1443910  39.9476175  34.9307704  54.4461410
  38.7725894  34.1525513  54.9981086  36.3817763  17.5980389  41.4373398
  37.1495652  17.2658372  41.9024992  36.5156913  17.3262739  40.5293512
   8.6379313  41.7434359   2.6280063   7.8840071  42.3093176   2.4618591
   9.3733525  42.1972322   2.2163558  68.1629499  63.0482499  19.6161425
  67.3658296  62.7391331  20.0465822  68.2030996  62.5498264  18.7999356
  12.9476607  12.7714396  31.8359518  13.2327056  12.1759129  31.1428952
  12.9591036  12.2374618  32.6302862  15.2714857  59.0406124  41.4637566
  15.7691034  58.2699411  41.7370176  15.1441559  58.9221303  40.5224943
   8.6964738  19.7487581  17.3155963   8.8939327  18.9271402  16.8659449
   9.2344266  20.4019427  16.8681717  49.2375294  37.5966482  15.5287618
  49.9051610  37.8538470  14.8928804  48.8718382  38.4245898  15.8402366
  34.0946841   9.5343924  27.8593159  34.4604707   8.7171775  28.1978297
  33.8721323   9.3383336  26.9492269  60.6159731  51.6263776  30.4675603
  60.1736685  50.8659343  30.0903010  60.5006572  51.5261512  31.4124870
  17.7177890  54.3253283  29.4590354  17.2331270  54.3378286  30.2843738
  17.2680124  54.9653892  28.9074421  12.0087337  33.9129972  57.8661966
  12.1439362  33.0467415  58.2503271  11.0686374  33.9530444  57.6905632
  21.1622119   8.1471574  52.9058504  21.5800047   8.2776082  52.0545769
  21.7701006   8.5381281  53.5334206  60.9490061  14.1805387   7.4865842
  61.3069510  13.4419394   6.9940621  60.0321519  14.2272973   7.2156137
  36.7195249  62.1966362   5.7628101  35.7742834  62.3452663   5.7371724
  36.9275069  62.1376801   6.6952801  60.2025664  17.3475635  53.3182335
  61.1114919  17.6462448  53.3478117  60.2360511  16.5267384  52.8269529
  17.5351747  68.0219167  34.1615486  16.6617378  67.9450916  34.5455241
  18.0384811  67.3165707  34.5682430   4.1776165  50.3506725  36.2211704
   5.0304469  50.0371186  35.9201789   3.5444292  49.8796646  35.6794500
   5.8463343  35.0735156  27.1623611   5.0965699  35.5180113  26.7667460
   6.5945300  35.3478114  26.6320801  11.7634638  30.7868187  37.0549679
  11.7105588  31.6951983  36.7578483  11.2729510  30.7746927  37.8768444
  39.1978741   2.2116278  28.1570292  39.5848322   2.2159037  29.0325165
  39.5338941   1.4128193  27.7505469  73.3459692  18.8851968  57.7461358
  72.9307108  19.6146861  57.2860943  72.9582862  18.9020506  58.6211507
  74.0361019  14.9734603  27.3644142  74.6806737  15.6186544  27.0737510
  73.7380358  15.2986108  28.2139235  28.1332267  33.7715818   2.7257604
  27.4674506  33.1207825   2.5034208  27.9672909  33.9794749   3.6452598
   4.4881456  40.9030816  38.4531026   4.0005367  40.0798616  38.4252100
   5.2521293  40.7478693  37.8977018  16.9258749  14.7617793  17.6138628
  17.4111736  14.8308921  18.4360194  17.1356893  13.8878131  17.2846305
  29.7601732  70.7108559   3.6628139  29.1048416  70.2555102   3.1341988
  29.6164354  70.3883531   4.5525122  66.2731524  57.5258569  53.6067533
  66.5844901  57.2291617  52.7516079  66.3317510  56.7506234  54.1651535
  27.5991484  56.4381461  19.2947769  27.3601266  55.8980744  18.5415018
  28.5014816  56.1873691  19.4926095  34.6858311   1.2122423  25.3083467
  35.5143929   1.1114004  25.7769036  34.6834540   0.4991698  24.6697903
  53.4240107  44.2176321  60.6506009  52.9765968  44.2120239  59.8044216
  53.3660845  45.1262191  60.9461438  39.9710300  66.2152104  22.4117684
  39.9397691  65.7276316  23.2348871  39.2417797  66.8323831  22.4711323
  19.0816053  64.5412807  15.6109536  19.1814884  64.7237752  14.6766353
  19.7809251  65.0435363  16.0291922  66.6972904  31.8614719  48.3462351
  67.4265413  31.5640378  47.8022139  66.5990810  32.7885425  48.1291490
  41.0939360  10.6335235  19.9669087  41.4240742   9.7428811  20.0852203
  40.8019066  10.8985484  20.8390975  55.0907000  69.2742272  21.1948776
  54.3333413  69.8559845  21.1300850  55.3648563  69.1360773  20.2882433
  56.1330595  52.8649227  21.6162157  56.2130650  53.8187723  21.6173697
  56.9956060  52.5518923  21.8887210  62.6963945  56.0440366  14.2171049
  62.8521939  55.2492349  14.7272515  63.4951242  56.1585490  13.7021780
  74.3517967  56.5852408  24.7112727  74.6213551  55.6686191  24.6531916
  73.4705110  56.5998440  24.3379736  27.4125361  36.2097859  13.3738959
  27.2548294  37.0553589  12.9539359  28.3593440  36.0839844  13.3109534
  70.3900471  22.7055860  54.8390436  70.1232585  23.6239600  54.7985363
  69.6733308  22.2292542  54.4199228  26.9553006  31.9133453  12.1571894
  27.8432686  31.8162773  11.8132086  27.0239267  32.6172496  12.8022022
  74.1370936  64.3931137   1.6443847  74.1585132  65.1029192   2.2862175
  73.2455035  64.0489249   1.6975801  17.5402721  51.8831496  54.1474247
  18.1148370  51.5759449  54.8486614  17.6734289  52.8308122  54.1265440
  66.1964639  66.2907694  13.8037980  65.5104431  65.9874497  14.3984449
  66.5341719  67.0869677  14.2139864   4.1384157  47.7955954  21.0178924
   4.9531325  47.7177064  20.5215025   3.6883100  46.9635980  20.8715463
  16.1542404  22.0542645  31.1388564  16.1430514  22.6227236  31.9088960
  15.9565067  22.6385593  30.4069185  27.2613025  31.6479754  26.4279056
  26.6500258  31.4197016  25.7275748  27.6425409  32.4811482  26.1509299
  42.8916407   5.8535409  45.2617645  42.9280567   6.2212563  46.1447668
  41.9850540   5.9856647  44.9844933  12.5257310  60.2234273   2.8703639
  12.9127058  61.0940824   2.9622358  13.2563003  59.6629958   2.6087970
  58.0007672  17.3342478  40.1123428  57.2264600  17.6822364  40.5545902
  58.7298310  17.8382480  40.4738426  12.3339522  21.2761688  17.6994371
  12.9621422  21.8939471  17.3253250  12.2227812  20.6083369  17.0227730
   6.8926986  68.5384661  21.5452003   5.9927639  68.2745124  21.3536811
   6.9106396  69.4780081  21.3630700   4.2420501  14.4414794  35.4052925
   3.3524328  14.1130614  35.2750802   4.7464594  14.0575838  34.6880555
  15.9016800   4.6948263  49.6498394  15.1709068   5.1809478  49.2678881
  16.6828072   5.1469678  49.3310308  55.2283382  22.8169465  10.0884390
  54.8102999  21.9866800  10.3167748  54.5376205  23.3232737   9.6609187
  57.8117581  62.9306106  18.1439042  58.1970867  63.7729995  17.9027927
  58.5201128  62.2989039  18.0197608  31.5350437  21.0238481  23.4997272
  32.2962070  21.0122252  22.9194450  31.8855786  21.2915635  24.3492484
  29.1303253  33.8599086  11.3943446  29.3598843  34.2228866  10.5389035
  28.3817792  34.3820024  11.6830087  40.0541820  66.8535061  50.6655693
  40.5378159  67.1447842  51.4385414  40.5849536  67.1485971  49.9256802
  -0.1344047  22.0173478  54.7325659   0.3077304  22.7206421  55.2080917
  -0.0128052  22.2391224  53.8093853  38.4568334  14.2202342  47.8856468
  38.7844133  13.5622966  47.2724247  39.0846729  14.2079580  48.6080742
   7.9628730   2.8348210  12.8767979   8.8067222   2.6272663  13.2781351
   8.1061661   3.6733124  12.4379003   5.7627183  17.2287953   9.2316991
   6.3486683  16.4814198   9.3513787   6.1481094  17.9232538   9.7659594
   1.2047435  12.3383260  32.8096342   1.3225646  13.1940436  32.3972034
   1.5976699  11.7195904  32.1939993  25.9332156  13.2579958  27.0890450
  25.8710980  12.3030424  27.0681357  25.3557444  13.5199332  27.8060865
  11.0782039  32.1524954  10.1402915  10.9525096  31.2187195  10.3090918
  12.0067799  32.3047447  10.3157890  26.7854881  19.5883763  45.6533384
  27.1983600  20.3519058  46.0568142  26.3246298  19.1570640  46.3729334
  37.3096395  15.8815217  20.8171415  36.9207549  15.8953381  19.9426067
  36.9864345  16.6794229  21.2356186  72.2405097  25.0968623  59.6674728
  72.7618772  24.3213773  59.4600344  71.3352060  24.7860765  59.6591568
  65.7025858  50.6858544  12.2482264  65.9965642  51.0185270  11.4002073
  66.4670368  50.7727914  12.8176892  57.7577134  65.4987131  31.0312891
  57.9338600  65.2048372  30.1375103  58.4576412  66.1237185  31.2202358
  56.4378738  15.7923937  16.8608654  55.7127094  15.6286025  16.2579215
  56.0981655  16.4460015  17.4721158  12.6114877  62.7447610   6.8377090
  12.5538477  62.9384999   7.7733231  12.6478013  63.6037950   6.4170271
  73.0536665  16.8242884  47.1098804  73.5556506  16.6078675  47.8956318
  72.1478232  16.6173983  47.3398304  54.7133591  65.8815952  33.0807447
  55.4152425  66.1168022  33.6875963  53.9980738  65.5869366  33.6444592
  21.6631484   3.5292861  37.4098754  22.0717144   2.8071645  36.9325447
  22.3108411   3.7771028  38.0696559   6.3466362  28.2152189  14.4619770
   6.4953713  27.4935789  15.0730009   5.7203583  27.8666486  13.8275404
   9.0602716  51.1088543  55.3301859   9.7172602  51.6672127  54.9144506
   9.5593008  50.3693239  55.6770229  66.9266363  51.6472606  15.4571366
  66.8162259  52.2438447  16.1974943  66.2121912  51.8709509  14.8606777
  18.4645510  11.7030752  30.3127861  18.9513683  12.4301898  30.7007861
  17.5516486  11.9904506  30.3287673  31.6241932   6.1686337  13.2437277
  32.1696305   5.3894985  13.1356537  32.2340536   6.8508649  13.5245550
  70.8749123  42.3879878  35.0377393  71.2767192  41.5409510  35.2309060
  70.5821939  42.7138798  35.8888221  55.4354252  45.0256149  50.9833527
  54.5998262  45.3555100  50.6529331  55.3791549  44.0765826  50.8719778
  36.4755917  12.9341102  19.9974120  35.8007312  13.6128986  20.0039983
  36.2633944  12.3927689  19.2370486  45.3671007  43.9350882  60.2060242
  45.4063277  43.1973824  59.5973514  45.1142697  43.5428587  61.0417657
  46.6989013  63.1046502  51.0221434  46.5843870  63.9353399  51.4837408
  47.6447006  63.0294077  50.8955145   9.5675969  13.7825811  22.2344685
  10.5028832  13.9857471  22.2484851   9.5307159  12.8294396  22.1545219
  17.7914318  68.4047140  26.1887693  17.7473386  68.9245671  25.3862476
  17.4898323  67.5346746  25.9274268  41.0919046  39.3543744  13.6661589
  40.7141066  39.2389631  12.7942753  41.5686703  40.1826811  13.6128783
  62.4530339  32.2062302  19.1039193  61.9346904  32.7397370  19.7063494
  61.9733488  31.3802028  19.0421522  12.3037922   0.6126647  30.5188417
  12.0393395   1.5061042  30.7380748  12.8873384   0.7133231  29.7667980
  31.0577917  18.8533735  31.5054202  31.5564203  19.2875278  32.1975994
  30.2435112  19.3531764  31.4473033  71.4134117  68.5783334  16.7775810
  70.9610983  68.3153911  15.9760165  72.0180818  69.2652868  16.4970434
  23.6959863  46.0973263  24.1664052  23.7170076  47.0536900  24.2004371
  22.8980184  45.8583641  24.6379733  50.1622915  40.9837389   6.6163862
  49.4092083  40.9386683   7.2055048  50.8863020  41.2676239   7.1744657
  14.1974795   0.6488217   3.3641714  14.7905171  -0.0382254   3.6683151
  13.7848651   0.2805156   2.5829339  27.6298094  13.1463468  41.5122557
  26.7401671  13.4142637  41.7424440  28.1039262  13.9690149  41.3911629
  72.3444544  46.3053942  24.6098614  71.8138763  45.5136538  24.6985555
  71.8874603  46.9603252  25.1375484  67.7648300  17.9302847   6.0198569
  68.1587493  18.2288027   6.8395805  68.3107340  18.3188808   5.3363270
  19.2383178  54.7798865  11.9142163  19.7060426  54.8070280  12.7489185
  19.0122875  53.8572721  11.7962110  66.8903001  48.8086645  53.4104443
  66.0041734  48.4574716  53.4980488  67.2636779  48.3341043  52.6677370
  61.6520596  10.5274141  37.1413469  61.7986917  10.0824749  37.9760671
  61.0820866   9.9349952  36.6510344  44.5382452   1.5469284  38.5979223
  44.2814922   1.4370646  37.6823664  44.0196848   2.2907993  38.9044881
  14.4694050  44.8012845   2.7979764  14.4461664  43.8955538   3.1067538
  15.0985082  45.2348439   3.3745947  43.2355595  21.2241316   6.7793167
  43.9500237  21.8519711   6.8869609  42.7348804  21.2893081   7.5925225
  22.8941139  61.2161051  22.3700404  22.7980121  61.0039066  23.2984614
  23.5919079  60.6372546  22.0630336  13.4013557  20.0307369   8.7137800
  13.8831258  20.8505273   8.6039132  12.9417968  20.1328444   9.5472133
  74.8828106  34.2370565  48.1665366  73.9803676  34.4062861  48.4370666
  75.3826313  34.2427270  48.9828580  65.9350276   7.8430468  52.7140522
  66.5115607   8.1263453  53.4236908  66.5200036   7.4233103  52.0832968
   0.5694994  69.0777956  16.8178332   0.2222332  68.2961832  16.3880420
   1.5017875  69.0762013  16.6008794  35.5830979  11.5128207  31.7939448
  36.0910130  10.7240498  31.6039538  35.9668088  11.8562019  32.6008439
  17.9413939  14.9315977  56.7796993  17.5215828  15.4780245  57.4440861
  17.7449918  14.0341854  57.0486069  28.9361186   9.5986012  60.5395706
  28.8235558  10.2006868  59.8040057  28.7801574  10.1367787  61.3156331
  36.8459201   1.8025519  26.9731617  37.3297334   1.9671734  26.1638069
  37.5025249   1.8820652  27.6651001   7.4173224  51.8411160  28.7273717
   6.6917872  51.9909096  29.3335009   8.1804717  51.7205095  29.2924261
  62.3331491  25.4043056   9.1041679  62.3369685  26.0819913   9.7801561
  61.4129511  25.3204270   8.8543053  48.8989401  18.6843479  35.0074673
  49.1149330  19.5482075  34.6562910  49.5459795  18.0978537  34.6155524
  29.3435407  13.4814000  21.7688155  29.8522496  14.0341628  21.1756015
  29.4199228  13.9107800  22.6208901  69.7605145  18.2484078  32.3888373
  70.5753380  17.8391004  32.0976973  69.2198056  17.5181055  32.6897097
   7.0303425  23.4405963  25.9675026   7.3206981  23.9232986  25.1936007
   6.4085611  24.0281455  26.3969302  72.8935905  52.4450521  20.6050372
  73.0898734  51.6592066  20.0949860  73.7513204  52.7901356  20.8529282
  57.6850488  69.7941522  14.3958688  58.5694434  69.9088115  14.0481162
  57.1097293  70.0796330  13.6861217  43.4392452  16.8012846  18.1201601
  42.7950859  17.4154305  17.7678633  44.2846918  17.1599913  17.8503752
   3.7950027  18.6044753  43.5769653   3.5040224  19.4282210  43.9681292
   4.1300237  18.0943429  44.3143606  54.2854919  55.7382636  16.1840463
  53.9990022  55.2685361  16.9673169  55.2158590  55.5274646  16.1052251
  60.5733319  70.4212322  27.0916605  61.1176213  71.1540508  26.8036389
  60.4578563  69.8856606  26.3067675  65.5226417  66.4058985  24.0350628
  65.8970722  66.1805888  24.8866916  65.3299518  67.3413835  24.0980744
  33.9102292   6.0666913   6.9008869  33.6181569   6.7513400   6.2990713
  34.6235323   6.4705902   7.3951489  30.8223057   9.8805135  14.0423858
  31.5189576  10.2034962  14.6138644  30.5659461  10.6425953  13.5230184
   2.0009597  70.0391178   4.6235138   1.6158875  69.6794938   3.8243753
   2.3774298  70.8763223   4.3522385   6.3979968  35.0967400  56.8013954
   7.3517927  35.0208776  56.7739964   6.2294897  36.0342638  56.7071486
   2.6412948  66.2665613  20.8840799   2.3148712  66.1471446  21.7759442
   2.7115163  65.3785197  20.5338192   9.7401413  44.8099296  39.0984106
   8.9867934  44.4332115  38.6436725  10.4981693  44.5031874  38.6008835
  71.4380491  36.0954046  37.3894978  71.7356294  35.1915622  37.4931645
  71.6999894  36.5284801  38.2019424  59.9293109  69.5233916  53.4473324
  59.9649247  68.9443548  52.6859665  59.2746558  69.1249633  54.0208435
  15.0898206  12.6837695  16.1434162  14.3064225  12.3773253  15.6866765
  14.8740828  12.5991940  17.0721447  55.2988314   3.1271473  41.4279318
  54.5714390   3.6359632  41.7860317  55.9414756   3.7839437  41.1598635
   3.7402815  13.5511100  23.1700349   3.4287512  12.6836920  23.4284282
   3.4179252  13.6648488  22.2759533  42.3415033  27.0104129   8.5806198
  42.0378522  26.5516455   7.7973146  43.2194117  26.6623981   8.7368030
   7.0167887  30.6541085  13.7098682   7.0457542  29.7515559  14.0273464
   6.1136436  30.9325314  13.8616610  68.3816343  26.3980031  20.6326818
  69.2033154  26.3362908  21.1197782  67.7221578  26.5913367  21.2989736
  16.3947201   8.8357919  19.1670859  17.1234226   8.9365751  19.7795141
  16.6988814   8.1810433  18.5385787   7.5904998  69.0110642  15.6711578
   6.6771158  69.2762845  15.7789516   8.0955895  69.7857777  15.9180105
   3.4998091  62.1984826  15.3317928   4.2617615  62.4767523  15.8399522
   3.1302556  63.0122648  14.9891269  69.7793492  49.7896664  42.6860523
  69.8151775  50.4628341  42.0064974  68.9634093  49.3194692  42.5146246
  35.1135612  18.3432019  25.2818274  35.6812191  17.9481137  25.9435701
  35.6440878  19.0406537  24.8966885  25.1911068   8.3396590  24.1387248
  25.9428167   8.4955436  23.5670066  24.4342399   8.3730614  23.5536885
  -0.0002972  69.5884437  21.9010329  -0.0476066  69.1493148  21.0518217
   0.5235084  69.0008704  22.4456573  45.7208502  32.0290470  52.5242853
  44.9351346  32.5126052  52.7793407  45.6673181  31.2090421  53.0151606
   4.0752760  21.3884044  45.7937002   3.3799788  20.7931519  46.0738182
   3.8307321  21.6401172  44.9031544   4.9245334  34.5667839   8.0764759
   4.2567846  34.0766382   7.5967878   4.8425809  34.2618346   8.9800918
  10.7777417  38.2021952  25.8578658  10.6763387  38.9080548  25.2193427
  11.2075937  38.6161542  26.6062641  41.7492771  11.3577795  50.0480604
  41.8923616  11.9043875  49.2754173  40.8537436  11.5578568  50.3204870
  29.3411183   5.5010825  22.2509980  30.2663684   5.4468769  22.0118141
  29.0462804   4.5907462  22.2752786  57.7742867  54.0772441  31.4372497
  58.7213091  54.0153125  31.5619283  57.6280980  53.7539473  30.5482392
  52.2882700   7.5599337  11.5377820  51.8551302   6.7239612  11.3652432
  52.0863008   8.0969596  10.7715940  63.4058078  69.9375220  40.2134037
  64.0016445  70.3541316  39.5907927  63.8433250  70.0267841  41.0600662
  62.5826915  53.2754628  46.3582468  62.5177606  52.4590139  45.8628416
  61.8871983  53.8280027  46.0015678  26.0173821  15.4064786  38.9599228
  26.5432334  16.0346735  38.4648633  26.3951850  15.4183066  39.8393297
  21.0078120  20.4558468  22.8767252  20.2072883  20.8551621  22.5362277
  20.7481480  20.0774384  23.7167358  29.6823597   9.5828390   9.9148345
  30.2393246  10.2457345   9.5066780  29.7627616   8.8182950   9.3445367
  10.3638589  19.9436259  49.1887426  10.7763469  20.6294894  49.7137928
   9.4370764  20.1821637  49.1685963   5.7379001  24.4927049  20.8566737
   5.6161565  23.5669804  21.0675001   5.2562857  24.6174598  20.0389242
  51.1270041  60.0642447   8.4435177  51.6326140  60.4841869   7.7476454
  51.6641734  59.3195324   8.7138581  34.6667174  29.1365839   6.0209102
  34.2581651  29.9574621   5.7461805  34.2587594  28.9361884   6.8633098
  49.7407484   0.9260800   2.5728455  50.3611946   1.5472659   2.1915282
  49.4724035   1.3312532   3.3975023  37.6994658  11.8504107  23.4081888
  37.3070717  12.6735246  23.1170821  37.9240632  12.0035434  24.3259788
  18.3168077  41.4348316   5.6885386  17.8029168  41.7544794   4.9469361
  17.6969373  41.4124537   6.4175731  12.4946427  38.7669158  27.9349160
  13.4225094  38.5893798  27.7807212  12.4853110  39.5996785  28.4067726
  20.8429694  26.1903143  21.6853046  20.0498414  25.6815505  21.5169597
  20.9935188  26.0950470  22.6257777  61.2986239  66.8011297  16.6649711
  62.0920058  67.0840435  16.2102878  61.4415141  67.0553057  17.5766766
  65.9155703   1.4878401  23.8679051  66.3167048   2.3206133  24.1165257
  66.3386297   0.8403905  24.4318748  12.9910636  14.9241233  34.1788220
  12.5787127  15.7659066  33.9849138  13.8063240  14.9356186  33.6773729
   1.9084221  36.2800026  24.3544674   2.7106610  36.4454436  24.8497200
   1.2174308  36.6918039  24.8732972  45.9073544   3.7878686  35.8628631
  46.6401291   3.8448352  35.2496481  46.1400747   4.3887970  36.5706468
  15.0507697  68.9396623  42.1602869  15.3234943  69.6008017  42.7964830
  15.5295643  68.1507640  42.4144983  33.3503652  11.0608947  59.2609549
  33.2632875  10.1463211  59.5296669  32.5173092  11.2662005  58.8365793
  29.7049330  24.7936622  59.3429646  30.5244885  24.4362334  59.6847316
  29.9470584  25.6475797  58.9845893  57.4837446  46.9402218   0.6118051
  56.5770531  47.2045755   0.4560565  57.8831911  46.9305372  -0.2580118
  31.4340210   3.4609357  36.3571119  31.0672688   2.5981906  36.1637306
  31.2649465   3.5893351  37.2904706  44.1417694   8.8535947  17.8628814
  43.5628796   9.5790917  18.0969203  43.5625267   8.2038546  17.4646950
  29.5658048  58.0532376  15.7931650  29.3184169  58.9676563  15.9305310
  29.6600231  57.6953964  16.6759467   1.2678941  61.0180579  19.3766975
   0.6691989  61.5841930  18.8895786   1.4761432  61.5143846  20.1682305
  54.5160454  70.6686877  38.5448670  53.6831861  70.2120963  38.4261179
  54.9105616  70.2519261  39.3109608  26.8331552  54.0078020  14.2029846
  27.6437020  54.4207048  13.9050651  27.0342374  53.0721760  14.2228675
  58.3306217   6.5179837  37.7931714  58.7296057   6.6782904  36.9379830
  57.3890257   6.5845817  37.6344395  57.1442890   0.6844062  48.1074286
  57.4507284   0.1729180  47.3586226  57.5412035   0.2582800  48.8671017
  38.7452555  26.2210321   9.2748618  38.3259416  26.1631536   8.4163415
  39.6442151  25.9296799   9.1224802  17.8772163  12.4803162  26.8325233
  16.9923270  12.4226654  26.4721346  18.2346761  11.5980625  26.7321062
  44.8488808  17.0952928  13.0030799  43.9522886  17.1566558  13.3326006
  45.3178740  17.7983522  13.4525037   0.6303336   2.8419557   6.0499024
   0.1787073   3.4705183   6.6130853   1.5594527   3.0405003   6.1663055
  44.6860170  14.0347910  39.9922013  43.9422083  13.4390712  40.0821781
  44.9935198  14.1710460  40.8883667   3.0450797  50.5923653  32.3859119
   2.2278887  51.0850859  32.3107076   3.6389431  51.1827755  32.8495646
  26.8801761   8.0238783   7.6853704  26.0142374   7.6229572   7.7605152
  26.7075682   8.9652228   7.6677752  11.3048276  62.6648425  34.1219282
  11.7706498  61.8286382  34.1201901  11.9334944  63.2884662  34.4853878
  44.2481565  49.1730309  17.7255940  44.8321867  49.3583679  16.9902110
  44.8148346  49.2080641  18.4962296  18.7003303  36.4969730  28.3163619
  19.4895029  36.0977578  28.6825085  18.1696689  36.7228866  29.0802932
  23.6317849   4.9060068   3.0250263  24.5821238   4.8216739   2.9477277
  23.3234143   4.0122944   3.1747547  72.6220262  35.1852226  16.3424301
  73.3423468  35.4143882  15.7551873  73.0281388  35.1238704  17.2070336
  29.0467501  22.5270247  10.0287116  28.6191797  22.3151112   9.1989487
  28.4982944  23.2109761  10.4129493  19.0737407  21.4927724  55.0955080
  19.5563047  21.2999991  54.2916422  19.2605369  20.7508639  55.6707566
  43.1201029  33.8179779   3.5134354  42.1669292  33.9019465   3.4881580
  43.4353018  34.4806433   2.8988162  29.8804474  12.1979463   2.1517245
  29.8158407  12.4596822   1.2332740  29.2048550  11.5282381   2.2580153
  11.7912304  47.0453072  17.1348560  12.6020980  47.4379635  17.4581885
  11.1565042  47.7616787  17.1476209  52.7020626  20.7491735  46.3732259
  53.2988052  20.4752246  45.6767469  51.8458252  20.8008006  45.9484654
  12.1029532  11.1299562  41.8287420  12.7690291  10.5217576  42.1491671
  12.4024975  11.3735020  40.9528494  31.5002871  25.4001856  14.1601658
  31.6897440  26.3252354  14.0032482  30.6565022  25.4018283  14.6121120
  20.0177912  63.0483450   7.1196718  19.9767117  62.1692981   6.7430849
  19.7698931  63.6289681   6.4001865  20.6977113  67.4732257   6.1337918
  21.3162645  66.7468886   6.0559827  21.1969598  68.1680585   6.5629619
  54.8918871  70.0382832  58.7936619  54.1899733  69.4154170  58.6050143
  55.3214840  69.6861413  59.5731973   4.1741863  22.1958780  41.4703465
   4.0315881  23.1220794  41.2752867   5.0300896  21.9998646  41.0892439
   4.2520873  56.0289362  60.4545411   3.9759509  56.7627529  61.0036240
   5.1301353  56.2686494  60.1582189  67.2718990  19.3387759  31.0532665
  68.0124432  19.0499365  31.5865541  67.3492402  18.8349402  30.2430820
  15.6070423  25.9320021  19.6261835  16.3303721  26.1545324  20.2122760
  14.8522842  26.3939571  19.9911094  54.0432024   1.9631441  17.3031187
  53.6607313   2.6785654  16.7950654  53.2941675   1.4268775  17.5631106
  56.0367521  64.7966568  17.3437059  56.0423281  64.9122886  16.3935328
  56.4225074  63.9316104  17.4819803  71.7369377   1.1721125   0.5378770
  72.0388603   0.7479846   1.3411145  70.8717435   0.7949246   0.3785030
  12.7599105  35.7052200  14.8629677  12.0277032  35.3154914  15.3406870
  12.9199299  35.1025979  14.1366947  71.3628292  34.9885654  21.1578512
  70.6136417  35.1270747  20.5784035  72.1110153  35.3293133  20.6676030
   6.9379839  45.6510989  43.7199497   7.3954447  45.6225149  42.8796244
   7.3871907  45.0004236  44.2594481  30.8227158  16.5710294   4.2080095
  31.3044286  17.2958183   3.8094321  30.0726986  16.9869637   4.6331042
  52.9383039  25.8155203  14.8380911  52.8176546  26.5731955  14.2657220
  52.7865124  26.1550474  15.7200837  23.6089706  12.3189056  45.7617807
  24.4912648  11.9754839  45.9026670  23.0430269  11.5478396  45.7991600
   9.2496783  25.0163245   4.6243718   9.5226204  25.6686521   3.9792332
   8.5520917  24.5262790   4.1891018  32.0812607   4.7169074  21.0824108
  32.4110651   5.5291212  21.4668202  32.8686953   4.2291299  20.8410549
  45.8123465  52.8626709  11.8672884  45.1786881  52.5515966  11.2208033
  46.6330071  52.4344747  11.6235733  66.6364841  38.6683920  54.1161298
  67.3693542  38.7366003  54.7280775  66.9220857  38.0208835  53.4716188
  33.3373642  60.0461864   9.6977907  33.3615971  60.1345444   8.7449861
  33.4332848  59.1066551   9.8537195  69.6783571  54.3997994  51.0737066
  70.1587228  55.0331453  50.5404608  68.9898901  54.0725604  50.4947763
  50.6735086  14.0389657  13.4360492  50.1426744  14.5724690  12.8445947
  50.9816265  13.3135724  12.8928173   5.1020511  59.1385667  16.1571848
   4.4640335  59.1854350  15.4451656   4.7242340  59.6763043  16.8531179
  25.1088556  49.4943731  55.4496002  25.0571951  49.2275755  54.5317841
  25.9974846  49.2602007  55.7174397  49.1074308  67.8910984  22.4442482
  49.1600975  67.6725672  21.5138149  48.8048347  67.0851974  22.8628039
  27.2815061  23.7064528  19.3891740  27.3404527  23.4344125  20.3050065
  26.6963983  24.4639039  19.4015002  17.8178906  40.2486372  29.5148182
  17.3901880  39.8962688  30.2952933  18.1039524  41.1247349  29.7733736
  73.1346365  69.4870167  12.8732622  73.6844512  68.7073614  12.7953231
  72.5887080  69.4746688  12.0871067  66.6176144  54.3330170  31.0568113
  66.4623324  53.8221909  30.2623434  67.5610796  54.4945706  31.0570974
  19.4987357   4.2296147  46.0299397  20.0718379   4.8627970  45.5976582
  18.6158752   4.4821483  45.7597303  68.1412582  62.8064349  59.3607636
  68.1713609  63.5720709  59.9344582  69.0150766  62.4216727  59.4287837
  27.5169325   7.2069424   4.7438309  27.2115397   8.0885422   4.5299411
  27.3635340   7.1220553   5.6848383  49.6388630   1.0524590  15.7395792
  49.9571327   0.7603057  14.8854244  49.9914269   1.9370396  15.8367980
  68.5776520  20.1680112  13.4330368  67.7124739  19.7650898  13.5062039
  69.1644049  19.5583546  13.8805509   4.3167075  69.2727931  32.9821086
   4.5649465  68.3483638  32.9884124   4.8500236  69.6687086  33.6713529
  50.3591108   9.9077606  51.9965839  51.1744356   9.4202888  51.8788862
  49.6702528   9.2519641  51.8886995  16.6542447   6.5340799  25.0866365
  16.5786183   6.7518985  26.0156512  17.2796381   7.1711969  24.7413874
  35.9302330  18.8214433  36.7441249  35.4980016  17.9674089  36.7499495
  36.8620920  18.6177230  36.6643167  14.5233691  16.1686456  23.1317043
  14.8643792  15.7345581  22.3497128  14.0205050  15.4901326  23.5822368
  38.1345201  28.9778972  24.5349789  38.3107376  28.3899617  23.8004637
  38.0623817  28.3985567  25.2935243  47.6840643  49.3396655  59.9552083
  47.7668743  48.6916271  60.6547939  48.5815935  49.4851545  59.6560278
   2.5279320   6.0282624   7.1174455   1.6847313   5.9911168   6.6659296
   3.0892170   5.4282188   6.6263831  70.6120407  26.4002728  22.5132251
  71.3498282  26.9419241  22.2330189  70.6099480  26.4735818  23.4676123
  67.7086926  32.1220922   6.1692125  67.0208120  32.1519732   6.8341660
  67.2920084  32.4636412   5.3780413  72.8247452  18.6208761  17.8539300
  73.4546328  18.6304140  17.1332490  72.7192879  19.5419633  18.0920660
  45.7135677  32.1414614   3.8075662  45.6624746  32.4199748   2.8932074
  46.0057402  32.9212904   4.2795104  19.0700328  27.7307987   1.0883145
  18.5446715  26.9639564   1.3167523  19.9746692  27.4196434   1.1206793
  37.7439022   2.5460711  18.8175023  37.7108979   3.4673044  18.5596824
  37.5756788   2.5548860  19.7597623  35.8320411  66.6360770  41.1031532
  35.3731712  67.4515347  40.9014034  35.8752998  66.6157971  42.0591593
  20.9836435   1.9595638   2.6894557  20.0660801   2.1989128   2.8199252
  21.4004564   2.1403481   3.5319614  73.8502836  38.4974170   2.2172694
  74.1547346  38.9968204   1.4595523  74.4538403  37.7566576   2.2741185
  39.7274446   6.9432634  48.6108160  38.8684916   6.6293675  48.8934803
  40.0220299   7.5097221  49.3239594  57.7939701  28.2431602  15.1123416
  57.6650524  29.0561223  14.6237671  57.5598574  27.5518513  14.4930577
   3.0674064  37.1566319  17.7745557   2.5906074  37.8774786  17.3631287
   3.6934173  36.8725085  17.1085083  70.8622531  67.2202137  45.5750351
  70.5988006  66.7453626  44.7867828  70.7170467  68.1414464  45.3594535
   7.6492584   5.2173066  19.2041314   6.8525780   4.7895458  19.5180690
   7.3363292   5.9855825  18.7265718  18.8965051  68.6046913  47.9032104
  19.1098516  69.5028261  47.6500981  18.6163728  68.1865195  47.0890289
  18.2822517   5.6427081  48.3221817  18.9143280   5.0597890  47.9015684
  18.8130335   6.3566382  48.6754608   2.9120338  28.3093166  23.5799789
   3.6698616  27.9959941  23.0862665   2.4224365  27.5157928  23.7964153
  73.3724976  32.9316711  55.3105307  73.0428362  32.4321294  56.0575294
  72.6392269  33.4908986  55.0539923  57.6014185   9.2443937  41.0067272
  58.1217527  10.0037682  40.7443571  56.6939354   9.5418519  40.9417343
  57.5816727  50.4840565  12.6438046  56.8104219  51.0415888  12.7465987
  58.2913494  50.9790993  13.0531001  33.7510523  65.0775509  24.4143248
  33.0489715  64.4914304  24.6967793  33.5126003  65.9299420  24.7787476
  64.8898363  25.1891494  12.8833973  64.1236544  24.6395516  12.7186489
  65.4651117  24.6435523  13.4196889  43.7213612  51.6635227  10.6029737
  43.2017374  51.5322256  11.3960588  43.2138252  52.2880936  10.0847602
  26.0080894   0.2519666  54.0968763  25.8073314  -0.1142515  54.9581628
  26.1166462   1.1897956  54.2547583  48.0742168  25.2328849   3.9501002
  47.1550131  25.0623608   4.1555893  48.5516882  24.5251417   4.3829447
   5.8239830   2.4846677  14.7305596   6.5065658   2.6207358  14.0734541
   6.2340820   1.9243714  15.3894365  13.4995111   6.3704501  60.9541395
  13.0734166   5.7499419  61.5454453  12.7810320   6.7542230  60.4514066
   3.9546860  31.3946295  39.0431905   4.1185558  31.8165565  39.8866129
   3.6566866  30.5137181  39.2699480  70.1453495  36.6012025  29.1742945
  70.6085300  37.3725629  29.5009422  69.2550182  36.6951776  29.5129871
  67.6965189  32.9525924  35.0598145  67.8977108  33.5668111  34.3537760
  67.9159737  33.4283090  35.8609152  63.4979677  21.9028378   2.0676367
  62.6408529  21.9806123   2.4866126  63.4833193  22.5570369   1.3690376
  64.7270441  56.6985178  12.4249184  65.6107616  56.4315605  12.6779175
  64.7487497  56.7225218  11.4682651  66.8970490  68.3057308  20.8847117
  66.8833828  68.1146002  19.9468875  67.5273943  69.0204763  20.9743237
  39.1495343   7.4963638  18.1919355  39.0559264   7.3269293  19.1293592
  38.5577174   8.2289335  18.0206795  57.6622820  28.8494325  45.0045395
  56.7439127  29.0779471  44.8609591  57.6323032  27.9906416  45.4262209
  73.7389771  48.7838115   3.0823202  73.0989996  48.2067920   2.6655311
  73.2154576  49.3580235   3.6412830  37.0495725  67.4595022  33.8777256
  36.7460871  68.1059885  34.5150518  36.2551475  66.9998789  33.6059403
  16.4437473  16.4679968  31.4170694  16.3252151  17.4162412  31.4719701
  15.5538166  16.1166000  31.3890505  11.7210834  59.8954752  58.4392603
  11.4826410  59.6789459  57.5378775  10.8930795  60.1362279  58.8548057
   4.1015566  31.9932795   7.7763134   4.5727527  31.1946464   7.5388384
   3.1917560  31.8141913   7.5387806   1.4801872  67.2649622  26.7622256
   0.8431566  67.9512548  26.9607615   0.9519279  66.4764023  26.6383386
  55.6659365  35.6329608  28.6216044  55.8617115  35.0663161  29.3678069
  55.8091688  35.0777268  27.8551626  37.4542078  10.1363431  59.1649040
  37.7466186  10.2555095  60.0685236  36.9371303  10.9192239  58.9752745
  31.0369877   7.2245200  18.8296270  31.9560246   7.4447091  18.6776090
  30.9352020   6.3495477  18.4550631  71.1682320  26.8971133   1.4528579
  70.8251905  27.3862529   0.7049956  71.5816212  27.5614071   2.0042711
  69.7201967  54.6531630  15.3384042  69.7660446  55.2056789  14.5581102
  69.4570160  53.7940454  15.0084245  71.9997787  24.9049449  19.6661317
  72.3052216  25.6577682  20.1722884  71.8977451  25.2405953  18.7755370
  56.7368650  54.7493696  33.6919856  57.1190166  54.5794868  32.8309798
  56.3281155  53.9202547  33.9404297   0.0452507  23.1820536  34.4097996
  -0.1012528  22.3242974  34.8085737   0.5306948  22.9930830  33.6067629
  35.8462608  48.7573147   1.3069119  35.3883064  49.2626572   0.6352390
  35.3655803  48.9408588   2.1140613  72.3424478   6.3067447  41.4290385
  73.2740494   6.2476264  41.2172442  71.8967267   6.1252366  40.6016212
  72.2682476  39.3011642  23.0711722  73.0025053  39.7891521  23.4439492
  72.6552725  38.7943029  22.3573542  72.0434443   0.1382573   3.1340253
  71.2637821   0.2231629   3.6828023  72.7216021   0.6227477   3.6047721
  11.3433349  64.7974873  39.8898792  10.7001388  65.5000639  39.7954202
  11.6654480  64.6465874  39.0012264  60.0012922  33.6050987   5.6246513
  60.4488373  33.5839915   6.4705187  60.2560949  32.7868080   5.1983815
  11.0808361  34.0486431   1.2725003  11.9709766  34.2321920   0.9721775
  10.9285820  34.6834254   1.9725733  51.0909033  58.8635969  18.2741356
  50.5593348  59.4292879  18.8341928  51.1021757  59.3081188  17.4264896
  71.5504900   5.1960452  36.4113617  71.3762156   4.6048959  37.1437597
  70.6829373   5.4390319  36.0880280  13.3877361  68.0509758  31.7522311
  14.3235672  67.8887510  31.6333246  13.0403126  68.1122160  30.8624125
  66.6676474  37.9009223  45.9672451  67.0958328  37.8363156  45.1135969
  67.1788454  37.3250389  46.5358114  54.1925939  28.1519471  60.8345019
  54.7686132  27.6590358  60.2501509  54.5731767  28.0305873  61.7043642
   0.8300293  46.2444544  27.8943658   0.6057060  45.5595398  27.2644401
   0.9695041  47.0257139  27.3591900  68.5238711  31.4833386  20.6034374
  67.5791041  31.5404733  20.4606676  68.7543503  30.5958016  20.3288794
  30.5920529  36.3361359  22.3500824  30.5562258  37.1119642  22.9095840
  31.3301420  35.8299327  22.6895070  23.1352953   8.1563742  22.2901893
  23.0528931   7.3539622  21.7748523  23.6316733   8.7517674  21.7286301
  71.7573897   0.7081158  31.7748523  71.0636107   1.1769994  31.3111138
  71.9854847   1.2808640  32.5070858  26.4000099  68.3358100  40.7553654
  26.7515008  69.1888407  40.5003672  26.5665548  68.2796982  41.6962938
  62.6627970  14.9968970  53.8513422  62.8117466  15.3437150  52.9717064
  63.4849167  15.1575553  54.3145275  49.4644165  15.4544330  11.1067224
  48.6066771  15.8547163  11.2491643  49.3651104  14.9579620  10.2943885
  24.5653824   0.2470715  37.2721291  23.8778452   0.6132777  36.7158723
  25.3759865   0.4106410  36.7900515  70.9510946  50.0446653  34.4262815
  71.0867357  49.9076414  33.4887004  71.6690922  50.6198502  34.6906185
  74.6244669  31.3077950  36.2255883  74.2236948  30.4394960  36.1847281
  75.4651737  31.1633563  36.6598463  62.5450802  42.1693373  18.5048711
  62.2498655  43.0772686  18.4360123  62.0754194  41.7112541  17.8078699
  53.1308111  69.9088615  28.4440970  53.4877666  70.6726322  28.8973832
  53.1247743  70.1597282  27.5203753  28.2587580   4.5747741  26.6368628
  28.1576399   5.2593262  27.2982216  28.2632450   5.0456507  25.8035040
  53.5892200  60.1381350  19.5076919  52.9401016  59.5925140  19.0636420
  54.2583752  60.3028822  18.8433743  45.7431316  33.9986134  45.2810907
  44.9572325  34.3343449  45.7122326  46.4283943  34.6267557  45.5093193
   3.4924400  37.7324200  20.4680419   4.4109619  37.4651337  20.4347730
   3.2235611  37.7803469  19.5506322  51.0279970  62.6267532  59.7609440
  51.5130024  63.4267548  59.5584570  50.6900053  62.3311261  58.9156051
  73.8787250  54.3177501  45.6662660  73.0370216  54.0465191  46.0326009
  74.5209102  54.0670398  46.3303237  38.1207975   4.9477445  47.1489446
  37.6658233   5.4201757  46.4517777  38.9891466   5.3490411  47.1830445
  51.3516907   8.5672791  48.8179922  51.6739563   8.1676562  49.6258783
  50.4459766   8.2659705  48.7464619  73.0263662  70.2182007  15.6444085
  73.9207506  70.0494814  15.9407842  73.0411386  70.0131512  14.7095466
  25.3589825  14.6564229  32.7455187  25.2796606  15.4439481  32.2072315
  25.7820944  14.9575360  33.5495973  70.5968761  32.4424124  48.1402874
  70.3940105  32.3842645  49.0739346  69.8439693  32.0413065  47.7061558
  23.1305473  69.4854668  40.5270987  24.0157668  69.4198778  40.1688843
  23.2497709  69.8854998  41.3884883  74.3041420  61.6458750  28.2263875
  74.4231272  62.3854256  28.8223243  73.3572340  61.5925074  28.0969667
  15.1602857  68.8195899  35.2010327  14.2148368  68.9521793  35.1319008
  15.5403345  69.6480349  34.9086671  71.9125462  59.2516136  34.2931724
  72.8591776  59.2364454  34.1521358  71.5387821  59.2315149  33.4121895
   2.3214443   1.7103025   1.2499924   1.6636189   1.5626475   0.5704994
   3.0182369   2.1949741   0.8074970  66.2992859  55.0436783  43.5482025
  65.4366207  54.6898556  43.3317566  66.9123411  54.4987535  43.0547953
  22.9940117  32.9628372  30.4569125  23.3079994  32.5763035  29.6394587
  22.4508179  32.2805047  30.8513665  55.8674034  19.0030490  59.3788907
  55.0942024  19.5191394  59.1507596  56.1226925  18.5791122  58.5595404
  67.3805618  23.1859922  38.5780144  68.0896568  23.5216618  38.0296183
  67.7963591  23.0000377  39.4198942   4.4091562  10.7544453   1.9579092
   5.2992014  10.4434045   1.7926469   4.5135120  11.4390118   2.6187527
  65.4037666  57.8587341  37.3439837  65.7766342  58.6033249  36.8719792
  66.0934830  57.1952152  37.3278499  56.4911938  30.7959628   3.0369124
  55.8526611  30.5121183   2.3827380  57.1149778  31.3311362   2.5462911
  59.5135593  30.7653952  15.3333521  60.0909328  31.3573027  15.8155489
  58.8529110  30.5009580  15.9735489  58.6106205  66.8196630  27.3956275
  57.8032875  66.6910791  26.8977165  58.4793615  67.6493073  27.8546453
  63.3797884  33.1525183  31.9604230  63.9433575  32.7874231  31.2782764
  62.6350164  33.5200119  31.4845085  39.3805794   7.0189126   7.7683765
  38.5163216   6.9659503   8.1763881  39.2651085   6.6130765   6.9091946
   2.3105419  60.0143957  31.6262746   2.1576917  60.1397324  32.5628400
   2.8710258  60.7484388  31.3747239  63.2790279  30.8938384  33.8168406
  63.9788914  31.1531949  34.4161367  63.3379316  31.5194297  33.0947614
  19.1373432  53.1092453   5.3259772  18.7446869  53.2250357   4.4607368
  20.0707805  53.2709980   5.1889801  59.2912436  31.8159056  10.6265759
  58.3725309  32.0263219  10.7936835  59.7483253  32.0908165  11.4213920
  18.6166637  64.6016458  60.3521388  18.8393848  65.3852275  59.8495162
  17.7941005  64.2970589  59.9689322  10.1931302  56.1589077  45.3123908
   9.3548362  56.2186817  45.7705574   9.9572580  55.9588841  44.4065290
   0.6944883  38.4150243   9.7469699  -0.1688301  38.7323713   9.4820201
   0.7855356  38.6995220  10.6563675  56.4011654   5.5670701  60.8390002
  55.5609688   5.1496183  60.6491731  56.7830547   5.7390176  59.9782901
  52.3807526  45.8981228  33.7498927  52.3571444  45.9713459  34.7039962
  52.8613043  46.6742516  33.4619284  65.5738354  17.0139682   7.7796882
  64.6948433  17.3470318   7.5989431  66.1389923  17.4847221   7.1671337
  10.1684778  69.9443343  20.3087883   9.3766563  70.4636219  20.1688271
  10.3912418  69.6085122  19.4405537  70.8055162  30.7491136  40.7945824
  70.6956005  31.3159657  40.0311518  71.5450907  30.1847243  40.5693436
  50.2133306  32.4976264  53.8950007  49.3083938  32.4858962  54.2067449
  50.7250961  32.7731858  54.6555226  25.1994865  65.0337914  47.9620712
  25.0416152  65.8081678  48.5021167  25.5449884  65.3815344  47.1399181
   8.9310062  62.8473854   3.2682952   9.7597301  63.3062124   3.1306919
   9.1805160  61.9297123   3.3771628  68.4484291  39.9444413  27.6302195
  69.3968582  39.9324536  27.7589464  68.3162165  40.5200434  26.8769383
  47.0660957  34.3012773  52.0881568  46.8624004  34.7436677  52.9121916
  46.5097316  33.5223781  52.0905667  20.7515005  -0.0875537   5.0251669
  20.3451971   0.7788022   5.0491875  20.8778624  -0.3184335   5.9454703
  52.0449623  17.5614034  53.2349472  51.9227298  18.4446727  53.5829823
  52.7692541  17.2005998  53.7462740  65.9510183  20.8425474   6.7849320
  65.9611988  21.5822005   7.3924208  66.7104149  20.3164196   7.0354021
  12.8899782  57.9447940  54.5444756  13.5877340  57.4561623  54.1078894
  13.3472745  58.6238864  55.0404041  32.5092840  53.8507986  23.1884122
  33.0890822  53.8849926  23.9492631  32.9449320  54.3929386  22.5307441
  73.7890577  45.3178453  20.7039523  72.8742075  45.5989933  20.7193828
  74.0509510  45.4048920  19.7874010  21.0767257  51.5442991   9.9099863
  21.8043602  50.9263802   9.9803948  20.3219402  51.0655403  10.2525079
  19.0036015  23.4564717   6.9261336  19.4039921  24.2593510   7.2597539
  19.2013983  22.7962621   7.5903887  28.1771807  23.0971558  43.0912781
  28.3246760  22.1661980  42.9245615  27.2329620  23.1687863  43.2311153
   2.5189356   5.3482516  34.8162484   2.9256252   5.1898940  35.6681609
   2.0275072   6.1613496  34.9328828  74.1618395  45.5927849  39.4855046
  73.3223915  46.0122395  39.6742201  74.1522884  45.4531288  38.5385966
   3.5783533   7.0577891   1.9921923   2.8426556   7.4773200   1.5461276
   3.9041380   7.7249606   2.5963259   9.8645008  68.4121084  17.8019261
  10.0501049  67.6368093  17.2721219   8.9901817  68.6871195  17.5259292
   8.9524702  10.5411847  38.3020020   9.0036110  11.3524945  37.7966475
   8.2792191  10.0249512  37.8587556  50.2013731  35.7655025   4.4835848
  51.0281372  35.8650184   4.0115795  49.6204710  35.3297949   3.8599300
  56.6608143  67.8513479  16.3075852  56.3292456  67.1136999  15.7955587
  57.1224785  68.3967304  15.6706762   3.5350597  26.3016057  38.4968376
   3.7826908  26.5359163  37.6024055   3.1078470  25.4492831  38.4116030
  21.6623835  18.8446172   8.6545658  22.4360661  18.7874158   8.0938733
  21.9627432  18.5359509   9.5093977  45.4594088  12.0292675  46.3648033
  46.2949419  12.1085215  45.9045506  45.6603289  12.2701669  47.2691441
  62.9833078  52.1575212  26.4623976  62.2987413  51.6105843  26.0770941
  63.1771088  51.7421389  27.3027134  46.1118813  27.7805206   2.0817633
  46.9815131  28.1804535   2.0871897  46.2078925  27.0060274   1.5275307
  35.0991047  20.4171777   7.8561521  35.6472481  20.7838178   8.5499448
  35.2349270  19.4716883   7.9180473  45.5337557  21.3714944  48.5955887
  45.9258541  21.5966807  47.7519183  45.1359209  22.1871005  48.9001315
  41.0833458   8.0355819  23.3985138  41.3012699   8.0403025  22.4664640
  41.3892750   8.8835700  23.7203145  70.2089977  65.8929586  43.2327461
  70.5517006  65.0161362  43.0596256  69.6416903  66.0803556  42.4848986
  60.1997224   1.8971618  27.4568772  59.9769346   2.3873217  26.6654634
  61.0205427   2.2874100  27.7571964  63.9425516  59.6694326  20.2782011
  63.1933975  59.8870277  19.7235382  63.6042023  59.7284079  21.1716628
  15.2933872  35.6546855  28.5007501  14.5293892  35.1931667  28.1550121
  15.2518642  36.5219855  28.0978823  47.0553175   1.2040599  39.4146085
  46.2135092   1.1911137  38.9591694  47.2490422   0.2824910  39.5861077
  70.9692192  44.2416286  25.5188084  70.2106476  44.1725540  26.0984826
  71.2783051  43.3410549  25.4204702  63.5665846  57.8562403  55.7283688
  64.4268656  57.4371672  55.7513952  63.7346697  58.7625313  55.9864664
  14.9065292  52.4143505  12.1898627  15.0891388  51.5178299  12.4711716
  14.8659027  52.9170704  13.0034077  69.3530226  45.5146265  22.9749346
  68.7540054  46.2145424  23.2348061  69.6067333  45.0983524  23.7986922
  72.0745134  36.5512681  26.6616750  71.3410854  36.9425440  26.1871076
  71.9079590  36.7662525  27.5794291   4.9298990  12.7360916   3.6845651
   4.4602859  13.2713497   4.3242484   5.7420051  12.4905920   4.1277850
  15.2562876   9.7091076  11.1870451  15.6425496   8.8413688  11.3056536
  14.6686812   9.6093675  10.4380436  65.5048323  65.8360195  20.4337454
  65.2170658  65.4755211  21.2724733  65.0921297  66.6985464  20.3895307
  45.1702102  27.8152238  53.5200178  45.3477462  28.0593787  52.6116662
  45.9333738  28.1281816  54.0056848  55.0176334  53.5818338  27.6377773
  54.2986727  53.3499575  27.0499325  54.5873070  53.8323784  28.4552622
   0.4011286  59.2054033  47.1650553   1.3151539  58.9346123  47.2514057
   0.0027645  58.5316849  46.6140175   4.3869579  34.9838829  44.4348383
   4.5646322  34.6832514  45.3260660   3.5566366  34.5679808  44.2028332
   5.7141980   4.9005138  53.6013024   4.9534401   4.7580873  54.1645013
   5.6473597   5.8177577  53.3359109  28.7643993  44.1102171  14.5732534
  29.5229614  44.6022511  14.2590475  28.9980305  43.8537979  15.4653871
   8.7216270  41.3263178  10.9581852   7.7777756  41.1818457  11.0252213
   8.8036812  42.1787882  10.5306411  25.1556373  49.9314213  14.0569127
  24.6912909  50.3993988  13.3629298  25.8191562  50.5507326  14.3609297
   1.5994871  57.1251678  15.0996661   1.0940063  57.3278713  15.8868313
   2.1003187  56.3430595  15.3314304   3.5550678  70.3124428  20.6103230
   4.0313566  70.0337172  21.3924289   3.4930122  69.5224237  20.0734329
  10.2948670  51.3685728   0.5442161   9.6154312  50.6954683   0.5051155
  10.0618128  51.9847609  -0.1502114   3.8390243  33.7169075  30.8770680
   3.4245193  33.2057548  31.5721512   3.7862528  34.6227360  31.1818957
   8.4236801  48.9772654   6.7762196   7.9423797  48.4372854   6.1493176
   7.7783668  49.1968393   7.4482262  61.2113667  53.7054825   5.0258803
  61.0860395  52.8093958   5.3382081  60.3344679  54.0889788   5.0402397
  11.2340550  14.9014790  20.0266933  10.6640534  15.3734048  19.4195497
  12.0932011  14.9105676  19.6047735  54.7671986  60.7783508  17.2168970
  54.4185972  59.9675226  16.8464112  55.7031822  60.7492971  17.0185900
   8.1879509  44.7283697  20.5625582   8.5592544  45.6038427  20.6716990
   8.0015266  44.6623230  19.6260130  52.7062368  51.8796635  18.2704091
  51.7668962  52.0605946  18.2366800  53.0276251  52.4161911  18.9950359
  15.0359793  52.5874826   7.7131815  15.8823319  52.8438303   8.0795212
  14.4766708  52.4477693   8.4773035  42.5704960  18.7373002   2.9603106
  41.9921688  18.9571412   2.2299473  42.1794514  17.9544576   3.3482170
  32.5865730  27.7778398  53.8807433  31.9810375  27.4173986  53.2329469
  32.3903688  28.7145721  53.8968485  57.4361467  28.1858206  19.3740928
  56.8778801  28.5856605  20.0409508  57.7126980  27.3547220  19.7601342
  59.6783829  65.5817747  46.1606216  59.0367079  65.9070492  46.7920351
  60.3172207  66.2902260  46.0817862  25.4632811   9.1140158  11.4061558
  25.6637959   9.6031602  10.6081808  25.6580500   8.2034905  11.1842656
  47.9567623  68.1958961  35.1617241  48.4170151  68.9569902  34.8079753
  47.5537348  67.7833319  34.3977952  67.0017624  58.7277460  12.4665594
  67.8264570  58.5956097  11.9989586  66.8847656  59.6776438  12.4820805
   2.4240025  54.6579944  52.6138525   3.3699139  54.5878516  52.4851589
   2.0900949  54.9680244  51.7720555  32.1579651  29.4730122  12.4522638
  31.9820885  30.3280385  12.0595407  31.3124184  29.0245850  12.4383843
   4.5711378   8.1283696  20.0753284   4.6722988   7.9586156  19.1387498
   3.7796787   7.6495583  20.3214121  44.3807320   1.5080293  24.4669032
  43.9946560   1.0312779  23.7321329  44.2208199   2.4298842  24.2648053
  64.3912649  32.5590873  13.2791626  64.8117304  33.1463790  13.9072776
  65.1098442  32.2349691  12.7361894  11.9815210  15.9671910  56.3559723
  12.8051809  15.5133660  56.5344763  12.1525768  16.8776162  56.5970039
  68.7272501  63.3637428  33.2945919  67.8538036  63.5411549  32.9455280
  68.7905025  63.9160442  34.0738153  63.0910444  43.3295631  48.6056519
  63.7858391  43.9023113  48.2809162  63.0881882  42.5889397  47.9992628
  48.9737741  14.3336804   8.5563934  49.5650832  14.0086777   7.8774536
  48.1906716  14.6094640   8.0800259  58.0419827  58.8462830  35.7423306
  57.8491688  58.3049583  34.9768114  57.4968004  58.4796000  36.4384270
   4.9812067  38.3801246  43.2034445   5.2252949  39.2804742  42.9889202
   4.3988025  38.4632874  43.9585114  30.8988556  17.5586711  45.1579015
  31.6204532  17.7726852  44.5665257  30.1158079  17.8664981  44.7014933
   4.6866310  67.0355272  50.3104544   4.2880905  66.3153076  50.7990074
   4.0954197  67.7753592  50.4495478  69.3911266  40.0763941  45.1246881
  70.0448275  40.5755997  44.6351004  69.8917675  39.3827367  45.5541420
  56.2490320  54.6851730  38.1369925  56.8338013  54.0591526  37.7099371
  56.4771461  55.5296326  37.7483010  70.9537999  14.4303639   9.2020220
  70.3858582  15.0841935   8.7943757  71.7017666  14.3596394   8.6089182
  54.5953735  10.7904206  60.0060648  53.9005312  11.0169421  59.3879119
  54.1401418  10.6453239  60.8354861  51.7863226   5.5248928   1.9759762
  50.9169817   5.7854962   2.2802141  52.1786594   6.3347691   1.6497806
  50.2424145  63.9015532  28.2679796  50.3262234  64.0843105  29.2038274
  51.1186123  64.0551615  27.9145408  24.3962149  15.6556447   9.9168879
  24.3046431  15.2380688   9.0604556  25.2126602  16.1515076   9.8555148
  54.7230291  63.1419897  25.2449393  54.8800707  62.9926109  24.3125987
  55.5385780  62.8775311  25.6705785  36.7076286  12.1853934  51.9044529
  36.1433300  11.5975820  52.4067216  36.1082205  12.8310357  51.5301674
  38.3525825  54.6582890  16.3598382  37.6768756  54.0396023  16.6371047
  38.3481741  54.6053505  15.4041135  18.3722977  20.5913194   7.8204304
  18.5967259  19.6759732   7.9877859  17.4577669  20.5660947   7.5389612
  61.3097525  51.0009527  10.2987421  61.3338995  50.9053087   9.3466383
  60.4204369  50.7444239  10.5427516  19.0484289  13.4105428  15.6319797
  18.3104757  14.0014489  15.4819965  18.6432652  12.5793870  15.8794653
  59.5546961  44.7660732  14.0687954  59.4275045  43.8315535  14.2322814
  59.4544888  45.1753902  14.9282420  29.8765182  62.8525019  38.9341879
  29.0428162  62.5097322  39.2561841  29.6349382  63.6149979  38.4083867
   9.8826301  51.5256929  16.5099168  10.0690735  51.4943409  15.5715740
   9.1146076  52.0923281  16.5827072   7.3246372  48.0434084  17.2810876
   7.6407707  47.1841145  17.0019829   6.6095341  48.2433271  16.6770208
  49.6670755  23.2707320  55.9802859  49.1184648  23.0079375  55.2412348
  49.8115476  24.2079555  55.8499890  27.8606800   3.0103619  30.3748107
  27.8208546   2.3009332  31.0161805  27.0155529   2.9758532  29.9267030
  69.3317127  46.2709713  27.1618199  69.9340820  45.9842920  27.8482604
  68.7372494  45.5306482  27.0403099  17.5779804  30.6558047  54.0107982
  18.4276708  30.2370130  53.8734226  17.4954065  30.7236777  54.9620115
  34.3021798  56.0451317   5.2754658  33.3636427  55.9739161   5.4495519
  34.4516087  55.4667711   4.5275348  65.9643316  60.9785414   5.5546772
  66.8706799  61.0088253   5.8610201  65.5447769  60.3234100   6.1123616
   8.8970474   1.4323027  25.0923991   8.4384827   1.2029488  25.9006977
   9.5065884   0.7083066  24.9491382  62.1728420  39.4646144  53.0768108
  62.7896690  38.9507771  53.5980892  61.3908339  39.5282865  53.6251116
  37.7995133  61.0078287   0.7273033  38.6297369  61.2701607   1.1249736
  37.7639961  60.0592756   0.8506741  19.7398313  23.7954818  59.3028902
  20.1212248  23.0810557  59.8131477  19.3097385  24.3510686  59.9529508
  65.8490896  29.7754431  49.8845005  66.0336685  30.6275725  49.4894838
  66.7012453  29.4625282  50.1880550  34.9286684  64.4544707  59.8658667
  34.2152628  64.7952281  60.4054660  34.4940695  63.9060126  59.2127599
  45.3982706  24.2434427  10.0093813  44.5762368  24.5969841  10.3492327
  45.5767126  23.4808561  10.5597038  47.5496836  34.5323774   2.9573269
  46.7104645  34.3588754   2.5309009  47.3380728  34.5868370   3.8892574
  13.0693325  17.7564679  52.3497616  12.8926619  17.2738324  53.1572764
  13.2214698  17.0769464  51.6929995  35.7512764   5.8458789  51.7379713
  35.2450756   5.1533873  51.3131809  35.3358177   5.9559996  52.5932455
  24.8002962  26.1904557  10.3064334  24.9822334  26.6182072  11.1431873
  23.8551573  26.2861760  10.1890159  66.6946236   7.5492604  11.4665091
  67.0606390   6.6696294  11.3742650  65.9501616   7.5632031  10.8649993
  57.3262787  69.7409439  40.0496387  58.1076241  70.0311852  40.5202675
  57.3982954  70.1531219  39.1887355  61.8218422  22.9427671  25.9928083
  61.8404770  22.7425599  26.9286513  61.0597801  22.4677444  25.6613803
  55.3256416  51.5843296  13.6780918  55.2064610  50.7123089  14.0544021
  54.6221352  52.1085596  14.0608454  67.4493694  60.7546473  33.2254791
  68.1591749  61.3782167  33.0719519  67.2947979  60.3524923  32.3707247
  21.8024687  14.0999635  41.1528683  21.2502150  14.3506367  41.8934155
  22.2483257  13.3048852  41.4449167  59.8408794  38.3163404  40.9216690
  60.6527233  38.8207293  40.8694506  60.1187372  37.4050188  40.8293676
   6.9021467  12.4901803   7.9472494   6.8035225  11.6306336   8.3567309
   7.8485493  12.6247914   7.8978759  22.9925636   6.4771064   9.7359771
  22.7320484   7.0561297  10.4522848  22.2047285   5.9704192   9.5389664
  50.1966993   6.8417437   3.4863666  49.5013682   7.4695714   3.2899541
  50.7913605   7.3167737   4.0668446  53.5495663  50.0470352  35.4426908
  53.5252523  49.6518898  34.5711970  54.0889883  49.4501591  35.9613395
  70.7263088  35.9300661  10.6323063  71.0737991  36.8193102  10.7010508
  70.6947613  35.7573199   9.6913522  18.7886290  18.7344392  35.1218915
  19.0406565  19.2746861  34.3729901  18.8959936  17.8342374  34.8147583
  20.0602373  20.5759345  57.6204934  19.1209015  20.7311355  57.7194582
  20.2955803  20.0401317  58.3779632  62.4319649  57.2489262  22.6896620
  62.4970102  56.6173410  23.4059763  62.8026295  56.7930508  21.9340014
  28.0000083  68.1607393  61.2732817  28.4004276  69.0048364  61.0649670
  27.5877874  67.8828171  60.4553173   8.8694179  48.3926439  39.3915534
   7.9847992  48.6107302  39.0981030   9.4238079  48.5666084  38.6308789
   4.9437702  26.0791159  33.5393763   5.6724823  25.4831862  33.3659601
   4.2039335  25.5031013  33.7319350  64.4222069  50.4021215  31.1712480
  63.8866806  49.9578142  31.8285418  65.3185511  50.1310062  31.3694811
  71.1593437  55.7064581  49.3008232  70.5834246  56.1415720  48.6721563
  71.8992090  56.3052607  49.4021606  54.1626215  67.4702930   2.7532768
  53.3443451  66.9804382   2.6714405  54.4262791  67.3455763   3.6649579
  63.5045671  46.4958382   6.0467213  63.6594725  46.6840124   5.1210713
  62.8580379  45.7899952   6.0427141   6.7266230   0.2807410  30.1302099
   6.8190149   0.3987344  31.0756040   5.7816128   0.2935059  29.9784708
   1.5462339  64.0589380  32.3528051   0.9445846  63.3145952  32.3668742
   1.6807354  64.2756605  33.2753968  58.3538818   7.8429526   9.3125945
  59.2842722   7.6887757   9.4763923  57.9970598   8.0846876  10.1672721
   9.2588333  21.7851956  32.0731568   9.0217165  22.1960862  31.2417841
   8.9502482  20.8828385  31.9909596  60.2929688  54.4661570  17.7246678
  59.6724701  55.0611067  18.1456816  59.7506714  53.7516499  17.3905730
  62.2240162  19.2721188  57.5133324  61.6715527  19.7253537  56.8764639
  62.2060966  18.3559036  57.2368193  60.8598948  49.0260267  36.3303757
  60.5378819  48.7768745  35.4640818  61.5388918  48.3809853  36.5281463
  55.6596327  51.6122055  17.4886286  55.2547646  51.9585943  18.2838202
  55.1238394  50.8532381  17.2581315  71.4900875  63.7334728   0.1320840
  71.5798378  62.7959251   0.3029198  72.2315502  63.9456749  -0.4348696
  68.6488152  50.1020193  55.1011944  68.4143353  49.7587252  55.9634018
  68.1516457  49.5633793  54.4856262  22.7614645  12.0775063  42.6240206
  22.9660753  12.3666032  43.5132837  23.0392555  11.1618169  42.5999784
  37.0610813  14.3422540   0.6911716  36.7172817  14.9165852   0.0069356
  36.5189175  13.5551865   0.6380019  26.3464058  60.4785776   4.5479134
  26.9608772  61.1678982   4.7998837  26.7632282  59.6677876   4.8396531
  25.0178246  20.9437878  33.5195804  25.9185700  20.6199487  33.5229278
  24.6823458  20.7276089  34.3896103   0.9644115  38.9022946  43.3361912
   1.3290298  38.0528021  43.0879021   1.6139686  39.5384645  43.0368614
  40.0028885  63.8897991  29.1000104  39.5065582  63.1990337  29.5390201
  39.3751419  64.2906237  28.4987569  51.4258957  68.4939718  56.9483471
  51.5969753  69.4357443  56.9431353  52.0478106  68.1410837  57.5846815
  49.3066692   9.9397415  55.5200969  49.1880083   9.0027565  55.3644948
  48.6332798  10.3587002  54.9841409  28.4433130  25.9292062  12.4599326
  28.4506611  26.2007268  13.3777845  27.5494770  25.6222089  12.3081255
  56.7039061  35.6268716   1.1093172  56.2168932  34.8829412   1.4637432
  57.4961329  35.6714821   1.6446905  13.8353018   7.7268203  19.3237662
  14.6815399   8.0834897  19.0537632  13.2660917   7.8608973  18.5659719
  12.6598176  66.5766369  12.7538097  12.0751628  66.3102321  13.4633446
  13.4958895  66.1603095  12.9632998  15.2363508  53.0849651  54.9726747
  15.4721610  54.0065900  55.0786524  16.0702770  52.6402977  54.8208087
   7.4875649  64.7289012  41.4574623   7.9052337  64.1609667  40.8099794
   7.5087484  64.2224555  42.2694349  47.3716354  15.4263425  24.5292616
  46.6459846  15.1641071  25.0957370  47.1406269  15.0788927  23.6677837
   2.4083297  31.5652698  53.8906400   1.9697921  30.8974511  54.4178378
   2.1422880  32.3954025  54.2860316  73.8579349  46.5390149  33.7392788
  74.1148595  47.3012439  33.2204085  72.9906301  46.7611125  34.0779357
  71.6359254  68.8750421   7.0626587  72.0507356  68.0810715   6.7253530
  72.3671766  69.4504394   7.2872096  34.2308784  35.6587529   4.7955659
  34.4902396  34.8000884   4.4614094  33.4998226  35.4753160   5.3855979
   5.6689275  66.8446155  39.9693136   6.0289419  66.0474248  40.3580432
   4.7740192  66.8920608  40.3056460  14.6087798  53.7644367  29.3927550
  13.7056574  54.0118365  29.5912433  15.1100382  54.0568642  30.1539755
  40.7023843  68.2964982   5.1644021  41.3028177  68.9862806   5.4470885
  39.8858341  68.4854290   5.6267655  49.7761345  11.0925746  12.3247921
  49.0252590  11.2360620  11.7487466  49.3996096  11.0540414  13.2039833
  32.7700075  65.1824205  20.0820780  33.1038793  64.4795679  19.5246184
  33.0719932  64.9546574  20.9613705  33.1193718  61.5282576   2.4359906
  33.4897073  60.8660530   1.8524095  32.3761448  61.8864946   1.9506937
  72.3078680  20.7287669  21.6706157  71.8490362  20.5609345  22.4937415
  73.0089045  21.3362455  21.9067287  72.7297620  49.1582838  60.0929922
  72.2667961  49.9607423  59.8522521  72.5010805  48.5340479  59.4043215
  68.1067848  45.7188082  13.8824475  68.9552498  46.1318445  14.0428770
  67.5687361  45.9785366  14.6302950  58.5090284  32.5971604  41.4003401
  57.8465085  31.9816098  41.0866611  59.1948108  32.0422131  41.7717819
  30.6140089  16.6181862  26.1734009  30.0844479  17.4139953  26.1235619
  31.4613271  16.9147432  26.5055776  10.9718943  38.1753612  22.7778673
  11.4852047  38.1141639  21.9722629  10.1771307  38.6426616  22.5205493
  51.5502977  16.5737474  22.8418446  51.3745165  15.6423664  22.9754972
  50.8168793  16.8819332  22.3095417  54.4039869  29.7508979  11.0191333
  55.1255846  29.1299820  11.1191118  54.6743011  30.3179860  10.2969337
  71.1293106  34.2442950  31.6256337  71.0318594  34.9216816  32.2948747
  71.9795637  34.4244127  31.2245612   6.0480468  53.4975615  54.4070660
   6.6703479  54.2242149  54.3763100   6.3263194  52.9755989  55.1596277
  44.4711542  15.4046404  48.8716269  44.1947508  15.1496243  47.9913998
  45.2206326  15.9827769  48.7292433  13.1772125  27.5400567  25.1989460
  12.8966320  27.0949054  24.3993521  12.4510277  28.1251383  25.4147577
  27.4046028  39.0113258  29.5161605  27.9400242  39.2725801  30.2653599
  27.3728073  39.7905445  28.9611483  52.9130463   3.2906035  39.4105749
  53.2747345   3.0797222  40.2713566  52.0272188   3.6039499  39.5932131
  66.3250113  22.0314813   2.1997872  66.4815283  21.4486670   1.4567783
  65.3845739  22.2076559   2.1720499  64.9611267  67.7888964  42.6206493
  65.5683120  68.3989744  43.0394077  65.3676876  66.9299184  42.7350950
   7.7625656   4.8394182   9.0656739   8.1943417   4.5486808   9.8689628
   7.1691066   5.5342388   9.3507409  12.6547115  57.7038697  50.4018777
  12.7337186  56.7669848  50.2223330  12.1590917  57.7500966  51.2194698
  11.9708332  63.2114719  14.4453037  12.7793535  63.6249898  14.1427648
  12.1505626  62.9705273  15.3540802  57.5983433  45.7648841  48.3376699
  57.0102768  45.0257710  48.1823557  57.0145492  46.5121535  48.4680753
   4.0688197  30.2527505  59.3793497   4.9681871  30.4156345  59.6636647
   4.1140382  30.2643657  58.4232890  55.3073530  58.3022312  53.0693232
  54.7305946  59.0241054  53.3192753  55.0012354  57.5597337  53.5901134
  20.2832341  28.6061478  16.4573967  20.8110595  29.3668294  16.7002904
  19.5420492  28.9729643  15.9753990  54.5353889  36.2756157   6.2207526
  54.9856615  36.8603587   5.6111920  55.0455046  35.4660177   6.1970377
  33.6429743  69.9043301  52.5311046  34.4116525  69.8069599  53.0931418
  33.9346515  69.6003130  51.6716098  18.7473806  58.9952044  40.6317186
  19.1166910  58.1255977  40.7854223  18.8228830  59.4401126  41.4758682
  20.0640933  49.7288636  54.1919254  19.8649423  50.3540150  54.8888879
  20.9650056  49.4558516  54.3652921  37.4011116  31.5163744  55.2524226
  38.2584970  31.2420094  55.5777626  37.5353412  32.4152538  54.9520396
   5.0472181  42.5257680  42.7729504   5.8257787  43.0176935  43.0338710
   4.5992296  43.0987868  42.1507042  11.2900369   9.6629361  58.7077138
  11.5109079   9.8316935  57.7917617  12.0145719   9.1295245  59.0344453
  26.7126322   8.0829376  19.3184733  27.4715948   7.8642517  18.7777495
  26.6094232   7.3309940  19.9017060  66.6425562  20.6574941  59.9191999
  66.5528107  19.9127007  59.3246746  66.9117498  20.2685928  60.7513809
  19.4913447   5.6581759  42.4466944  19.1022277   4.7837156  42.4584675
  20.3053570   5.5515033  41.9545174  54.3918260  49.3625133  17.5609088
  53.9401563  49.5258753  16.7329359  53.7848743  48.8171189  18.0612946
  65.8114958  11.5376174  13.2534242  65.8166027  11.6072941  12.2987771
  66.2343884  10.6982279  13.4345770  42.7345514   7.0748472   1.8889005
  42.8049517   6.3173389   1.3079894  41.8485975   7.0204240   2.2471598
   3.3614572  59.6158724   5.9939539   2.7536353  58.9373152   5.7001096
   4.2140301  59.1812067   6.0143507  48.4711389  52.4240795  60.4420792
  48.9635734  51.6033593  60.4294125  48.1156425  52.4764291  61.3292733
  42.5524072  21.7375198  51.3790010  41.6452484  22.0180074  51.4999174
  42.5660996  20.8314768  51.6874312   7.8220833  12.4252427  45.8191490
   7.6885975  13.3459163  46.0444832   8.6570156  12.4117982  45.3512383
  57.3603382   4.8410808  40.8198862  58.0237105   5.0207912  41.4861243
  57.8238895   4.9380742  39.9880533  59.5055632  19.3708411  54.9748622
  59.7915296  18.7113980  54.3427311  60.2481560  19.9703673  55.0480514
  53.7240219   7.4668998  14.7180605  52.8197622   7.6272482  14.4481802
  54.0378952   6.7927688  14.1153491  48.1714535   0.8063277  10.2782631
  49.0493822   0.5077833  10.0408876  48.3209944   1.5569183  10.8531392
  23.0689716  32.2723293  23.6901712  23.8743138  32.0633340  23.2169080
  22.3712730  32.1286225  23.0507994  15.7984483  57.2740889   6.0565490
  16.6651917  57.5783014   6.3257027  15.2042484  57.9740667   6.3270813
  73.6682367  -0.0655648  19.7232139  74.0402031   0.7916186  19.5155919
  73.2994509   0.0394417  20.6002569  18.6103901  69.7477159  28.4702182
  18.4024271  69.1299136  27.7692866  19.3839678  70.2154496  28.1555247
  20.6794095  15.8248961  24.8650360  20.0856781  16.5393794  24.6343160
  20.2512646  15.3854978  25.5997825  44.2247761  11.8912613  -0.1335943
  44.1227806  12.4123394   0.6628389  44.8241604  11.1877799   0.1155729
  59.1707802   1.1859254   0.8041457  58.4060144   1.0244185   1.3566685
  58.8230562   1.2015276  -0.0875247  73.6155033   5.1186955  13.5195303
  72.9752779   4.6009248  14.0076458  74.2406988   5.4129082  14.1819525
   8.0574235  46.1914580   8.8904530   7.1500691  46.0856645   8.6045384
   8.3922514  46.9157259   8.3617216  47.7848868  37.8527037  54.2894994
  48.3041672  38.6568031  54.2915957  47.0241098  38.0574748  54.8331146
  12.4275669  54.2882459   1.3904120  11.9511493  54.1840987   0.5667542
  13.0350717  55.0094907   1.2261684  46.8799257  13.0990505  12.5538993
  47.5194883  12.8723812  11.8787587  46.0357046  12.8512025  12.1769512
  25.1305469  52.3277633   8.6720204  25.1982053  52.4642555   7.7270210
  24.9038299  53.1890349   9.0227920  49.9751215  44.5967648  58.3351981
  50.8526926  44.9580881  58.2105239  50.0887827  43.6516324  58.2350128
  73.9367466  23.9052525  47.5499671  73.8280134  24.7567430  47.1264415
  73.0836372  23.7230423  47.9439693  15.5503782  45.9315126  15.6230056
  15.1560720  45.6216590  16.4383245  15.7601865  45.1324312  15.1395988
  49.7759914  22.6950216   1.7768335  49.2760944  23.3089709   1.2388746
  50.3165436  23.2523108   2.3367126  47.6817894  13.7198162  18.1850791
  47.4289560  13.6829686  17.2626102  47.0827484  13.1144238  18.6219776
  19.3700397   2.4877113   5.9782684  18.9407325   2.3440158   5.1348954
  18.8475454   3.1700024   6.3998258  66.1951494  18.2407987  14.9827540
  66.3375425  17.7734530  14.1596234  66.6424274  17.7086592  15.6407821
  53.1341104  64.4544342  58.4160270  53.6255936  64.7134474  59.1955065
  53.6707620  63.7739161  58.0096643  49.5450592   4.4332898  15.9635496
  50.0397348   4.9982017  16.5571833  49.5271063   4.9132511  15.1355720
  40.5301269  59.6374087  16.2711811  39.8651823  59.2325310  15.7142627
  41.3451513  59.1973905  16.0296202  48.6314440  21.1362314   4.6156970
  47.7442074  21.4160967   4.8409003  49.1933298  21.8434763   4.9324358
  23.6598476  62.0204525  25.7181144  23.0773815  62.4099074  25.0659728
  24.0229877  62.7685814  26.1921048  35.3141761  27.0591855  20.4951000
  36.2691689  26.9965243  20.5122924  35.0407052  26.7907238  21.3722396
  17.6404369  23.5487390  53.4518957  17.7862346  24.4934034  53.5026884
  18.4687221  23.1628823  53.7370110  25.5080032  16.3563430  57.3825312
  25.3019762  15.4273665  57.4863863  26.0484266  16.3950586  56.5934324
  55.4654932  19.3400812   6.3055217  56.1309671  19.8004878   6.8168014
  55.7789898  19.3917084   5.4025888  62.6804399  19.6169114  30.0674915
  63.3377647  19.9081099  29.4355392  62.7129745  20.2710581  30.7655358
  14.2029827  54.6083787  52.1576690  14.5989816  55.2543786  52.7425628
  14.7488181  54.6305445  51.3716631  37.8485417  35.0473523   2.6778817
  37.3573899  34.2264438   2.6445523  37.1857667  35.7279348   2.5605452
  67.1287775  37.4031568  27.3105025  67.0969343  38.3301306  27.5470138
  67.0815992  37.3981380  26.3544798  74.0904331   5.5828941  32.4569726
  74.1250849   4.9464306  33.1710768  73.4134102   6.2049723  32.7232170
  11.0263070  39.9686401  33.5254431  11.0198244  40.6892316  34.1554737
  11.1074504  40.3964917  32.6730418  52.6902155  24.7916380  55.9133201
  52.2012047  24.8268882  55.0912141  52.2319846  25.4020658  56.4909314
  17.2146217   0.3672822  16.1537814  16.9445554   0.6859620  17.0150244
  17.9233191  -0.2492158  16.3379347  39.9207067   2.4086267   0.9893260
  39.1731477   2.7434635   1.4845765  39.8064113   2.7692625   0.1100591
  65.5261040   5.3438902   6.0379171  66.1650753   4.9557805   6.6356808
  65.9683657   6.1145931   5.6820333  28.7935972  15.6397772  41.3165092
  29.6611500  15.2782393  41.4978170  28.9224553  16.1988783  40.5503273
  40.0766373  46.9115782  10.3272140  40.2176905  46.7777538   9.3899709
  39.8867726  47.8461170  10.4098105  33.0306276  69.3434169  32.5553441
  33.7502273  69.0841299  31.9798636  32.8881057  70.2692267  32.3583794
  74.4097376   4.3326682   8.4965718  74.7494841   4.4492447   9.3838227
  73.6832476   3.7175894   8.5971802  53.1407881  33.4058189   7.9581952
  53.7672377  33.5339117   7.2458851  52.9610395  32.4656630   7.9529047
  31.5569448  22.1260071   1.9417672  32.4182773  21.7507648   1.7586571
  31.0217452  21.3784671   2.2081831  13.0321014   4.2782062  24.5527387
  13.9209640   4.0288252  24.2998314  13.0630863   5.2319658  24.6276665
  15.5708902  68.1857351  50.3105455  15.8411138  67.5009015  49.6988146
  15.4006641  68.9478329  49.7569554  65.5858183  31.7150712  20.1114058
  65.0895500  31.4609003  19.3333650  65.1945877  32.5448728  20.3845334
   6.7175821  57.9630627   2.8764124   6.8796829  57.4626793   2.0766802
   7.5900988  58.1912173   3.1971855  51.9043398  19.1554058  12.3208725
  52.0759726  18.4467745  11.7006993  51.1040497  18.8890278  12.7734351
  73.7401056  46.1390924   7.2845864  74.6969366  46.1385250   7.3111868
  73.5262823  46.0535717   6.3555032  12.5156569  11.7316937  56.6080952
  12.8734338  12.4067307  56.0314226  12.8998780  11.9199145  57.4643517
  63.0457596  26.3708833  56.6989066  62.6613979  25.8706442  57.4188082
  63.7919073  25.8440158  56.4127146  71.7440844   6.8380332  29.8627758
  72.2513247   7.2982776  30.5314398  71.0007858   6.4676201  30.3387284
  18.7354883  65.8964030   3.3176968  18.3262809  65.3994255   2.6093242
  19.4336256  66.3923697   2.8900844  30.0809225  62.2364907  27.3027015
  29.9397691  61.3637476  26.9357872  30.6279834  62.6825164  26.6561627
  74.0721989  20.0966644   9.9420071  74.4940281  20.9310055   9.7366589
  73.1864595  20.1829457   9.5895177   5.0718706  61.4512018  40.9466176
   5.4352825  62.0046309  41.6379051   5.4867904  60.5988577  41.0792153
  37.2227287  27.0795870  12.5153506  37.9035878  27.7294564  12.3411798
  37.6934767  26.3327742  12.8853464   6.8254083  20.1889086  38.5509968
   7.7248818  19.8933494  38.6917973   6.6298473  19.9392045  37.6478696
  64.6135215  52.5927690  50.2210992  64.2185239  53.4382978  50.4339080
  64.8280267  52.2079531  51.0708856  17.2647731   9.3142656  44.0520160
  16.8886535   8.9575342  44.8566930  17.3758285  10.2476552  44.2328077
  40.0806888  58.0886643  29.7117543  40.4140457  58.3592765  30.5672503
  40.4708179  58.7086801  29.0956259  40.0990336  19.0213290  55.1182895
  39.7677307  19.8679057  55.4179208  40.8499519  18.8438991  55.6847464
  71.9702129  17.5047520  25.0115018  71.5644245  16.6714815  24.7722845
  72.5309257  17.7207342  24.2663913  45.4291201   9.9032223   4.7744957
  45.8552790  10.0210881   3.9255384  44.5901966  10.3556013   4.6862295
  64.0142397  61.7245820  60.5061673  64.6161966  61.2066129  59.9717615
  64.5327715  61.9840339  61.2677724   4.5449512  27.3021987  43.6867635
   4.8946969  27.5183615  44.5511608   3.6700408  26.9557867  43.8621633
  21.1796554  50.0683419  23.6620736  21.1435207  50.8439200  24.2218995
  22.0839151  50.0405829  23.3493805  61.9550896   8.6495119  42.9598856
  61.7662239   9.5642442  42.7505398  61.1273003   8.3045596  43.2945538
   8.3826988  65.0859669  36.7696934   8.5378520  64.3804029  37.3976593
   8.2910602  65.8711413  37.3094492  27.4323559  19.2426372   7.9857743
  27.1379685  19.3434799   7.0805681  26.8143272  19.7639644   8.4981138
  14.5536669  27.9831992  60.3886346  14.8587569  27.2307454  60.8955560
  13.9068779  27.6186286  59.7844945  43.7996769  15.8440399   6.1737388
  44.1196251  16.7360699   6.3084471  44.4473314  15.2891099   6.6082853
   3.3937526  27.0775938   8.5612535   3.4574065  28.0247450   8.4384423
   4.2625728  26.8167686   8.8667905   3.4733728  56.5755367   1.0490617
   2.8769451  56.5782070   0.3003970   3.8281161  55.6867313   1.0695061
  22.1926641  25.0865483  18.0486417  22.6289845  24.2498088  17.8882504
  21.8071556  25.3213191  17.2045469  63.9161062  25.5027747   6.6491848
  63.4342432  25.5274391   7.4758828  64.5984221  26.1665249   6.7497665
  65.0112820  40.4572105  14.6706331  65.1548338  40.3013754  13.7371755
  65.4467058  39.7240973  15.1055849  28.9915085  20.5775285  20.8463502
  29.0015054  21.1226153  20.0595760  29.8014712  20.0698972  20.7963395
  47.8590155   9.9919915  32.8307438  47.7462435  10.9415805  32.8731227
  47.1535301   9.6923661  32.2573757   4.8160080  35.9190468  11.4609165
   5.0516466  36.5941426  10.8245582   5.1548676  35.1066648  11.0848255
  12.8664052  38.4270668  10.7333529  12.8624272  39.0331984   9.9925297
  13.7887681  38.3549571  10.9788704   1.7178095  16.3464594  47.3218727
   1.0033930  16.4903891  47.9424572   1.3104618  16.4431310  46.4610863
  38.4421858  56.5568368  18.3486700  39.3447145  56.7681913  18.5874116
  38.5244402  55.8818905  17.6749396  21.0104625  53.3069948  56.7196842
  20.9153955  53.7168113  55.8598905  21.8637292  52.8745380  56.6858571
  60.8723068  18.0280137   7.1389842  61.6923809  17.5966311   7.3790175
  60.4485512  18.2194412   7.9756564  38.8956913   2.1004902  57.0445429
  38.3342775   2.3253022  57.7865033  39.7621378   2.4220644  57.2937225
  41.7045768   0.5955826  51.8456839  41.9161209  -0.2472414  52.2470938
  40.7643827   0.5489885  51.6722034  46.2761768  68.6401841   6.8762839
  45.5987104  67.9968508   7.0845914  46.8929895  68.1663616   6.3183683
  51.7695522  17.4710023  17.2942698  52.6697445  17.6484990  17.5670099
  51.7542744  17.6888835  16.3623226  16.2409847  63.8621167  59.5876267
  16.0092370  62.9679182  59.8384953  15.7134836  64.0365413  58.8081745
  13.8497941  17.8997973  34.8776131  14.6243875  17.3472563  34.7730546
  13.7768381  18.0336228  35.8226018   4.1614501  33.5008310  52.0700048
   3.4763019  32.9804026  52.4894844   4.6885173  32.8613425  51.5909617
  40.1604176   3.4642240  14.0235984  40.9446859   3.0807716  14.4161797
  40.4953051   4.1083366  13.3997381  50.8880711   3.3519766  56.8452358
  49.9450159   3.2067999  56.9214153  50.9698915   4.2761919  56.6099405
  52.8968553  57.8560665  56.1304002  52.8297572  57.2654942  55.3800975
  52.0499019  57.7817992  56.5701558  66.0747147  31.3431525  11.5694118
  66.2124443  30.4679799  11.2070096  66.8208790  31.8531060  11.2541008
  20.9376621   5.6108290   3.8624993  21.7656970   5.2764225   3.5178792
  20.2723742   5.2579510   3.2716534  31.0133624  23.9468336   4.3384013
  31.4207006  23.4439969   3.6330900  31.7496514  24.2772341   4.8531276
  10.1056946  27.5845861  21.3316894  10.0555408  28.4265566  20.8791399
   9.2702854  27.1589375  21.1389661  16.3356531  19.0241098  17.8006220
  16.9022441  19.7923100  17.7293885  16.8931341  18.3506334  18.1903338
  17.6229223  67.0167623  19.1970396  18.0437406  66.2452750  19.5764458
  16.7164596  66.9688685  19.5007956  31.0049057  23.8170457  24.5870233
  31.2975740  23.2057142  25.2629304  30.1805687  24.1689110  24.9230170
  14.3348181  28.8261104  32.8232288  14.2772543  29.0766048  33.7452745
  13.6053383  29.2833161  32.4048328  65.5750942  17.5259817  53.8757324
  65.7277012  16.6409659  53.5445404  66.4049578  17.7761233  54.2819214
  31.0881090  41.0075665   0.4085412  30.2511859  40.9189081   0.8645390
  31.7382741  40.6970406   1.0386924  54.4727759  50.0013069  55.2858960
  55.3094201  50.0093761  54.8209315  53.9546995  49.3344596  54.8351811
  50.5522823   9.5402020  33.2149458  50.7589769   9.5175493  32.2806025
  49.5956802   9.5385283  33.2487392  62.7376747  10.2366555   2.4853730
  62.5292540  11.0606658   2.0451480  62.9530191  10.4921150   3.3823675
   3.2806318  69.8302773  52.7496212   2.9529779  69.0123037  52.3757326
   2.5012462  70.2639082  53.0971264   7.6469207  24.5300150  14.7430789
   7.2372675  25.1796675  15.3143644   6.9177383  24.1442490  14.2575788
  41.6109180   0.3536606  34.1324592  42.1099091   0.1434111  34.9217844
  42.2516108   0.7513826  33.5429168  15.4462545  25.7947263  41.0333662
  16.1768453  26.0870066  41.5783816  15.6884258  24.9089852  40.7630925
  46.9220829   8.4930772  25.1280069  46.5751696   8.5360855  26.0190940
  47.6525879   7.8771555  25.1848483   4.0179317  54.1438738  49.5256035
   3.8604848  55.0329545  49.8433738   4.2488258  53.6464897  50.3101604
  24.2511066  66.6379027  31.3930583  23.4250721  66.8598117  30.9633470
  24.6845850  66.0397030  30.7843852  60.3119850  63.9975882  43.8402128
  60.1833439  64.6658278  44.5133686  61.1941624  64.1605949  43.5064077
  54.6539497   6.0406357  23.4682631  55.5756903   6.2452680  23.3109260
  54.6685791   5.1867080  23.9004946  71.5467262  67.7582073  22.9236579
  71.1041832  66.9187689  22.7982235  71.7360973  68.0640268  22.0366168
  60.1940680  17.0698941  26.0210776  60.0593185  17.6814020  25.2971077
  60.3179741  17.6297188  26.7875481   3.9024389  22.3469210  25.5033398
   4.8033798  22.3524094  25.1800632   3.7489450  23.2439590  25.7999754
  61.6060810  28.3559409  54.9758290  61.8348221  29.1680697  55.4278873
  62.2860031  27.7356878  55.2389335  52.5605725   0.1996003  47.0323448
  52.8848951   0.0072490  46.1525457  53.2664861   0.6978832  47.4442094
  53.8541603  42.0294142   4.3136466  53.3026409  42.2704554   3.5693645
  53.7873030  42.7734137   4.9121684  41.3851055   1.4262282  54.6711176
  40.5854210   1.9256817  54.5059352  41.7284473   1.2287341  53.7997126
  46.6792107  13.7745321  29.9634886  46.5631962  13.4921682  30.8707070
  45.7985544  14.0098083  29.6713901   4.8348844  48.5458136  23.4969950
   4.7347582  49.4970608  23.4604025   4.3954742  48.2282066  22.7081490
  62.6068497  11.6132867   6.7970884  63.1217003  12.0236206   7.4919188
  62.3761034  10.7525110   7.1464485  57.7643633  32.5191140  45.2470970
  57.5128984  32.1248794  46.0823059  56.9794130  32.4500394  44.7036695
  51.3083410  27.1666837  21.1092925  50.8452034  26.9221926  20.3080678
  51.6416168  26.3388181  21.4554071  68.5561037  54.8298359   3.9155275
  68.9949322  55.3025866   3.2083008  68.3420086  55.5057049   4.5586407
  16.3858784  29.4000888  21.4659977  15.6106842  28.8413501  21.4101934
  16.4555824  29.6209335  22.3947597  66.5446043   1.0096058   4.6593255
  67.1427011   0.9055660   3.9192650  66.0811234   1.8275881   4.4795448
   1.3688839  32.0589066   7.2970241   1.0793960  32.7006102   7.9455960
   0.6291950  31.4579391   7.2079813  14.0524280  27.9067707  21.4867854
  13.2881153  27.3731923  21.7043686  14.0338218  28.6222625  22.1223593
  61.4438200  15.0626290  24.4471979  61.4676762  15.7522690  23.7838268
  60.6966543  15.2888441  25.0010991  60.1398611  35.0817227  16.6770494
  60.6798172  34.4454837  16.2081361  59.4282627  34.5623159  17.0513129
  36.6627073  19.2699349   2.9011726  37.1244073  18.8801587   2.1587852
  37.3102832  19.8427510   3.3119774  63.3572531  42.4001694   9.5975935
  63.3046722  41.4648819   9.4008511  64.1251087  42.7039528   9.1135001
  43.2712158  61.1059289  30.3339314  43.9313348  61.7505668  30.5887222
  42.9553159  61.4100669  29.4830871   5.4790434   5.2743112  41.1946433
   5.0045022   4.6562825  40.6386881   6.4022955   5.1053487  41.0067897
  56.8728050  53.8631229  25.5861282  56.2960514  53.5334878  26.2752843
  56.3719352  54.5645754  25.1698041   2.7482689  12.7159381   7.8273362
   2.6713741  11.7720497   7.6880765   2.0073784  13.0895865   7.3501563
  45.2108669  18.9969885  44.0533686  45.2415943  19.4318628  44.9055290
  44.5561171  18.3069551  44.1600800  40.1129484  41.8962240   8.9459407
  39.2639518  41.5688133   9.2429906  40.7134485  41.1634827   9.0828061
  10.1485698  68.8344863  48.3718817  10.4598920  67.9360178  48.4817319
  10.7788675  69.2348293  47.7729778  47.4424617  33.7163584  58.4781282
  48.3959358  33.7575212  58.5517984  47.2016780  32.9094875  58.9333354
  14.7503650  36.5105271  20.0456715  14.3372047  35.8952188  19.4399297
  15.1655567  35.9549260  20.7053328  72.6080819  50.1491587  45.0847483
  73.2861658  49.7320597  44.5532751  72.2854873  50.8676068  44.5406961
  25.5238708   6.8071853  59.2416953  26.4381918   7.0216952  59.4267376
  25.0464328   7.1057092  60.0157564   0.4679096   9.6146393   9.2255747
  -0.3699505   9.1735506   9.3658054   0.3906429  10.4356742   9.7115415
  19.4963472  28.9222202  54.6334617  19.9637954  29.3711058  55.3378927
  20.1865976  28.5194674  54.1066103  59.9392509  25.0947738   7.8794438
  59.7283936  25.4502630   7.0160782  59.1482162  24.6257949   8.1450742
  52.1562767  35.8082747   2.2029004  52.2638273  35.9576750   1.2635687
  53.0320549  35.9358692   2.5675377  29.5615280  42.0572281  12.6425791
  29.7969902  41.2341690  12.2143698  28.7994755  42.3710537  12.1557295
  57.7066422  25.9269691  13.5557723  57.0268106  25.3089786  13.2871664
  58.2755184  26.0050178  12.7899253  73.5703067  54.7715309  52.5767802
  73.4290533  55.1394108  53.4491002  72.9940013  54.0080288  52.5426285
  40.5177927  34.6488714   3.2332835  40.5387259  34.8085093   4.1768456
  39.5953727  34.7417593   2.9950616  63.2036161  38.9783597  21.7812657
  62.9914951  39.8854661  21.5612793  62.3550749  38.5373974  21.8233275
  47.5388002  20.4835176   2.2879533  48.3163357  20.8632493   1.8787183
  47.7467918  20.4605079   3.2219994  61.9412570  58.0493191  58.8076298
  62.5495224  58.1038287  59.5447003  61.6850261  58.9563993  58.6409550
  70.9508403  60.7128589   0.7786992  70.9704765  60.3459518  -0.1051702
  70.7078537  59.9755971   1.3387299  64.7669487  39.2285529  57.5006740
  64.8072176  38.3053586  57.2510292  64.9286108  39.2288164  58.4441235
  67.8790741  37.2310752  58.1651606  68.1690435  36.3772772  57.8439449
  66.9793205  37.3129660  57.8489940  54.1829761  54.8417203  18.9935422
  55.1255974  54.7419982  18.8602972  54.0488609  54.6366362  19.9188459
  16.4846389  70.2080253  58.5897691  16.2664716  69.8118285  57.7461677
  16.7574375  71.0993961  58.3723526  20.8338344  21.8940353  27.1390629
  20.1989162  22.6098967  27.1134996  20.6291664  21.4210558  27.9456806
  41.6608779  56.9936303  59.9922241  41.6375511  57.3889092  59.1207643
  40.9446018  57.4162200  60.4661483   2.0709980  48.3209944  49.8356390
   2.2743118  49.2527914  49.9172258   2.7286327  47.9847717  49.2267847
  49.2079926  26.7512226   9.2741704  48.3278608  27.1269202   9.2952657
  49.6257639  27.0748711  10.0722647  21.4189562  66.9766818  11.8721402
  21.5627893  67.9083757  12.0379412  21.1920389  66.9309287  10.9433520
  70.7583519  44.0247689  56.8612423  70.2654167  44.6755515  57.3609709
  70.3165956  43.9893781  56.0128139  53.9930201  10.8101439  22.2783828
  53.6827087  10.7349825  21.3760018  54.9471712  10.8234417  22.2032237
  69.3857622  26.3662767  46.4371347  70.1703835  25.8913708  46.1631584
  68.9087439  26.5302372  45.6236219   2.1145189   4.0561372  29.0675974
   2.0086944   4.6497512  29.8110032   3.0111635   4.2054272  28.7676358
  15.7374466   4.6044111  38.4488344  15.1346195   4.9509090  39.1066837
  15.9211147   3.7110022  38.7392116  54.1102982  12.7472770  12.9883170
  53.3091497  13.0485106  12.5597763  53.8332605  12.5073767  13.8725853
  65.5299616  42.3706770   7.9012400  66.2035799  41.7422724   8.1612033
  66.0125542  43.0713892   7.4626786  49.3301344  24.0449643  12.9361665
  49.7633982  23.8671660  13.7709749  48.9426136  24.9130940  13.0475581
  57.9207230   5.4434252   7.4390268  57.5723886   5.7493198   8.2764786
  58.5523319   4.7643548   7.6760221  54.7519016   9.1247684   2.9055557
  55.5454445   8.6950547   3.2247260  54.2198563   9.2583954   3.6899683
   6.5037267  59.4526389  42.5281685   6.6874330  60.1413277  43.1670659
   5.8427732  58.9041117  42.9506545  65.5736256  47.4351263  36.7118835
  65.4262304  48.3570480  36.5007854  66.5259981  47.3478842  36.7519450
  64.6684980  37.4664187  51.9317627  64.8344898  38.1286049  51.2608051
  64.7885132  36.6315484  51.4791918  54.3275976  57.2768021   5.1686454
  54.6432447  57.4298763   4.2780459  53.8326788  58.0666494   5.3864151
  55.7578659  10.9822559  11.6449559  55.1770973  11.5173829  12.1858633
  56.0755920  11.5814328  10.9694791  58.9978981  28.3893538  25.2757573
  59.5558500  27.6687717  25.5684733  58.9898729  29.0005350  26.0123873
  28.3316501   3.7100493  61.0826954  29.0578445   3.9592563  60.5110557
  27.9706558   2.9199134  60.6806984  58.5442495  52.2765684  18.0747879
  57.6132393  52.1171045  17.9197931  58.7799120  51.6624737  18.7701905
  31.0380030  26.4097714   9.3611860  31.2721586  25.5159521   9.6111721
  30.7098031  26.8060350  10.1683354  59.6773386  47.6135635   2.5055775
  60.0814819  48.2624483   1.9295108  58.8831568  47.3448610   2.0437247
  70.9980325  41.3861427  49.3066006  70.0829057  41.4065024  49.0266805
  71.4683609  41.0133770  48.5608976  66.3585472  13.4754324  24.5526242
  65.4049873  13.4566247  24.6338820  66.5311384  14.1704082  23.9174461
  73.3858013   6.4290029  44.0686941  72.7652597   6.6916764  43.3888674
  73.1669474   6.9814163  44.8191404  14.1598050  49.8277107  46.3650088
  14.3217199  49.7552660  45.4243879  15.0188892  50.0176791  46.7419915
  63.9282227  14.9106979   6.1155838  63.6672688  14.3076313   6.8116045
  64.4288015  15.5921090   6.5642840  37.2082663  22.1492505  10.1878428
  37.7574801  22.2754788  10.9615755  37.7987146  21.7762184   9.5332807
  39.1317304  15.1237308  51.1203205  39.3861850  15.9577953  50.7255809
  38.1795963  15.1781045  51.2022464  17.6242511  33.9554033  57.9022892
  16.9201677  34.5092594  58.2395454  17.7134340  33.2587967  58.5526874
  21.3486799  57.0514946  21.8908572  21.4324077  57.9419033  22.2320223
  20.5182298  56.7356531  22.2469854   5.6048572   9.7020936  31.5640569
   6.1576832  10.2434766  31.0005736   5.1348150  10.3298450  32.1128941
  45.6371260  17.9267120  47.1758699  46.5535879  18.2029855  47.1735811
  45.6570244  17.0281541  46.8465805  45.1626635   5.7185733  17.8624308
  44.5404482   5.0428563  18.1316578  44.6642256   6.2804002  17.2690177
  38.2742278  70.0821045  61.3105372  37.8529708  70.6015972  60.6257760
  39.1795986  69.9856499  61.0151851  17.2551334  28.7879920  32.2122908
  17.2029674  27.9293370  31.7925000  16.3513935  28.9925027  32.4524140
   1.1535900  59.8987463  54.6218543   0.9984891  60.2481774  53.7443166
   1.9626443  59.3939522  54.5391064  68.7032843  30.8436322   9.4685006
  68.0640364  30.1431203   9.3386137  69.1627741  30.6024671  10.2728271
  61.1940002  19.1167474  27.7114987  61.6410255  19.1894102  28.5547781
  61.7840290  19.5433116  27.0900989  50.3855356  12.5815545  58.4263592
  49.7891124  12.9994975  57.8052031  50.1137956  12.9156934  59.2811920
  39.3620571  62.8744237  10.0323510  39.2151292  63.8103734  10.1688862
  38.5172495  62.5409321   9.7301704  19.1042932  23.7935744  47.3361795
  18.8533386  24.2158185  46.5146189  19.2044433  24.5160972  47.9559868
  53.2855844  20.3088093   3.1457040  52.9911184  19.4757366   2.7775866
  54.1726351  20.1320434   3.4589574  68.9477873  34.7570968  43.2863712
  69.0512848  33.8057423  43.3075619  68.9744329  34.9802518  42.3559284
  19.5197551  48.0078581  50.7477086  18.8382976  47.5465659  51.2366443
  19.5747678  48.8670269  51.1660813  10.9319799  49.1784945  56.3069882
  11.8001001  49.1728774  55.9037887  10.6164853  48.2801309  56.2088208
  50.1344156  17.8740132  13.7913156  50.0159121  16.9475257  13.5820079
  49.3898535  18.0898523  14.3528068   3.1339424  68.6959055  43.7941163
   3.4068696  69.1766241  44.5755606   2.4395769  69.2331603  43.4127479
   7.7755821  26.7353773  36.1673093   7.7449024  25.7889557  36.0273910
   8.5611141  27.0211053  35.7009149  63.3328915  30.0762630  22.4285245
  62.9683638  30.6090355  23.1352806  62.5826979  29.5941806  22.0806193
  55.9033680  28.5426021  21.9409585  55.8628941  27.7427840  21.4166641
  55.0158644  28.6498618  22.2831130  59.0909915  55.4099706  55.2767949
  59.8472004  55.8148244  55.7016151  59.4381933  55.0529018  54.4593703
  64.7400093  15.4234171  14.6211886  64.6517801  16.0772741  13.9277077
  65.2597713  15.8592355  15.2965713  11.8475835  30.7364407  46.1558359
  12.2858636  29.8854885  46.1510651  11.4722268  30.8174464  45.2790373
  36.4695358  61.4300537  22.5691080  36.0243416  61.2524939  21.7405510
  35.7911181  61.8066072  23.1296325  48.2414198  53.8233376   2.4368826
  48.4385347  54.3971872   3.1772014  48.8560152  54.0931225   1.7544448
  13.4912288  26.6210198  31.5684223  13.8700664  27.2076845  32.2230530
  13.5595501  27.1046734  30.7452321  74.2307945  63.9437722  29.9194121
  74.4282552  63.8147251  30.8470917  73.8331338  64.8134713  29.8779058
  55.3548098   6.4957368  39.6608782  56.1553621   5.9995121  39.8314738
  55.5761480   7.3963237  39.8979092  54.9144554  10.5015790  55.5192995
  54.8636103  10.5650187  54.5655584  54.0167093  10.6481588  55.8172894
  11.6004714  64.1353403   2.9284087  11.5663298  64.2889999   1.9842400
  11.8102201  64.9909137   3.3028832  60.8959293  28.6393428  13.6460423
  60.6096029  29.4248891  14.1120493  60.3757858  27.9318762  14.0270579
  42.2400602  56.6001706   4.9505350  42.6851877  57.4472277   4.9748132
  41.5455707  56.7130665   4.3015575   6.3565815  11.6549623  22.7325201
   6.2764061  11.3198686  21.8394828   5.5531299  11.3704431  23.1681275
  23.2549699  61.4604275  18.7285089  22.7588018  61.7034553  19.5101666
  23.3641704  62.2817318  18.2491684  57.2310925  22.1194148  15.7157183
  58.0361986  21.7152643  16.0392857  57.4338961  23.0537438  15.6695712
  56.8376923  32.4380946  11.1291826  56.8655777  33.0867934  11.8324935
  55.9556246  32.5165486  10.7658172  61.4432573  43.6719704   7.4442923
  62.0304871  43.4733963   8.1736493  60.9145308  42.8808594   7.3402715
  11.7672070   3.2483541  36.1738424  12.3556265   2.5210439  35.9713297
  12.2894653   3.8332330  36.7228394   4.2971695  33.8818812  24.2379713
   4.3633163  33.1188416  24.8121047   3.5901583  34.4051433  24.6155429
  53.2476234   9.4851756   7.2586077  53.8690472   9.2665279   6.5641606
  53.7752151   9.9331665   7.9198056  71.8655281  25.1431027  31.7224341
  71.0877351  25.3291974  32.2483974  72.1027975  24.2454210  31.9550328
  19.1566610   8.5412884  16.2362969  20.0043106   8.9101005  15.9879041
  19.3596315   7.6553088  16.5364218  73.5258178  35.8412254  54.4097423
  73.0528240  35.0362725  54.1986447  74.3789415  35.7351189  53.9888506
  42.0966800  67.4743812  44.2128325  42.5437864  68.0454974  44.8374557
  41.6813072  66.8043520  44.7557497   8.1705845  22.9252100  29.1948199
   9.0914905  23.1658983  29.2959642   8.1796253  22.2012067  28.5687447
  22.0829996  57.0339565  37.7904177  21.4482530  56.6015355  37.2191572
  21.5514740  57.4390464  38.4757018  40.5525351  52.4817181  16.7261779
  40.9927893  51.8413258  17.2850156  39.6330333  52.2158957  16.7357004
  36.4904332  25.6595063   0.0428559  36.5069032  24.8634601   0.5741484
  37.4015093  25.7912922  -0.2194453  55.4946327   6.5789312  32.2865367
  54.8894691   5.8940768  32.5711083  55.0637102   7.3971474  32.5336361
   3.6088999  57.6171021  36.9461370   4.3270644  57.9194896  37.5020456
   2.8361663  58.0676202  37.2869468  23.0666574   9.8464833  54.1654812
  23.9293178  10.0986014  53.8361179  22.4576744  10.4306708  53.7137066
  61.1284685   7.2786522   9.3970013  61.0293627   7.6664722  10.2664876
  61.3046551   6.3531482   9.5662153  64.2245913  16.1976361  21.5931273
  63.3550882  16.5897524  21.6733718  64.4074440  16.2106860  20.6536460
  16.5520255  62.6372722  46.8509357  15.6209152  62.6457241  46.6291301
  16.6799943  61.8103984  47.3158400  30.7195163  55.4590273   0.8092458
  31.4399862  55.1271486   1.3449842  29.9395442  55.0357676   1.1680321
  17.8075779  35.6429029  20.0705767  18.0857170  36.0252023  20.9028745
  17.3109234  34.8633170  20.3191829  22.4064907  52.5946288   6.6576785
  22.2708591  51.6713958   6.4444250  23.2028660  52.6033072   7.1886659
  31.9396194  55.7311575  32.9051185  32.1313699  54.8654549  32.5445342
  31.1556085  56.0175030  32.4365377  27.9136213  52.3170833  24.7054482
  28.6192211  51.9577174  25.2432370  28.0345901  51.9093101  23.8479424
  20.7298350  64.0632057  12.0958090  21.3712811  64.7458267  12.2928035
  20.9296250  63.7987614  11.1978197  72.1063948  21.0675931  19.0520346
  71.2144899  21.2995815  18.7933445  72.0124674  20.6965828  19.9293947
  45.8281469   1.2538803   5.0331223  46.3613367   1.2743594   5.8278054
  46.4503050   1.4121355   4.3231171  60.0067854   0.2763182  30.7378912
  60.2187204   0.9947944  30.1419830  60.8299923   0.0882891  31.1886835
  53.4213305  10.4802132  19.5067883  54.3043709  10.7200742  19.2258251
  53.0678225   9.9712694  18.7772405   6.7373646  33.8919663   3.7034222
   5.9932030  34.3782282   4.0583956   6.3705242  33.0455399   3.4480247
  49.5205212  44.2087412   9.1812682  49.2985153  44.9271631   9.7735608
  49.2971659  43.4170628   9.6707463  44.5398045  24.2502618   3.2833934
  44.1248322  24.1257310   2.4298599  43.9084482  24.7674942   3.7834859
   8.5068195  60.8042887  57.3823841   9.1411416  60.1795963  57.0307787
   8.6996477  60.8397535  58.3192896  46.1603451   2.1842448  46.9298697
  45.8197546   2.0153092  47.8083324  45.5143356   2.7668011  46.5304565
  61.8275309  21.1739182  13.0801904  61.5709019  21.0685468  12.1640742
  61.0625935  21.5680909  13.4993875  68.2411671  23.4494877  34.7549295
  67.5611830  22.7918625  34.6087098  68.9059305  22.9955745  35.2728915
  53.4919500  16.4208531  28.4496045  53.3713531  15.5266118  28.1301999
  52.8578424  16.9395673  27.9545546  17.5938992  57.6017822  14.7767658
  16.8590740  57.2079243  15.2470178  18.3476070  57.4621452  15.3500528
  11.7423265  65.8445266  57.0007839  12.1791093  65.2550987  57.6156216
  10.9190290  66.0733322  57.4321317  57.0789814  23.1894493  43.3314943
  57.1171761  22.3936963  42.8008795  57.0332670  22.8736091  44.2339277
  49.8170757   5.1064122  20.3858042  48.9486694   5.5072504  20.4236794
  49.7117376   4.2644036  20.8287024  61.9681120   1.2042839  59.5616198
  62.3839092   1.9000044  59.0523863  61.5784836   1.6556802  60.3103924
  58.9288568  15.3437495   3.6211318  59.6272564  15.4652250   4.2643401
  59.1473103  14.5213139   3.1828278  48.2973146  17.7009475  23.6185312
  47.7076817  17.6454091  22.8665447  48.0896235  16.9278634  24.1433501
  39.1577697  28.7162495  10.5582678  38.5748792  28.1235719  10.0837100
  39.6623397  28.1439805  11.1363268  30.2748955  11.9816637  31.9817328
  30.0312603  12.2960389  31.1110783  31.2186706  11.8316650  31.9267941
  65.4501247   9.3894112  47.7287197  65.1813602   9.3385601  46.8114376
  64.6501684   9.2104459  48.2229614  36.9146752  52.1988297   7.7563435
  37.0934892  51.9552326   8.6645937  37.7412271  52.0430613   7.2994173
  49.0915203  15.3129601  36.1877394  49.9749470  15.2951300  35.8196712
  49.2266178  15.4137373  37.1299839  71.0499954   1.3620529  40.9127903
  71.9820309   1.5773170  40.9474421  70.8703375   1.2245937  39.9827051
  14.9356258  19.4757342  29.2288065  15.6227672  19.4760966  29.8951840
  14.1825950  19.8786533  29.6610498  30.6460941  46.2488174  23.9729977
  30.8407772  45.9644556  23.0799866  30.8793342  47.1770906  23.9849782
  57.0831971  55.7260040  56.9154777  57.8343086  55.6138256  56.3328283
  57.4696736  55.9041122  57.7728837  38.2697376  16.9909011  55.2352213
  38.7334474  16.1541663  55.2680259  38.9587434  17.6500283  55.3192126
  50.9726906  19.0285587  29.4081664  50.8742952  19.0646839  28.4567237
  50.0785542  19.0915930  29.7439909   0.0208271   5.2531660  40.8252239
   0.9016836   5.2707410  40.4510403  -0.0456059   4.3936211  41.2411594
  60.5977774  22.6271296  43.1607819  60.9685421  23.4761739  42.9201841
  60.2994251  22.7430272  44.0628815   3.1951416  12.0966101  29.6401501
   2.6195801  12.8417909  29.4679165   2.7711809  11.6276026  30.3588438
  63.5454845  31.2229323   9.1005325  63.1457090  30.4102731   8.7907022
  63.2457829  31.3073874  10.0056732  18.4488758  69.5764834   0.4239464
  18.9546283  68.7725841   0.5430657  18.7284788  70.1440122   1.1422531
  14.7767818  40.9759760  22.2777891  15.6707466  40.6841660  22.0991945
  14.2390144  40.1952839  22.1452594   3.5713041  32.9854655  41.2156725
   2.7839983  33.5123110  41.3528395   3.5269583  32.3082876  41.8907261
  67.6384401  26.4213300  44.4323206  67.3020458  25.5540991  44.2065382
  66.8746376  26.9957995  44.3791723  52.7514728   7.6047574  61.1332936
  53.1680044   8.3368550  61.5880111  53.3442291   7.4042474  60.4089552
   4.3427261   9.7141467  28.1854921   3.5088166   9.7719966  27.7191453
   4.2663630  10.3542625  28.8930612  12.7218346   1.7906411   5.5189294
  13.2750038   1.4703782   6.2314367  13.0264095   1.3142665   4.7465745
  40.3288941   1.4772351  18.6168575  39.4501213   1.8557055  18.6441612
  40.2233032   0.6616385  18.1270742  18.8423856  10.7232152  53.7931405
  19.6736749  10.9748326  53.3908020  19.0775570  10.4558192  54.6816366
  60.1631069  61.7311668  15.4456806  60.3297615  60.9640217  14.8980033
  59.6836138  62.3325968  14.8759449  59.4446993  21.7866349   5.0156599
  60.3281593  22.1234035   5.1650590  59.2498827  22.0196319   4.1079205
  12.2655857  23.8900208  40.9832859  12.7344787  24.4964838  40.4100752
  11.4737308  23.6633158  40.4956436   6.3714683  39.9410987  59.6998215
   6.5964496  40.7724714  60.1174688   5.7629574  40.1810741  59.0009928
  31.6079744   2.1086799  56.9708767  31.6818889   1.9248735  57.9073506
  32.2226223   2.8264557  56.8184312  24.9119556  40.0731277  29.9498343
  25.2515495  40.7977962  29.4247079  25.2864063  39.2895722  29.5472693
  40.2695163  15.5405437  56.7466675  39.7398695  15.6789790  57.5318717
  40.9653934  16.1948596  56.8087243  51.8065262  21.8674946  12.7149928
  51.1602545  22.1033096  12.0494449  51.9993019  20.9453487  12.5455344
  44.3602737  12.6239930  43.9547591  44.7519430  12.0246564  43.3194511
  44.6449836  12.2906123  44.8056584  43.4141096   0.7764851  45.0008457
  44.1985496   0.2288042  45.0314109  43.3934387   1.2130057  45.8524649
  10.6431186  34.8327708  38.0318189   9.7003448  34.7120857  37.9185247
  10.8280647  34.4732356  38.8994384  58.9104652  22.9571033  10.8405375
  59.3047380  23.8187456  10.7050657  58.1731319  22.9325294  10.2306461
   9.0892399  53.8278008  12.7562678   8.9625061  54.6458244  12.2756410
   8.2101429  53.4572649  12.8344369  23.5374550   6.1846097  31.5191579
  23.1052689   5.3558238  31.7254686  23.0723671   6.5121253  30.7493162
  62.7392244  46.7888784  41.3386488  63.0494308  46.1241007  41.9535255
  62.5474119  46.3025856  40.5368042  33.2671325  68.8225845  44.6737425
  33.9533870  69.4347885  44.4082265  33.3270137  68.7951449  45.6286745
  72.8487778  16.3521314   0.5617611  71.9459295  16.2083292   0.2781845
  73.3456898  16.4321673  -0.2524286  41.1682161   6.4653932  55.9522914
  40.3536304   5.9722911  56.0499160  41.8354829   5.9070359  56.3513156
  48.0339050  40.0072098   3.3294740  47.4608088  40.2344799   4.0616906
  48.7034225  39.4425464   3.7156540  71.4533949  49.1600704  22.8246307
  71.8224287  50.0230980  23.0123162  70.7372952  49.0640831  23.4525013
  31.6242743  11.4304996   8.8666236  32.4762392  11.0315299   8.6899543
  31.8324256  12.3099184   9.1821039   7.7903008  59.0015602  13.0542743
   7.5600994  59.6800232  12.4195087   7.5753242  58.1790876  12.6143217
  32.2081284  66.4830126   1.5909881  32.6478199  65.9134401   2.2222490
  31.4149956  66.7728318   2.0417518  55.7053566  23.7677479  19.5690799
  56.3402796  23.1088114  19.2881739  55.2502346  24.0196753  18.7655699
  12.2350872  30.3487134  25.0900745  12.3133838  31.1697197  24.6042252
  12.5457275  30.5607367  25.9702921  16.0177791  47.3535681  27.6589847
  16.3084877  46.7373705  28.3313107  15.0833118  47.4711370  27.8298044
   7.6796139  33.9472556   7.7429879   6.8026912  33.9175057   8.1255519
   8.2244671  34.3427229   8.4234035   8.3542717  30.7057929  39.7903204
   7.8903091  31.4910793  39.4999981   8.3310974  30.1203203  39.0334082
  45.7855844  22.3499608  11.8667102  46.6258144  22.1654201  12.2864604
  45.1324272  22.0118999  12.4793518  68.9240026  22.7081871   8.6692107
  68.0057907  22.9445815   8.8005191  69.2376709  23.3244014   8.0073035
  24.4470394  30.4985046  13.4387469  24.3193996  30.4237199  12.4930489
  23.5617626  30.4786539  13.8022316  10.7440746  48.4608936  23.6761236
  10.1642502  49.2148352  23.5683560  10.2023018  47.8022957  24.1108298
   6.7773617  63.7701941  13.7104523   6.5103805  64.6784878  13.5691905
   6.4576328  63.5602713  14.5879102  21.7978370  42.9456329  19.1660774
  22.3497761  43.6593056  19.4858646  22.4137676  42.2470188  18.9451802
  17.8454988  69.5241669  23.7747841  17.5252740  68.7557844  23.3022599
  17.1929901  70.2022246  23.5995584  51.0729854  65.6369856  61.0656443
  51.9064681  65.6693319  60.5960915  50.9899585  66.5024045  61.4661317
  11.3274277  27.3634839  15.2547431  11.1902702  26.6568613  15.8856988
  10.6018150  27.2767520  14.6365249  36.6861471   3.5347043  35.1722102
  36.2602600   3.6957346  36.0141854  36.5599807   2.5989591  35.0150662
  68.7300587  26.3398719  17.5498950  68.5509586  26.6317225  18.4437513
  67.8735781  26.3377261  17.1224988  73.5301352  30.3783727   9.7328967
  73.4435129  31.1829734   9.2216766  74.1314220  30.6082678  10.4413009
  56.5400362  25.9481311  10.3561139  56.4162827  25.1317835  10.8403575
  57.4797964  25.9803200  10.1771057  21.0932243  19.7858727  48.1447220
  20.6814277  20.5284929  47.7029371  21.4472759  19.2508745  47.4343300
  54.0951872  29.7281694  15.2881575  54.8489571  29.5301485  14.7324145
  54.3733692  29.4747543  16.1682880  67.1747097   3.8964568  50.9138839
  67.2376903   4.5110284  51.6450249  67.9079040   3.2947861  51.0428994
  27.2881063   6.8070232  52.4344765  27.5332197   6.1391078  51.7941325
  26.3406547   6.7104255  52.5305866  61.4723825  51.1996698  22.0859408
  61.9808388  51.0488224  22.8827786  61.8277454  50.5753994  21.4532995
  62.4380064  38.8885784  40.8466148  62.4144888  37.9422784  40.9887362
  63.2729673  39.1666412  41.2231159  61.2627077  29.2747283  33.6171770
  60.9925079  29.2718339  34.5354438  61.9130468  29.9748302  33.5610795
  43.4319019  39.5675087  10.4109514  43.8148022  39.7667718   9.5566022
  43.8166571  38.7258267  10.6554258  12.6161067  68.6640170  41.0641520
  12.7483861  67.9925040  40.3949695  13.4712093  68.7548831  41.4845984
  57.4449301  56.4158678   8.8211465  56.5061045  56.5708160   8.7170476
  57.6883698  55.8964443   8.0548775  58.8940334  46.0679150  16.3696218
  58.4478474  46.3488674  17.1685040  58.6944580  46.7520428  15.7305825
   1.0142458  34.8068285  16.2921548   1.4996183  34.3622041  15.5972052
   0.7858932  35.6578135  15.9181070   7.2402398  67.4015692  53.6606108
   8.1194990  67.6900867  53.9053439   7.1065585  67.7589753  52.7827602
   0.4711807  66.7712259   2.8919944   0.7179582  67.6087284   2.4996625
   1.0204733  66.7013931   3.6727816  71.6939592  20.1614237  33.2721925
  72.4094820  19.5313823  33.1867099  70.9084177  19.6214080  33.3589959
  30.1295555  38.2195234   9.0331703  30.6916034  38.6912155   8.4184843
  30.7006538  37.5548863   9.4183141   9.1010925  69.9595891  60.1860428
   9.6217033  69.9268162  59.3834782   8.9376518  69.0417765  60.4031658
  23.2092655   1.0892810  22.6668882  23.5803688   0.2625023  22.3587465
  22.9046810   1.5262683  21.8715906  70.0948477  33.8899875  28.4318185
  70.0953484  34.7574377  28.8364935  69.5318747  33.3619356  28.9979029
  32.4901470  66.5726720  43.7711906  32.3037037  66.5467851  42.8326797
  32.7607044  67.4757777  43.9368105   8.5471905  21.0086417  27.2747993
   8.4199131  21.4175653  26.4187551   9.2365635  20.3604364  27.1304822
  29.1121105   0.6265242   2.2427091  28.7941603   1.4165910   1.8057498
  30.0512365   0.7752641   2.3529595  11.0122383  44.8400450   6.9806737
  11.2393654  45.1642609   6.1091655  11.5869034  44.0860701   7.1130109
  31.4514450   2.1823151   5.1071250  31.3671211   2.1943791   6.0605270
  32.1743492   2.7821000   4.9230099  66.7445993  49.1553307  26.4541101
  66.8077803  49.4492245  27.3628831  66.5869999  49.9560356  25.9538460
  61.1983728  38.4566188  17.2340763  61.6018248  37.9453135  17.9355216
  60.5686617  37.8576946  16.8328524   4.8188341  64.4033384   7.1590620
   4.6705711  64.2812347   6.2213302   3.9932955  64.1434193   7.5679141
   2.0628011  23.8185453  14.6803021   1.3752973  23.9660549  15.3297758
   2.8696478  23.7681627  15.1928389  30.2844970  41.4287785  61.0805456
  29.5969026  41.5956977  61.7252080  29.8422496  41.5004423  60.2346652
  25.8398235  48.3045006   0.6591754  25.7058800  49.0035582   0.0191693
  25.2562225  48.5284090   1.3840973  64.6154404  44.4705772   2.6047179
  64.8179245  43.5448313   2.4697176  64.1792250  44.4986296   3.4562829
  73.2756567  28.0325389  23.3157349  72.7207136  28.8124371  23.3210874
  73.4416580  27.8503489  24.2406559  67.0904493  52.6063395   9.6760929
  67.4558544  53.4127474  10.0399876  67.7659416  51.9460678   9.8309708
  29.8165691  18.2286143  12.0010114  30.1272857  18.9085567  11.4032102
  29.1635883  17.7450085  11.4950716  59.3203402  63.3486223  33.7368941
  58.3675385  63.3923960  33.6564040  59.4741869  62.6716280  34.3958664
   4.6987713  46.6979885  33.1139946   4.8523367  46.8847227  32.1878290
   5.2710331  45.9552717  33.3066726  49.2511272  69.9867821  13.8883317
  49.4067669  69.1268539  14.2788887  49.6470022  69.9300575  13.0186772
  13.5183065  55.9973887  41.1446028  14.3770425  56.0787490  40.7296519
  12.9657524  56.6231731  40.6762963  54.7393171  10.4041703  24.9572420
  54.4755331  10.4533513  24.0384221  53.9361540  10.5815347  25.4468346
  44.4735607  16.9802438  56.7995559  44.1771492  16.4096223  57.5086131
  44.8845323  16.3870822  56.1706727  13.6167153  24.5086871  57.8758039
  14.1769608  24.6436463  57.1115114  12.9599675  23.8769685  57.5828086
  70.0156403  23.4974194  23.6955094  69.9492216  23.9891911  22.8769851
  69.3443632  22.8189754  23.6224604  72.5703621  54.0948248  35.8106732
  72.7096891  54.4642353  34.9386907  72.4549150  53.1569815  35.6578326
  66.5047836  49.2273617  16.5134645  66.6766548  50.1266670  16.2342930
  65.7042217  48.9815235  16.0498989  72.9162884  57.0651722  21.1206484
  72.6952076  56.7650890  22.0022964  73.7501764  57.5232601  21.2256360
  13.2882583  29.4480371   7.9345065  13.8608635  29.3865728   8.6990809
  13.2577598  30.3832197   7.7326727  26.1788678  27.5282884   8.2334739
  25.5577564  27.1837068   8.8751268  26.1365938  26.9105434   7.5035161
   5.4517544  48.9587641   3.4666517   5.2131069  49.8232794   3.1321403
   6.4089382  48.9556789   3.4611526  73.3478880  20.6154013  43.2898378
  72.5703430  20.2066350  42.9096222  74.0687418  20.0372028  43.0402708
  32.0822704  14.9788427  30.3878379  31.3824737  14.6236551  29.8397946
  32.8854454  14.6118450  30.0184369   9.6625126  39.0604711  54.3224144
   9.0644348  39.2710972  55.0394773   9.6868217  38.1037593  54.3039894
  33.3302149  26.3544570  58.7983588  34.0445980  26.5258847  58.1847610
  32.5690683  26.7813169  58.4050785  71.4701796  52.8298187  52.4185276
  70.8443642  53.2890368  51.8584347  71.1632109  51.9232178  52.4275255
  50.3227758  47.7177572   6.0416764  50.1095343  48.5925865   6.3663870
  50.9200478  47.8728771   5.3099447  69.9705982  23.3944130  16.0312974
  69.5882511  23.7193131  15.2161384  69.6727848  24.0126324  16.6986370
  72.4351597  40.5641794  18.9991713  72.2117233  39.6889019  19.3157065
  72.0539999  41.1574793  19.6464300   3.3635891  37.7509761  13.7388194
   3.8191736  37.6808548  14.5777237   4.0376604  37.5683832  13.0842054
  66.3645840   4.3350574  17.7380228  66.4484644   3.7893498  16.9561028
  67.1222210   4.1025010  18.2748067  27.6643169  41.2972927  14.7327340
  26.7745388  41.6393423  14.8194706  28.2159603  42.0772457  14.6727121
  13.5806736  40.9976809  25.5703044  14.0845474  41.2039559  26.3575721
  14.0954503  40.3239052  25.1261616  48.3807755  68.9367819  44.0723705
  49.2486334  68.5732269  44.2480850  47.7743959  68.3124828  44.4708538
  54.9123859  63.8805962   8.9994955  55.6410742  64.4468212   9.2537135
  54.3217087  64.4547462   8.5119653  28.0478430  49.4521999  12.8647840
  28.2843757  48.5259295  12.9127693  27.3863721  49.4950247  12.1742368
  60.7071018  34.1770792  26.4055514  60.4048347  33.7821293  27.2234011
  60.8719730  35.0932169  26.6285801  21.9713848  68.0405882  36.9789057
  22.1735971  68.9757970  36.9519072  21.1200063  67.9920843  37.4136834
  71.7618275  55.5676460  19.1568434  71.7321348  56.2985420  18.5394812
  72.2784901  55.8963680  19.8925269  36.1150555   3.5326464  44.1998291
  36.6276459   2.7378495  44.3474102  36.3887028   3.8369019  43.3345079
  62.6218462  31.0233927  11.7912793  61.8788004  31.3730049  12.2831011
  63.3919954  31.3540292  12.2536397  52.3674870  24.4794011  18.9564741
  52.0467424  23.6397767  18.6272526  52.6762342  24.2873216  19.8419201
   5.6899027   7.0461972  29.6675420   5.5104784   7.7463372  30.2951121
   4.9426655   7.0632489  29.0695643  66.6396618  31.9576311  27.3514676
  66.2956238  32.4799943  26.6268945  67.5054359  32.3277903  27.5236487
  63.2933950  66.9853210   6.5916306  63.1011057  67.1501350   7.5147188
  64.0187311  66.3608885   6.6058540  31.9114292   5.9127373   8.6117780
  31.6793907   6.7835355   8.2891333  32.6548946   5.6470460   8.0705744
  36.4147162  30.5248880  14.9366903  35.4632616  30.4333568  14.8858261
  36.7477202  29.6357846  14.8148882   2.0157230  10.3373325  31.3354516
   1.5633905   9.9680156  32.0938921   2.3751867   9.5774949  30.8775592
  31.8516716   0.4491507  44.4502144  31.4837536  -0.0729288  45.1631682
  31.4491161   1.3115512  44.5524280  60.1997375  23.4016347  14.3098366
  60.4307842  23.7307310  15.1784825  60.8130264  23.8370824  13.7178087
  20.8798111  44.2374086  23.7206602  20.0212467  43.8182783  23.7791371
  20.7648552  45.0809383  24.1582465  58.7627506  56.3512230  34.0394735
  58.0354691  55.7426214  34.1694760  58.5036278  56.8757486  33.2818723
  28.3240875  14.5323907  57.7002977  29.1235574  14.1748916  57.3139416
  28.5111030  15.4636108  57.8190081  64.1900682  38.0593991  19.1954505
  63.7645817  38.1578636  20.0472140  63.6791039  37.3841810  18.7491024
  39.3491014  34.6110307  60.0312181  38.7147697  34.8627816  59.3600421
  40.2017482  34.7790204  59.6299682   1.9687418  27.6611079  10.9729261
   1.1695055  27.2183932  11.2583227   2.1382002  27.3095842  10.0988884
  37.6386142  10.8540893   3.6276120  38.0137873  10.0000966   3.4127292
  36.7021227  10.7541478   3.4566596  63.2007504  35.9688640  15.3960168
  62.6622581  35.6663299  14.6647644  63.9290190  35.3486085  15.4298508
  66.9679070  20.1893210  17.2979665  67.4543715  19.5683289  17.8401411
  66.2271309  19.6847963  16.9619000  62.0405197  41.4912033  21.0898232
  62.3043585  41.4618254  20.1701736  61.8732786  42.4179077  21.2615347
  29.8680767  14.6293365  28.3051043  29.9874815  13.7219440  28.5854917
  30.1582798  14.6383392  27.3930006  16.3324373  49.4007269  59.1394714
  15.5780427  49.9895516  59.1193206  16.0183637  48.6248806  59.6038571
  55.1371288  69.2458105   5.2573037  56.0354519  69.1535568   4.9399167
  54.6759176  69.6892548   4.5453516   3.3513487  24.6837831  12.1397519
   2.8681886  24.4849563  11.3377202   2.6789558  24.7287107  12.8195286
  57.2364505   4.1618239  51.1103099  57.4279388   3.4189044  51.6827052
  57.5548252   3.8894044  50.2496963  18.9742120  12.8422462  43.1252067
  19.7027239  12.2323476  43.2415204  19.2361578  13.6238252  43.6117797
   6.2929809  49.0680599  11.5691054   6.9347751  48.5234451  12.0248783
   5.6963814  49.3620491  12.2574854  39.6762609  44.5645285  15.7737398
  39.8130989  45.5071592  15.6791365  38.7553883  44.4323826  15.5484319
  71.6476202  10.8800447  49.3716002  71.1935043  10.2580976  48.8030958
  72.3351097  11.2518120  48.8189888  11.2536228  38.8776660  20.0711155
  10.7302559  38.0772090  20.0312924  10.7468021  39.5201588  19.5745587
  30.5731647  66.6127613  48.7609523  29.8169772  66.8472722  48.2229738
  31.2527625  66.3774422  48.1292825   4.1393936  68.0132723  22.3262763
   3.5501564  68.5084295  22.8953528   3.5565269  67.5080347  21.7595053
  11.3493145  41.3080835  47.6642752  10.6394184  41.9500923  47.6745892
  11.0698974  40.6522846  47.0254612  24.5457638  38.4216976  20.6401134
  25.4623688  38.5823321  20.4159403  24.2104519  39.2780852  20.9054446
   2.2654045  29.8481131  36.6642332   2.5968063  29.5456553  35.8187008
   1.6553200  29.1643596  36.9408441  68.5084200  63.4257507   2.7622551
  67.9969501  62.6310492   2.6103154  68.8244915  63.6767578   1.8943115
  14.3493641  51.3204861  25.4437113  13.4522808  51.5728092  25.6623650
  14.7447765  51.0893393  26.2842202  62.1751213  12.6475167   1.4292140
  62.7447271  12.9114783   2.1517840  62.1355963  13.4174204   0.8618352
  60.4709339  57.3223448  37.3729849  60.8854675  56.7601824  36.7184877
  59.8588943  57.8617573  36.8723130  69.0647936  62.0361757  11.2224591
  69.3849134  62.9372644  11.2648094  69.7058678  61.5305233  11.7220283
  13.3525360  70.3467131  23.4635949  12.8358257  71.1288786  23.2700729
  12.7680290  69.7964478  23.9849210  44.7000160  15.0806914  42.8405898
  44.5787539  14.1811334  43.1444292  45.6040712  15.2922784  43.0732839
  70.9649685  44.3581390  42.1247911  71.1207783  45.2467251  42.4447489
  70.1575944  44.4252586  41.6150141  70.9107896  48.6474991  26.3284850
  70.1513654  48.1321335  26.6003346  70.5699691  49.5347500  26.2150812
  30.9115956  41.6243185  14.9920626  30.0982473  41.6419293  14.4876928
  31.3075582  42.4820591  14.8380298  29.4680929  66.2372828  44.5860100
  29.5054865  65.3177547  44.8492670  30.2651715  66.3722944  44.0735006
  39.9880695  57.5502396  52.6685143  39.4688869  57.9018593  53.3917332
  40.0192213  58.2611036  52.0282602  59.6908974  37.0169950  47.4746323
  59.1331088  37.6055837  46.9660378  59.7214710  36.2110353  46.9591475
  63.7732167  13.8885709   3.3550711  63.4842367  14.6807501   2.9021091
  64.1926463  14.2088005   4.1536732   6.4947945  70.2824259  34.5123148
   7.3740834  69.9268484  34.6413374   6.6103196  70.9779358  33.8648987
  39.8851241   1.7346689  30.8433695  38.9925511   1.3902184  30.8133764
  39.9157078   2.2508499  31.6488905   7.9904425  43.2297277  37.8222609
   7.5243104  43.6130953  37.0793056   7.5951111  42.3650026  37.9326701
  60.0631559  22.8631091  57.0387125  59.5951664  23.4571505  56.4519119
  59.6744907  23.0208850  57.8991032  30.2354932  55.3724432  19.7031534
  29.9063897  54.4740677  19.7321641  30.9234047  55.3541470  19.0378153
  10.3205180  22.3591375  60.0986099  10.6297004  22.5824976  59.2206860
   9.3984061  22.1327519  59.9774075  70.8867418  35.9529305  60.4207611
  71.2650060  35.9828401  59.5419788  69.9841594  35.6653643  60.2833462
  46.7523443  66.6415739  44.9175596  46.3688957  67.1648884  45.6213617
  46.8259155  65.7613516  45.2863884  28.1557233  17.2578785   5.0007887
  27.5412567  16.7106601   4.5116920  27.7401455  18.1197521   5.0273390
  24.6279097  57.5811243  36.5666461  23.7125301  57.5677824  36.8461657
  25.1046443  57.1706629  37.2880864  21.4688778  66.5994930  30.9624815
  21.0709906  65.7832527  31.2652469  20.7267642  67.1470928  30.7062912
  43.8331403   0.4058143  12.3675556  44.1846759   1.2585136  12.6235981
  42.9308231   0.4130384  12.6869316  58.1744936  22.0535786  54.0860462
  58.5672692  21.5980466  53.3414364  58.3421114  21.4796002  54.8335028
  64.9657553  68.2224751  11.4116657  64.4169008  67.6442146  11.9413888
  65.4138261  68.7779856  12.0495319  58.2435967   9.1543886   0.4002971
  58.8318087   9.3460676  -0.3301125  58.7635894   9.3411276   1.1819429
  22.8702283  60.0805187  60.8091688  22.7568650  60.8485508  61.3690901
  22.0029950  59.9274921  60.4340410  38.4185258  12.0815594  54.2133856
  38.2620231  12.9466565  54.5919943  37.5475899  11.6914113  54.1392994
  47.4081656   7.2176286  16.7650146  47.9632129   7.4071047  17.5214882
  46.6851266   6.7016622  17.1216984  16.3709509  31.3406014  24.2597747
  16.8357372  32.0356250  23.7937832  16.2029517  31.7055821  25.1285648
  18.5104108  59.5085287  49.4290781  19.0367508  59.7543478  50.1898527
  18.8339436  58.6416435  49.1839981  62.9909420  54.4537878  56.9814396
  63.6554575  55.0633240  57.3025513  63.0544567  54.5106745  56.0280466
  18.1632900  26.1282277  53.7914038  17.3112845  26.5460515  53.9168787
  18.7986112  26.8223858  53.9667463  26.0832024  52.5086451  55.6306696
  26.4841056  52.3971033  56.4926815  26.2540603  53.4226704  55.4035187
  62.1483898  63.9167261  18.5512662  63.1023812  63.9883661  18.5196352
  61.9758188  63.3447695  19.2991400   0.0702024  17.7935815  38.4215164
  -0.2344958  18.6999261  38.3775735   0.9377258  17.8126872  38.0174494
  29.2476773  56.2739754  50.2538300  28.3953547  56.5624857  50.5802345
  29.3755317  55.4111195  50.6479836  67.2923517  31.0215521  55.3178930
  66.6667866  31.4366770  55.9116745  66.9275075  30.1516199  55.1556063
  20.6743193  41.7539120  54.3633842  21.1371636  42.1433496  55.1052380
  21.3687348  41.4081812  53.8025951  15.6379819  53.2290936  42.4006891
  16.2563384  53.5380507  43.0628157  16.1728048  53.0925941  41.6186619
  60.4629945  35.5482197  59.9311161  59.8576045  34.9294806  59.5225859
  60.4046511  35.3576779  60.8673429  63.6728215  25.9294271  43.4513474
  64.1798544  25.2044535  43.8168144  62.8533315  25.5273128  43.1632996
  22.5217724  40.6974554  52.6615334  23.2966876  41.2521696  52.5719357
  22.8718925  39.8187160  52.8080416  63.7684059  36.0260868  46.1884832
  63.9608204  36.2424755  45.2761316  63.1359541  36.6897464  46.4637899
  74.5301621  55.1244116  43.1973648  74.2133420  54.9029016  44.0730333
  74.6395723  54.2793322  42.7613640  21.2214295   3.8273795  50.4620552
  21.0296778   4.2151244  51.3159418  21.1507059   4.5569022  49.8464060
  40.9159040  67.9747915  47.4375343  41.3296986  68.8193178  47.2592497
  40.1254177  68.1947041  47.9304838  29.1304703  69.9482366  32.8002424
  28.8379593  69.2095110  32.2664232  29.9316521  70.2504656  32.3724527
  64.9214438   0.4770310  52.3938656  65.5816225   0.3531964  53.0758190
  64.2697981   1.0533459  52.7931690  53.7139952  61.0541868  27.7908564
  53.1811130  61.8242645  27.9889512  54.6158898  61.3468885  27.9217863
  39.4374084  66.9064856  35.3939438  38.9102221  67.2510338  34.6731162
  38.8120341  66.7751884  36.1066151   9.2994219  55.5018282  49.1709661
   8.7429023  55.6266594  48.4022427  10.1909530  55.4946518  48.8226080
  10.0900868  14.9217542  29.8380256  10.4560331  15.2897198  29.0337157
  10.1340107  13.9742310  29.7095680  66.4818150  46.6231823  61.1745691
  65.9222460  47.1241474  60.5811501  67.3708510  46.7840528  60.8583927
  49.1825825  16.7694446   2.7130146  49.4706973  17.6283809   3.0219621
  49.6291842  16.6544267   1.8742342  25.6267039   2.5987513  58.7352514
  25.3742053   3.1164820  59.4997311  24.7970572   2.2942717  58.3675385
  21.4956284  65.7360458  51.0050488  21.6878772  66.6266537  51.2984610
  20.9628773  65.8527803  50.2184200  63.0707343   5.9685203   3.4080238
  62.3894282   6.5468761   3.0651588  62.8331800   5.0999042   3.0835123
  39.0043879   4.6954823  56.0464096  38.0679464   4.8588476  55.9340620
  39.1427207   3.8262916  55.6701088  26.2344944  62.0416212   8.8418859
  25.7997668  61.6557074   9.6023571  27.1340620  61.7181396   8.8904995
  29.7369171   4.1847117  58.5073757  29.0362946   4.7839339  58.2498980
  30.1021138   3.8732608  57.6792097  56.2953607  12.3270448   7.6345658
  56.3020984  12.4623139   8.5821360  55.5304066  12.8142865   7.3285055
  48.5987035   6.4313395  25.8093905  49.4893996   6.1792977  25.5657411
  48.0389396   5.8007176  25.3563833  29.4007063  52.8863478  60.1210833
  30.1245952  53.0522728  60.7249784  28.8463640  52.2548199  60.5794621
  38.9535502  13.9329274  39.0937972  38.4090415  13.3034547  38.6210370
  39.2511705  13.4572633  39.8692942  58.4919190  67.2136259  39.9137425
  58.0767810  68.0465317  39.6897840  59.1383397  67.4403286  40.5823040
  53.3927436  43.6979362   6.4034386  52.6120017  44.2133590   6.6059561
  54.1241713  44.2659828   6.6454477  32.2378373  33.8806725  59.0254831
  32.0317340  33.7430310  59.9500418  32.7514601  33.1119299  58.7775707
  24.1751630  20.2289840  14.0958948  24.2038901  20.3407690  15.0461073
  23.2886560  19.9146053  13.9184065  52.6232539  18.0344698   1.6680546
  52.9619960  18.3743164   0.8398075  51.7238149  17.7736828   1.4699907
  38.3843537  15.1033613   4.5572252  37.4285336  15.1299354   4.6012039
  38.6271782  14.3408415   5.0824232  73.6274327  61.8148327  36.7835045
  73.8150942  62.0209169  37.6992249  74.4427974  61.4400673  36.4503908
  70.8300349  40.6559372  31.4367390  70.7800722  41.3654900  32.0772648
  69.9223000  40.5087423  31.1710668  47.6085488   3.3013947  30.2692986
  47.6786796   3.1756003  31.2156010  47.8508345   4.2170031  30.1307869
  50.3705883  17.8722131  37.9046631  51.2341022  18.2841063  37.9349828
  50.4579449  17.0921445  38.4524703   9.3970287  21.0923219  40.2213717
   9.0766019  21.8243599  39.6944189   8.6273932  20.7888079  40.7028008
  63.7313354  53.4530401  21.4738345  62.9440641  53.4118366  20.9309363
  64.2596161  54.1458941  21.0774684  58.2489776  66.6565037  60.2319813
  58.0895781  67.6002169  60.2169991  58.3268594  66.4414787  61.1614561
  50.6044737  69.1820563   6.5192003  50.1981179  68.7998380   7.2970314
  49.9563471  69.8061050   6.1925144  18.5410869  51.3996077  58.9369488
  18.0121827  50.6252289  59.1288662  17.9011965  52.0952606  58.7858200
  42.7799082  60.4716063  57.8493738  43.0799150  60.6365681  56.9554996
  42.5376558  61.3351059  58.1839037   5.3697491  52.8699780  47.7038479
   6.1671090  52.4892807  48.0719805   5.0033659  53.3937740  48.4163332
  53.8718998  53.0056524  47.3001099  53.2167518  52.5996113  46.7325306
  53.3807909  53.2802439  48.0744791  35.1942010  24.2027065  10.3040333
  35.4057748  24.3556091  11.2249489  35.4848857  23.3061048  10.1371689
  50.8032834  32.5638744  19.3234796  50.0150763  32.3303339  18.8331528
  51.4126599  32.8846809  18.6586685  30.6755242  15.0270016  20.0629497
  29.9796650  15.6702168  19.9277532  31.4835481  15.5395730  20.0384378
  20.3303528  60.2075529  38.5403991  20.1285505  59.4625330  37.9743147
  19.7523320  60.0981140  39.2954803   9.7115775   9.7865554   2.2658987
  10.0883098   9.3333646   1.5116329  10.3384872  10.4819032   2.4651832
   1.2133546   5.3993723   3.5463209   0.8034344   5.4783603   4.4076891
   2.0775147   5.0287124   3.7253971   3.8055030  47.0242453  48.3936882
   4.1003948  47.1489286  47.4916220   4.0218014  46.1132765  48.5926390
  16.1758721  58.0846357  38.4948730  16.2468779  57.1370602  38.3795595
  17.0820987  58.3923054  38.5127831  12.9729724  56.6670895  27.2276211
  13.7512767  56.2808561  27.6292396  13.2364690  57.5599194  27.0047712
  19.3852925  36.8970633  56.4016390  19.7261262  36.8147731  57.2923088
  18.8257360  36.1289001  56.2873936  33.1884590  19.1672547  34.0351629
  32.3735974  18.6660607  34.0674710  33.7838576  18.6234029  33.5194445
   1.2250658  51.4136553  47.8613901   1.6899115  51.3971186  48.6979771
   0.9234158  50.5137587  47.7371740  62.1460652  58.5284615  28.8091946
  62.4467945  59.1161966  29.5022774  61.5589845  57.9160357  29.2524838
  40.5627481   5.4715092  39.7663116  41.3693527   5.4987939  39.2516494
  40.8395127   5.6869109  40.6569481  62.5177848  47.8434372  46.2274075
  61.6975021  47.3826170  46.0512972  62.3980391  48.7059689  45.8300018
   7.1146339  67.9216576  51.1086130   7.7167583  67.2549772  50.7781363
   6.2879235  67.7405643  50.6614161  31.5383474  17.3439153  33.8723898
  30.9859548  17.0050271  33.1679392  32.3278502  16.8037446  33.8386011
  14.9090588  32.8070259  58.7237787  15.1142311  31.9182491  58.4335852
  14.8927724  33.3241606  57.9184580  49.6876446  13.8132794  20.0394249
  50.4021636  13.5350735  19.4664550  48.9346448  13.9055569  19.4557226
  15.5353427  56.1761999  27.8834629  15.8341241  56.8013287  27.2230244
  15.3720057  55.3701448  27.3937440  10.9366766  14.2122586  45.0936604
  10.5551711  14.3199094  45.9649181  11.0261396  15.1047356  44.7594213
   3.4539576  32.4893591  12.0655651   3.5735841  32.0475694  12.9062433
   3.6608286  33.4064743  12.2453756  50.5050494  22.5204965  10.6201620
  49.7311037  23.0040285  10.3313036  51.0924725  22.5352022   9.8645468
  19.8141825  39.9798012  57.5445414  20.3179240  39.2662406  57.9360914
  18.9138949  39.6552086  57.5257301  72.4698542  69.1077518  54.8848486
  71.8842438  69.6934080  54.4049597  73.1121371  68.8250875  54.2338467
   8.3675027  69.0584278  27.4029303   7.4596345  68.7552452  27.3935485
   8.7744564  68.5737753  28.1210780  65.5906601  32.2631714   8.0866308
  64.9889119  31.6636821   8.5279245  65.0453646  32.7231523   7.4484272
  28.1559516  17.4598916  14.3581128  27.9008195  16.8062241  13.7070668
  28.6992688  18.0812867  13.8734424  50.1853672  15.3303178  38.8219118
  49.6327988  15.1617749  39.5851231  51.0316197  14.9450047  39.0491223
   2.4418212  65.2380800  60.9565592   1.9750425  64.4553947  60.6637239
   2.0433269  65.9538698  60.4615068  32.8001431  17.6753362  27.6552129
  33.0752931  17.7353413  28.5700488  33.5954056  17.8548463  27.1536493
  74.2778568  43.8804817  58.6434221  73.5814962  43.2378721  58.7789488
  74.8338710  43.4922552  57.9678822  30.0021628   9.2809613  28.1396317
  30.2434067   8.7475236  27.3823500  29.2166895   8.8598330  28.4887958
  63.0220806  46.0508680  57.2684908  63.6488104  46.0353994  56.5451622
  62.8637504  45.1281738  57.4679899  16.9335163  45.5626535  57.3078728
  17.4482381  46.3629723  57.4117231  16.1663818  45.8349228  56.8042803
  11.1483824  44.9849892  47.7886486  10.3928089  44.4129515  47.6540613
  11.1163795  45.6003714  47.0561790  58.6424505  57.4346447  28.8491607
  59.2284584  57.5332451  29.5995617  58.6494088  56.4960384  28.6615372
   2.5299898  67.5378275  59.0945101   3.1333321  67.6477432  59.8294449
   3.0975005  67.4720812  58.3264971  33.9224598   6.4306815  45.8025646
  32.9942433   6.6580088  45.8570528  34.0105251   5.9835131  44.9608326
  31.0123471   5.8222325  34.6425533  31.0869465   5.3604634  33.8074255
  31.4172355   5.2330096  35.2790403  13.9752761   5.5604775  40.5889130
  13.4394387   6.3157590  40.8311081  14.4802646   5.3623088  41.3775492
   4.6449727  65.6916475  43.3497477   3.9760467  65.6461573  44.0329027
   4.1951513  66.0804462  42.5995970  61.8047833  63.8567209  39.5912218
  61.2185216  63.1499672  39.8614597  62.6336670  63.6605072  40.0278950
  65.3162999   8.9462921  16.2221165  64.8783190   9.7586843  16.4759273
  65.7383700   9.1522237  15.3880377  68.9070566  47.2608110  19.2358084
  68.0711563  46.8638345  19.4805689  69.5129950  46.9869539  19.9243326
   6.3505584  38.3907151  47.1262550   6.4381319  37.8124475  47.8839922
   6.1582118  39.2499614  47.5016594  69.2959666  21.0337043  57.1657753
  70.1644614  21.0407329  56.7634106  69.4204128  20.5741000  57.9961395
   2.5445596   1.1915238  10.7512271   2.6489607   1.6061766   9.8948419
   3.2141296   1.6012748  11.2989604   2.9285079  43.6673117  32.1093464
   2.3271993  43.7818050  32.8452468   2.3802498  43.3257341  31.4029670
  33.3027003  63.9634050  29.9698515  32.9995576  63.2044281  30.4681368
  32.8810272  63.8728656  29.1153116  67.4662224   3.4326060  55.6643915
  67.5722615   3.8100846  54.7911835  67.9593483   2.6128228  55.6324434
  65.3083688  34.1233230  15.3237426  65.4193145  33.2826829  15.7678664
  66.1998838  34.4508767  15.2048182  36.3021469  60.4847145  19.8427284
  36.9001842  60.8726692  19.2039227  35.9036779  59.7471857  19.3806648
  25.0537944  62.6178932  44.4594097  25.7177138  62.0700359  44.0407276
  24.8383546  63.2784414  43.8010025  20.4904706  21.9470914  34.8486352
  20.8091808  21.2228329  34.3100214  20.5340538  21.6157563  35.7456040
  69.3130687   1.5928252  55.0128555  69.5780996   1.0648711  55.7660198
  70.1077226   1.6734727  54.4853592  12.9202811   1.9467099  22.0096159
  12.2585169   1.2576230  21.9507599  13.3802632   1.7676194  22.8297234
  67.5634140  59.4182253  15.5253947  67.0942622  59.4413853  14.6913731
  66.9095599  59.1248655  16.1599386  71.7824999  10.2183755  40.2343273
  70.9249369   9.8777707  39.9797654  72.3882357   9.8447831  39.5942140
   0.3127223  54.1657734  48.1668949   0.7368572  53.3456326  48.4193134
   0.0546330  54.5672131  48.9966345   4.6713215  61.0598183  29.0489721
   4.1962826  61.1664724  28.2248402   5.5145675  60.6862879  28.7927604
   2.8584170  42.5802135  28.5352278   2.2336039  42.3809147  29.2324519
   2.3281045  42.9784584  27.8450108  73.0485482  68.1626558  35.7735610
  73.1210357  68.8233280  36.4623928  72.9366632  67.3368788  36.2445283
  12.9207146  69.8522186  33.8236499  12.9713929  69.3357134  33.0193591
  13.3100796  70.6953478  33.5917830  54.0536247  16.5971300  23.5844965
  53.0989940  16.6571495  23.5483045  54.3556864  17.4935648  23.4382219
  16.3404536  67.0089769  56.9559336  16.8944895  67.4945784  57.5670528
  15.6833076  67.6442814  56.6717243  40.0507263  11.7400677  40.4028559
  40.8698574  11.4849503  40.8273268  39.4873158  10.9709103  40.4877281
  18.8629937  62.7646065  37.6943541  19.1990948  61.9556379  38.0801535
  18.3161449  62.4729252  36.9648957   3.6615258  37.4468541  55.1818562
   4.4252497  36.9485283  54.8909473   3.6780316  37.3750830  56.1362171
   3.0313869   5.5179998  16.1353226   3.1960411   4.8189661  15.5024929
   2.3419543   6.0469553  15.7339258   6.7145592  57.1454954  26.8358445
   7.3851067  56.5365267  26.5264082   7.0315683  57.4365854  27.6908326
  25.8529735  14.5643175  52.2528410  26.3354445  14.0654004  52.9120302
  26.5095520  15.1392150  51.8596077  13.0727863  53.8505745  42.4914217
  13.9797139  53.5500145  42.5495243  13.1106746  54.6170807  41.9193506
  55.5325643  12.5841744  35.6265950  55.6729213  13.3344968  36.2041378
  54.6592037  12.2660382  35.8551955  10.4257397  10.2743180  55.0396490
  11.1751560   9.8945649  54.5809650  10.8108906  10.9115918  55.6411314
  13.5867349  12.5667699  59.1045046  14.5337681  12.4411710  59.1643953
  13.2374123  12.1280320  59.8802042   3.7927008  49.6538544  38.8590646
   3.7962675  49.9194956  37.9394722   2.8953683  49.8141289  39.1511917
   9.5563501  30.2266455  47.6514912  10.4291022  30.4183435  47.3082876
   9.7030216  29.5545435  48.3170700  60.7407868  53.9866829  39.8362803
  60.7252490  53.5883617  40.7065296  60.6579101  53.2479620  39.2332387
   8.9552987  48.7628603  52.0274687   9.8444378  49.0613174  51.8361902
   8.8507396  47.9695415  51.5021610  71.6480191  13.8599178  21.4579077
  71.8460329  13.2272836  22.1484155  71.1342080  13.3649561  20.8197565
  47.4785629  30.5509779   7.4022884  47.6207334  29.6702453   7.7491779
  46.7906828  30.4416391   6.7457075  72.5329974  59.7219419  17.2088444
  71.8906033  59.4140196  16.5695119  72.0126044  59.9572372  17.9769969
  41.2412882  58.8661242  34.5720410  40.9909725  59.7560120  34.8203802
  40.9014893  58.3159637  35.2777958  19.4527972  69.0307522  53.3828688
  18.4965682  69.0363359  53.3401203  19.7309494  68.8069725  52.4947309
  45.7555763  12.6786931  35.1530528  46.6651408  12.9144986  35.3355956
  45.7548181  12.4235471  34.2304873  71.9483287  13.5365888  26.1406011
  72.6953776  14.1205188  26.2716551  71.2270100  13.9629289  26.6033811
  28.8461447  61.9730997  42.4165344  28.1347346  61.4090633  42.7198267
  29.5062637  61.3665533  42.0810080  61.6112228  20.0462410   0.0300045
  61.6820915  19.7298404   0.9306164  62.0001955  20.9205696   0.0520010
  14.0044951  53.3899832  49.5864391  13.4639156  53.0709124  50.3090715
  14.8854041  53.0751085  49.7891331   4.3819971   3.6637112  11.5189428
   4.9307104   2.9001018  11.3399238   3.9141150   3.8200423  10.6986494
  57.7325736   4.4146113  10.3496475  58.2969247   3.6939005  10.6294794
  57.8738867   5.0978236  11.0049982  30.8360491   1.0162909  22.4146032
  31.5080772   1.2158091  23.0663729  31.1395524   1.4500554  21.6171288
  53.5385334  34.6076298  49.3981695  53.1402504  35.4374504  49.6608400
  52.8494060  33.9574385  49.5345068  73.0893248  59.6474886  51.5608263
  73.8100598  60.2742147  51.6239357  72.6448302  59.7077036  52.4064207
  39.7036715  42.9537841   6.3619203  39.3512530  43.7872717   6.6739006
  40.0002922  42.5073024   7.1549530  53.0597988   4.5832045  48.2345772
  53.4832255   3.8488992  47.7898979  53.7732402   5.1930983  48.4223604
  61.6806833   1.6998322  56.4921570  62.4297706   2.1393807  56.8945217
  62.0422665   0.8884414  56.1355877  40.7788888  10.7586129  22.7474165
  39.9900202  11.2923081  22.6521325  41.5008096  11.3703378  22.6030302
   3.2813728  40.7399607  48.1522322   2.6829910  40.5365467  48.8711166
   2.7331108  40.7090569  47.3682117  50.8830345  13.9303943   6.7085666
  51.3478322  14.6206924   7.1815176  50.8506884  14.2401764   5.8034630
  71.2427981  21.1707994   3.5800524  71.3428457  21.1877081   2.6282472
  71.2213404  22.0931598   3.8350506   7.6060545  59.9043226  15.8081341
   6.7511612  59.7912312  16.2235856   7.5254977  59.4532299  14.9677432
  39.2293600  12.2112496  50.8137226  39.1257075  13.1606992  50.7502699
  38.4272794  11.9107755  51.2410593  61.6847217  67.5726366  45.6989765
  62.4585533  67.1043253  46.0121870  61.8027973  67.6228857  44.7504187
  18.4214087  25.8895609  23.8960905  18.2251950  26.3924762  23.1056375
  18.3039112  26.5135976  24.6123285  26.2238908  62.3609209  47.7487516
  25.6655788  63.1224918  47.5921440  27.0306301  62.5530100  47.2707272
  49.9056045  10.8329518  48.1995344  50.5451528  10.1214726  48.2313108
  49.7430984  11.0501130  49.1175032  56.7251539  61.5109444  36.3151884
  57.4100268  60.8475971  36.3997245  57.2012257  62.3350000  36.2126136
  25.6833172  66.3855886  45.6728601  24.9249101  66.9655466  45.6043196
  26.1520314  66.5056038  44.8469496  39.7976065  66.8413830  30.2798891
  40.4819345  66.6646957  30.9254193  40.2350616  66.7433643  29.4341612
  59.2887783  60.5821371  26.9756222  59.9294186  61.2447023  26.7171240
  59.5199871  60.3649044  27.8787184   4.1792388  35.1898643   4.5759744
   4.4908328  35.8532068   5.1917000   3.3247347  34.9277040   4.9185009
  56.9605006  44.8726007   2.5562210  57.0873530  45.5999014   1.9469805
  56.3633103  44.2795774   2.1002359  43.1844105  45.5975267   9.7615261
  44.0811862  45.9252855   9.6937055  42.6630641  46.2194750   9.2539663
  13.4924006  56.8320799  43.8301420  13.4104896  56.2337589  43.0874872
  14.3570161  56.6438246  44.1951513  47.7709071  11.7188771  44.1237116
  48.3103410  10.9897645  44.4297123  48.0131522  12.4506886  44.6911621
  64.2760149  67.2107185  16.9190521  65.1998631  67.4024786  17.0801802
  63.8183061  68.0151810  17.1631260  18.3816907  12.3589165  57.2215271
  18.4277979  11.4688523  56.8724012  19.2919270  12.5919755  57.4042416
  18.3249364  20.3454812  41.1280918  18.9703879  19.7381909  41.4897728
  18.2543895  20.0988038  40.2059174  58.6902125  34.4968530  43.0365057
  58.5276903  33.7623521  42.4446173  59.3401100  35.0321266  42.5811548
  68.3685131  34.3855449   2.2665567  67.7440579  34.9766657   1.8460054
  69.0875228  34.9538156   2.5428314  10.4944682  56.5108919  33.5952711
  10.8723330  56.9087839  34.3795776  10.5751693  57.1860504  32.9215646
   0.0881024  42.5869581   8.1962557  -0.6635837  42.1176788   7.8343506
   0.7215448  42.6138994   7.4791403  59.5846869  27.9053804  17.3316736
  59.4860561  26.9721386  17.5202579  58.9886088  28.0662271  16.6002006
  54.7829691  11.0169633  47.1456337  54.6025363  10.9170659  48.0803537
  55.4806439  10.3862508  46.9676304  41.5440178  52.3870564  22.7077770
  41.3853931  53.2476759  22.3199606  41.6340065  51.7992496  21.9577003
   1.2721820  49.5378801  28.9763994   1.1199613  49.4289610  28.0376787
   0.3968878  49.5281431  29.3636961  60.1526069  46.0618925  38.2190967
  59.9230778  46.0969114  37.2904849  59.5604217  45.4063559  38.5876346
  16.6221733  19.2690632  31.7798967  17.5380965  19.1648266  32.0376749
  16.5786477  20.1465723  31.4000101  27.9272819   7.6906951  42.9315567
  27.5256381   8.1012519  42.1658182  28.3349798   6.8947156  42.5903416
   2.1165891   5.3816959   9.9225492   2.1274372   5.5144378   8.9746637
   2.0812054   6.2657520  10.2878160  63.2733142  51.0819721  48.3791924
  63.0936944  51.5769196  47.5798225  63.8612294  51.6451550  48.8825941
  58.7979618  25.9615643  41.2708616  57.8557268  25.8373769  41.3848877
  58.8720003  26.5735658  40.5386066   0.5841179  53.1374094  17.8087158
   0.4982801  52.4084684  18.4231348   0.8075447  53.8887140  18.3581323
  25.6533451  52.9913065   5.7823725  25.5756207  52.2270414   5.2113314
  25.5072089  53.7390730   5.2029581  56.7811920   8.4596988  12.0385904
  57.2787221   8.5280677  12.8534670  56.6889109   9.3636915  11.7377443
  59.6567857  61.9114923  45.8954048  59.5742702  60.9742355  45.7193995
  59.7911095  62.3060846  45.0337315  13.2347977  68.3274603  26.8310833
  13.9530957  68.0851603  26.2466431  13.5507822  69.1065359  27.2887230
   4.1934890  31.2287402  45.6093359   3.4822991  30.6228590  45.8175468
   3.7530693  32.0059681  45.2655697  61.0246944  44.5979786  49.7054100
  61.8325615  44.1602898  49.4370556  61.0542345  44.5897245  50.6621170
  41.1967850  63.7863827  32.4735451  41.4086533  64.6963549  32.2654867
  40.8517838  63.4278059  31.6558456  18.1208313  67.5970507  45.4414892
  18.8563085  67.4947453  44.8374701  17.3537982  67.6739359  44.8740578
  65.0166851  44.9492693  51.7068100  65.8635151  45.0348806  51.2688828
  64.3871605  44.8470926  50.9930229  43.1322721   3.5888036  36.2925506
  42.8117005   4.4826443  36.4130354  44.0709952   3.6901887  36.1352277
  16.3349485  62.6391459  55.9154797  16.9902492  62.9841089  55.3090048
  15.7492292  62.1194029  55.3649998  10.9680068  67.1750355  42.6510477
  11.0072494  68.1120205  42.4593449  10.4147267  66.8120289  41.9594288
  21.2129430   4.8960002  53.0190086  22.0235617   4.4688828  53.2959604
  21.4224435   5.8299907  53.0184221  24.3822598  57.6999331  52.4323702
  24.7560954  58.0065727  53.2584763  24.5533037  58.4101295  51.8138313
  43.3644763  10.7652600  34.3179059  44.1441253  10.3493722  33.9499140
  43.0075792  11.2848409  33.5975671  49.6539894  15.6042130  16.3096905
  49.5913187  14.7494633  16.7359614  50.2913491  16.0877831  16.8352067
  19.2474989   1.7214520  17.9514730  19.8252730   1.8023808  17.1926188
  19.0489964   0.7864650  18.0027378   8.2068646  47.5860691  45.2789068
   8.1992984  48.3897543  44.7590351   7.7329099  46.9498873  44.7433043
  51.6582385   3.9602216  36.4932823  50.9079686   4.5409997  36.6198683
  52.3771874   4.3940862  36.9527411  35.9361029  14.9685609  32.6325774
  35.6222558  14.6528566  31.7851925  36.1213040  14.1726637  33.1310558
  36.9687382  59.1182817   8.8536186  36.6806094  58.5608400   8.1307955
  36.8024985  58.5970367   9.6390457   0.5837295  40.4561615  14.6090055
   1.4364657  40.8155251  14.3642008   0.2497158  41.0616446  15.2708614
  15.2755690  30.2379942  52.6600552  16.2177896  30.1836514  52.8197336
  14.9702442  30.9201717  53.2580853   2.3597781  29.0626526  30.0686979
   2.8802267  28.8756299  30.8499718   1.6467485  28.4246945  30.0975251
  10.7746569  65.8739652  16.5928716  11.0166804  65.0659002  16.1404486
  10.6529251  65.6105245  17.5050182   0.8632718  11.4711201  24.3285632
   1.0360156  10.6208289  24.7327852   1.1830968  12.1090174  24.9665523
  16.9318521   5.6187057  45.7305956  17.3015606   5.8789247  46.5742970
  16.0621595   5.2807158  45.9442043  68.6497473  28.9694571  24.6970296
  69.5689404  28.7416816  24.8364353  68.5975951  29.8997355  24.9163342
  66.4823228   1.2949517  57.7352619  65.9898090   1.1982726  56.9202042
  66.8834543   2.1616927  57.6713419  40.6657447  63.8804375   5.4457617
  41.4157124  64.0174471   6.0245609  40.8798285  64.3756019   4.6550584
  10.1845086  30.7255769  43.9695120   9.7613484  31.4554596  43.5173655
   9.5378238  30.0203490  43.9433718   9.8737065  60.3631533   3.6969538
  10.8111671  60.4523052   3.5253448   9.8238198  60.0632824   4.6045990
  41.9428237  67.2803749  28.1132698  42.4152162  66.4478724  28.1092048
  42.4145385  67.8203337  28.7474322  56.3113713  58.1502581  37.6724243
  55.5385005  58.6953115  37.8201270  56.7738855  58.1583786  38.5104275
   5.3133434   4.0944344  29.8545504   6.2376320   4.1447166  29.6108413
   5.0341076   5.0073165  29.9245834   7.0950574  44.5609045  56.8566227
   7.5093019  43.8259363  57.3087835   7.0898682  45.2672911  57.5025511
  33.9506483   5.1301259  43.4781837  33.1379580   4.6437559  43.3395910
  34.5845199   4.4655019  43.7478399  73.2146919  29.3175197  40.5039835
  73.6006736  30.0986481  40.9003353  73.8791513  28.6379719  40.6177330
   0.7617492   4.0522560  37.1112037   0.7583495   4.9228695  37.5090122
   1.6488610   3.7246791  37.2593856   9.2943430  40.5277395  19.2521739
   8.4441984  40.2195549  19.5660317   9.3535179  40.1959991  18.3562517
  19.5163167  17.7084863  42.3233986  19.1450322  16.8968272  41.9775772
  20.0198603  18.0711257  41.5945864  57.1079322  69.0719226   8.5936093
  56.8342926  69.5716622   7.8244448  58.0093112  68.8126244   8.4025264
  38.4907484  14.0575635  14.1810703  38.3886600  14.6566403  14.9206090
  39.4292164  14.0671241  13.9928687  43.5314824   2.1845314   6.1321850
  43.3573241   3.0587360   5.7833738  44.3891091   1.9513246   5.7767649
   4.2631760  15.5764723  48.0198383   4.6276179  15.8707595  48.8545847
   3.3388892  15.8216763  48.0622768  34.8130294  59.2576818  32.5233603
  35.1786347  60.0508825  32.1317029  34.6915801  59.4803660  33.4463429
  27.3006487  23.7887692  53.6417150  27.8815222  23.0402207  53.5057354
  27.8882027  24.5100641  53.8669872  61.0721075  34.3796897  30.5076456
  60.6175005  34.3975616  31.3498139  60.6086325  35.0231600  29.9715781
  62.1446943  45.2127504  18.3840752  61.8594479  45.7884455  17.6745379
  62.3017490  45.8018303  19.1220105  34.4069823  58.6718862  54.9888849
  35.2802225  58.6213212  54.6001387  34.2845519  59.6012227  55.1827288
  72.1044036  64.1637945  25.0352144  71.7807367  64.5837975  24.2383003
  71.7645591  63.2701015  24.9899220  17.0424128  22.5569510  41.8658400
  17.5081956  21.7914534  41.5292549  16.1546528  22.2417235  42.0353842
  65.1322871  25.1829648  36.1316514  64.3647003  24.8784709  36.6157222
  65.8270836  24.5711589  36.3749313  26.8365335  13.8061488   6.1523652
  26.7992377  14.0836513   5.2370334  27.3679447  14.4751251   6.5839940
  51.1213779  10.5968952  43.2131195  51.9493866  10.1990592  42.9441214
  51.2445784  10.8030534  44.1397047  37.8489800  20.3295385  60.4973928
  37.6220210  19.4059049  60.6051992  38.3366486  20.3618585  59.6743696
  28.0114806  58.5920180  35.7597990  27.1940287  58.3422960  36.1906595
  28.0342559  59.5467724  35.8242769  70.7586094   8.2868117  20.2335954
  69.8385980   8.0338067  20.1574421  70.7458582   9.0765947  20.7742548
  19.9118539  69.5158055  50.1423693  19.5275899  70.3310329  50.4648256
  19.3004175  69.2116836  49.4716311   5.6429902  16.3864936   6.5904350
   5.7704667  15.5020417   6.9335480   5.4193929  16.9115890   7.3588819
  65.8476215  64.7204399  33.0837345  65.4887539  65.4888105  33.5276437
  66.2468296  65.0690222  32.2866416  68.2441181  66.6972685  41.4712191
  67.4989688  66.1785793  41.7744446  68.5878348  66.2083673  40.7235098
  74.4497401  33.1739235  34.2184877  74.4673888  32.7521396  33.3594084
  74.9153303  32.5663567  34.7932196   3.9190763  63.4509754  48.5145760
   4.1472742  63.7282181  49.4018698   3.9664793  64.2525482  47.9935503
  25.3729571   6.5861161  11.1395764  24.4287225   6.6175301  10.9857392
  25.5916812   5.6552012  11.0972559  74.3913003  31.9348001  31.7106152
  75.1690515  31.4382887  31.4560294  73.6565152  31.3833356  31.4418912
   0.6796480  43.3016682  47.2775555   1.1165335  43.2590485  46.4269400
  -0.0821077  43.8616037  47.1277714  20.4746270  47.8826475  60.4151106
  21.1614466  48.4975624  60.1574564  19.8417711  48.4174776  60.8943605
  68.7709236  61.9926596  22.4209929  68.6111575  62.7913713  21.9182277
  69.6814775  62.0674896  22.7065158  66.9136959  52.7875233   4.7898641
  67.3916822  53.5747576   4.5290467  66.9402337  52.7971792   5.7466477
  69.2792630  64.5466709  48.6849785  68.8530957  64.9339342  47.9203606
  69.0853333  65.1528645  49.3999243  11.1312878  60.6238365  29.9037385
  10.6491387  61.1604023  29.2745638  11.6119945  61.2556171  30.4385352
   7.2863436  44.1567230  27.2020221   7.3322505  43.6007977  26.4241600
   7.5198907  45.0297594  26.8865919  66.0944503  22.2214746   9.2954040
  66.3741100  21.7906642  10.1031315  65.1627940  22.3968434   9.4276720
  18.4021950  25.8239412  33.8511372  18.9673924  25.1033163  34.1295004
  18.9613950  26.5993094  33.8993835  10.2789390  60.3488731  41.2824917
  11.1509395  60.7122755  41.1282730  10.4308677  59.5957232  41.8533802
  39.4417707  23.3978970  51.8376541  39.7275869  23.7148221  50.9808588
  38.4862498  23.4428151  51.8030977  74.3274953  32.2679090  46.3843393
  73.6383392  32.5812602  45.7985830  74.3069058  32.8745365  47.1244764
  54.1635042  61.9669496  10.8792281  55.0610515  61.6720562  11.0331070
  54.2380103  62.5972776  10.1627314  71.9557941  70.1366711  51.6725349
  71.9426238  70.0019932  50.7249498  72.6476618  70.7830667  51.8129873
  56.3841595  15.7710096   5.9533329  55.5080153  15.5978319   6.2977333
  56.7602785  16.4054128   6.5634937  52.8189027  68.8455915  49.0223646
  52.4947941  68.9575720  48.1286955  53.7087452  69.1976213  49.0002966
   5.6017393  46.2983131   7.3767430   4.8857784  46.9270086   7.4682593
   6.1231589  46.6336107   6.6474092  15.8402264  62.2179651  12.8995788
  16.0393071  61.8331146  13.7530947  16.6796148  62.2278023  12.4396217
  59.5255806   5.7058679  52.5082885  58.7659272   5.1276361  52.4389785
  59.1792591   6.5112792  52.8924822  40.3951695  63.1518726  49.1326046
  40.2421029  62.9382591  48.2121849  39.5290311  63.3740865  49.4741535
  70.6561750  35.5234861  45.3011560  70.6145450  36.4662743  45.4613066
  70.0792852  35.3823566  44.5504808  54.2333638  11.0916066  38.2208943
  53.7374127  11.5843117  37.5670576  53.8518440  10.2139843  38.1995845
   2.0557849  31.8517780  47.5116253   1.2094206  32.2592306  47.3275566
   2.5548607  32.5308466  47.9655218   6.1988539   3.8880685  35.9338188
   6.3479912   4.1659772  35.0300741   6.6591108   3.0519241  36.0063291
   6.1937356  44.9019289  40.0807333   5.4345870  45.3547573  40.4479837
   5.8252674  44.1385794  39.6360350  71.6922768  52.3575513  38.7815499
  72.1324165  51.5234904  38.9454007  71.9930704  52.6202624  37.9116416
  69.0629452  51.5224361  30.6914997  69.4990152  51.5468216  29.8397470
  68.3718824  50.8682346  30.5881310  73.1574270  30.9986377  16.6516089
  73.9627627  31.4775467  16.8473494  72.8951011  31.3144660  15.7869303
   4.6559384  10.4139423  36.4686823   3.8867801  10.2442253  37.0125794
   4.9521148  11.2836063  36.7373776  74.7875897  44.0146399  32.0632577
  74.9880432  44.3608904  32.9328322  74.3990647  44.7535419  31.5949559
  43.2222128   5.0878280  39.8781252  43.9348793   5.4828489  40.3804159
  42.8092194   4.4767457  40.4882431   0.3690128  39.9369144  54.7368526
  -0.3451101  39.3760037  54.4341326   0.7973768  40.2336121  53.9339161
  57.4733019  69.7528028  37.1647120  58.3362436  69.9169254  36.7844129
  56.8564307  70.0255823  36.4855289  46.2038984  11.3370143  41.9378023
  46.8528517  11.2196551  42.6315730  46.6127320  11.9521772  41.3289838
  53.4304940  13.0047822  51.5923071  53.2496059  12.4635398  50.8238220
  52.8145921  13.7341285  51.5219307   1.5308689  41.9900942  23.5425568
   2.1075875  42.0893574  22.7850795   0.7614886  42.5178289  23.3285999
  64.2349469  59.0038443  43.8317966  65.0991469  59.4080496  43.7542820
  63.8609385  59.0677691  42.9530096  68.6474591  11.7606604  16.4610839
  67.9274648  11.9188952  17.0716584  68.4290093  12.2865641  15.6917095
  17.5472939   7.4702489  42.2068310  17.5049984   8.1957793  42.8297663
  18.2153296   6.8857032  42.5649738  63.2305877  26.8449387  52.2742127
  63.1859509  26.6662696  51.3348954  63.0979077  27.7902684  52.3447769
  73.6708784  50.5543232  16.4864087  73.9109876  50.6792831  15.5682778
  73.0520859  51.2610388  16.6704726   5.6265026  32.5197315  56.0045528
   6.1208427  33.3164120  56.1973286   4.7092152  32.7861357  56.0665560
  34.8439626  69.2247332   5.1332826  34.6671847  68.9263357   6.0254354
  35.1071266  68.4332265   4.6637173  67.2143596  53.1787682  49.6945477
  66.2752437  53.0504799  49.5609999  67.6162135  52.3801661  49.3525219
  17.4046612  44.8637819   9.4143140  17.2942674  45.1298666  10.3271365
  18.1974685  44.3274212   9.4153851  63.2103002  19.2141390  24.0024161
  63.5073220  18.3281326  24.2097878  62.2572756  19.1718149  24.0810680
  60.7063663  28.3587623  28.2581782  60.6575155  27.4938607  27.8510022
  60.1909005  28.9238715  27.6826954  14.1630617   2.2314723  34.7671390
  14.4303922   1.7614587  35.5569816  14.7798566   1.9409974  34.0952611
   2.0496322   7.8280950  29.5965791   2.5688902   8.3602959  28.9937806
   1.1581013   7.8763109  29.2514992  62.2936833  22.2650409  59.1966963
  62.1489739  22.5523448  58.2951689  61.5938401  21.6332793  59.3620014
   7.4157113  11.2991667  29.6695948   8.3638382  11.3953960  29.5800018
   7.0890677  11.2973678  28.7698555   9.9687642  49.1212702  27.2020626
  10.3926218  48.2638311  27.1649432   9.7000134  49.2162371  28.1158376
  67.8504797  26.0213290  55.0940310  67.3041089  25.6735526  55.7988464
  67.2314747  26.2435828  54.3985688  13.5021925  30.1472044  50.5424738
  12.9188454  30.3045797  51.2848806  14.2087495  29.6111059  50.9024858
  66.9294357  44.7990608  31.8738794  66.1789930  44.2068577  31.8252087
  66.8767631  45.3188562  31.0718393  69.0523346   0.6682846   0.9282560
  68.6434121   0.2839729   1.7037029  68.3498068   0.7023164   0.2790041
  60.6953943  26.1049104  45.2899837  59.7727310  25.9444284  45.0920725
  61.1684763  25.7292676  44.5474768  67.6691609  70.3289032  29.0980077
  67.0656979  70.9378767  28.6723065  67.1194565  69.5899105  29.3586659
  21.7698383  68.7950277  60.8253670  21.3943410  67.9970074  60.4533386
  22.2345781  69.2039871  60.0952959  10.7013607  21.7896199  51.2060547
  11.4563966  21.6067553  51.7652607  10.1374507  22.3488760  51.7403460
  25.4283142  39.4039249  35.0833750  26.0488677  39.9807882  35.5287671
  24.6881318  39.9705839  34.8659897  59.3129635  50.5713272  20.2955914
  59.7737264  50.9088516  21.0637093  59.9901807  50.1255751  19.7867560
  57.8920459  48.8054895  34.9273419  58.2113659  48.2044125  35.6003714
  57.1029412  48.3850574  34.5856094  52.9255306  32.2638512  57.4396467
  53.8147199  32.4979472  57.1736193  52.3606312  32.7289629  56.8225670
   1.2343825  31.6540909  44.2371893   0.7602267  31.9455385  45.0159454
   1.5007952  30.7574892  44.4405556  57.2705233  26.0847330  46.4276600
  56.5221584  25.5382204  46.6674662  57.4629914  25.8431292  45.5216694
  61.8975413  20.8204579  47.6781607  62.7823186  20.8584285  48.0414200
  61.4056051  21.4726353  48.1770563  68.0309921  45.1288557  44.8150635
  67.6371526  45.9533024  45.1003838  68.9207178  45.1539373  45.1671886
  34.0052266   0.9095809  16.4845867  34.8672660   1.1149856  16.8464298
  33.5413642   1.7468664  16.4807863  71.4085918  46.7830849  21.3732409
  71.7069238  47.5361300  21.8832874  70.8010110  46.3256598  21.9544816
  73.9447356  37.7004361  31.6241908  74.5071502  37.3113799  30.9544468
  74.0724025  37.1474075  32.3949671  19.9868417  20.2773046   5.5760044
  19.3074954  19.6866512   5.2506608  19.6708059  20.5554342   6.4356542
  62.5411343  48.1458807  51.3856745  61.6934311  47.8565216  51.7231703
  63.1462323  48.0174971  52.1161556  70.8269661  30.9458160  17.9525137
  70.6488538  31.8423939  17.6685154  71.7227322  30.7757568  17.6611114
  47.6787345   4.1956731   2.4052210  48.1865847   3.7967631   1.6986866
  46.9900648   3.5583851   2.5945110  53.1233132  53.8425922  57.2485685
  53.6569559  54.4798088  57.7233458  52.3485768  54.3344402  56.9763517
  29.9939605  21.6147195  55.9688364  30.8433791  21.8940030  55.6271904
  29.4097134  21.6439448  55.2111869   1.9982711   5.6718762  31.1196303
   1.1538974   5.8390315  31.5383458   2.0831171   6.3660558  30.4660678
   2.9545853  28.8068080  48.5309458   3.4405720  28.5750747  49.3223667
   2.0389965  28.8268971  48.8093805   0.1974366  15.5093694   8.2413864
   0.9725333  16.0550523   8.3743823  -0.0455026  15.6570733   7.3273861
  19.4112074  17.7950346  17.2695088  19.6089435  16.8585277  17.2788775
  19.7780526  18.1254983  18.0895388  38.5008601  10.2805264  37.1457911
  39.3438808  10.6767304  36.9254160  38.6791853   9.3406518  37.1784973
  20.7924843  41.8582869  50.5668259  21.3563776  41.2711287  51.0703135
  20.1563001  42.1838284  51.2036324  41.3339486  58.0824964  24.2341185
  41.1718847  58.9224581  23.8046646  42.0744421  57.7083425  23.7567186
   7.7929175  67.1304893  59.9605560   7.6623881  66.2038183  59.7593737
   7.6752132  67.5765514  59.1218662  73.9622357  16.4836419  12.6471961
  73.5634292  16.1097288  13.4329271  73.7534009  15.8593285  11.9523215
   8.2350177  17.3858166  57.7883148   8.7173665  16.6423869  58.1500959
   7.8834820  17.0624483  56.9588041  71.5145142  17.3518964   3.2370443
  71.5352900  17.0732471   2.3215360  72.3916109  17.1565124   3.5668344
  64.6788680  44.0806055  34.1675448  63.7937402  43.8450003  34.4455218
  64.6294915  44.1119480  33.2121325  11.3746953  54.2372417  32.3502541
  11.9638324  54.0242004  33.0739689  10.8457506  54.9645233  32.6781487
  72.8176158  55.9433699  54.7851753  72.6604014  56.7725754  54.3335867
  72.9155192  56.1867809  55.7057190  34.4218198  67.0939292  16.4545984
  33.5765753  66.9160594  16.8670959  35.0647441  66.9247187  17.1432562
  -0.0945338  15.6280351  35.7820201  -0.5164537  14.8927128  36.2264514
   0.8272588  15.3764701  35.7250524  21.5153551  40.1458263  60.7602024
  21.5196204  40.6080675  59.9220181  22.1814585  39.4654775  60.6619167
  33.8722785   7.5187751  18.4062071  34.4291277   6.7838451  18.6631651
  34.4845302   8.2334682  18.2312984   0.3827639  63.5870287   4.3894119
  -0.3786497  64.1603586   4.3012113   0.0991769  62.7529451   4.0150947
   0.5196317  36.4503108  60.4305592   1.4656886  36.3633596  60.5473815
   0.1699194  35.5891000  60.6591409   8.7983334   8.1333578  20.6167126
   8.5062253   8.0027163  19.7145820   9.7405070   7.9665548  20.5899262
   5.9362131  32.6196575  35.2655292   5.5465347  32.0156717  35.8976555
   5.2907574  33.3206367  35.1747251  18.5789657  31.8342900  37.9263806
  19.0288472  31.0246658  38.1679320  18.0810201  31.6065264  37.1412659
  58.5567403  53.9769554  48.9331579  58.8414991  53.6965990  49.8029518
  59.3096757  54.4467258  48.5744953  28.8957071  14.1913533  12.6503026
  28.5955429  14.8000968  11.9753480  28.4248018  14.4579709  13.4398556
   6.4806819  14.6320713  39.5063925   5.9192234  15.3972661  39.6307802
   6.6842926  14.3375540  40.3941059  18.1366003  25.7597232  30.8176327
  18.2714832  25.3239441  31.6591382  17.5790191  25.1588416  30.3233910
  36.4740089  46.1359848   3.1774731  35.6934968  46.3993467   2.6899547
  36.7529718  46.9315018   3.6308641  28.0903864  35.7623720  16.5259826
  28.2559586  36.5737176  16.0458422  27.1369195  35.7162619  16.5967572
  26.9532394  21.0309482  56.5649700  26.7228723  20.3666425  57.2144794
  27.6612163  20.6342721  56.0573816  74.0964167  54.6052027  11.5506887
  74.8414383  54.4178867  10.9796488  73.5676161  53.8077831  11.5238309
   4.5474523  33.7649035  59.2367363   4.2645788  33.4662676  58.3724308
   5.2395129  33.1528091  59.4869852   6.8385142  31.3356876  44.3764448
   6.7910004  32.1484160  43.8730097   6.0321271  31.3258553  44.8920774
  63.4975576  48.1828356  28.8211346  64.3858528  47.8898478  28.6178565
  63.2733476  47.7238941  29.6306634  66.2828278  60.4748726  28.9742184
  65.3367519  60.6141043  28.9319444  66.5416139  60.3113461  28.0672884
   5.6834058  55.4607309   5.6201334   5.0646392  56.1126675   5.2909822
   6.5412072  55.8742489   5.5231209  52.2438252  57.1907663  47.7687025
  51.8564307  57.9921675  47.4166965  52.9957330  57.0191431  47.2017670
   5.7415801  59.1411114  34.7073364   6.3370067  59.0842533  35.4546428
   5.6212002  58.2336998  34.4274306  65.9912681  20.2505612  42.7299547
  66.1488044  20.0328612  43.6486626  66.4770275  19.5871460  42.2399044
  51.5450159  25.1330186  10.7673378  50.6602136  25.4881026  10.8526249
  51.4958350  24.2673959  11.1729355  63.8560092  39.5114541  25.7712245
  64.7820961  39.3768597  25.5700254  63.8577962  39.9761653  26.6080475
  61.9931221  37.5503421  34.0997553  61.3306904  37.9991031  33.5743690
  62.8240597  37.9271531  33.8102913  54.7533643  26.2088990  20.8952165
  55.3120851  25.6408405  20.3647685  54.0219342  25.6493354  21.1562395
  36.7508081  27.7126153  16.4480805  37.2475199  27.1418412  17.0343590
  36.3314954  28.3467706  17.0296776   1.6127844   9.9895257  27.3077464
   1.0589243  10.0218999  28.0877614   1.9760704  10.8721268  27.2351527
  70.9761174   8.6461708   1.8245430  70.1530607   8.3210060   2.1893377
  71.6069276   7.9469654   1.9960804  21.9832158  21.6796374  53.1716871
  21.7220974  21.4329863  52.2844362  21.7547727  22.6066923  53.2395935
  28.2487941  49.0090561  22.2435999  28.1494403  49.5398188  21.4532518
  27.5968075  49.3591166  22.8507233   2.8383961  25.0465727  54.1622925
   2.1286429  24.7466254  54.7301960   2.4592835  25.7740068  53.6689901
  72.6647881  67.4283136   2.9492874  72.6625231  67.5706662   3.8958425
  73.5226182  67.0448316   2.7668066   7.0832241   5.5975807  43.8007069
   6.6256517   5.8125407  42.9878998   6.9075310   4.6663320  43.9353895
  51.7536270   6.0214037  22.8345013  52.5914275   6.0579860  22.3730040
  51.1320722   5.7069457  22.1779823  31.7659211  38.4518909  12.9928637
  32.2558641  38.8165379  12.2558296  31.9064212  39.0751147  13.7056613
  31.6110166  15.3384696  61.3151834  31.4549466  14.3986808  61.4083077
  31.8736430  15.4482423  60.4012862  45.4012786  68.4044753  28.8110971
  44.9241464  68.9078672  29.4707751  45.3086196  67.4939300  29.0913701
  64.5725667  34.2886066  28.9900708  64.3332529  33.8612270  28.1676936
  64.8367816  33.5704851  29.5651603  19.3176830  28.6194229  33.9794111
  18.7977803  28.4558225  34.7662830  18.7365973  29.1222286  33.4086585
  60.2595925  23.2130241  48.3267975  59.8023605  24.0371370  48.4941578
  60.1233506  22.6977754  49.1219044  64.5999253  58.3521843  39.9163818
  65.4034906  58.0720472  40.3546047  64.6543920  57.9620886  39.0439749
  69.7077834   6.2449312  60.7017374  70.6105596   6.5603238  60.7436275
  69.5582348   6.0694784  59.7727156  74.4633819  65.4146385  25.6845069
  74.2679594  66.2735081  25.3098249  73.6283262  64.9473572  25.6607985
  69.3145877  28.9120984  19.4899893  69.7093367  28.5663652  18.6894441
  68.8561386  28.1643248  19.8732531   7.9484781  54.8144345  33.6705923
   8.0315145  54.4143145  34.5361805   8.7937769  55.2376430  33.5202718
   2.9239681  25.8188534  47.3127079   3.3169034  25.9696603  48.1724119
   2.8600022  24.8663878  47.2423506  71.8432674  22.1018219   6.7848611
  72.5712968  21.5822244   6.4439452  71.3598811  21.4967012   7.3473519
  64.8487788  47.8281307  22.2005677  64.7641611  47.3748589  21.3617492
  64.2397403  47.3723745  22.7815938  62.5833964  49.8318672  33.5881233
  61.9616675  49.1388607  33.8104463  62.0358526  50.5958509  33.4071422
  74.1395791  26.1845040   6.8983436  74.3557081  25.2833319   7.1379387
  74.3435953  26.2396264   5.9647644  64.7407150  62.1935368  36.2737322
  64.7742271  62.0308542  35.3310537  63.8862812  61.8576145  36.5445304
   7.8672293  62.0694174   0.3195782   7.3239139  61.9981803   1.1044140
   8.3414666  61.2388791   0.2803821  28.4634716  66.0027231   6.3176508
  29.0363107  66.6321267   5.8795471  28.0866847  66.4909543   7.0497007
  68.5140764  50.2177429   0.9416290  69.1941589  50.8610344   0.7418869
  68.3783239  50.2980185   1.8857469  28.1574202   7.6639064  38.5738182
  28.4049449   6.9742806  37.9578805  27.7738545   8.3483727  38.0255342
  64.1795134  65.7960606  30.5997658  65.0399935  65.7562160  30.1823711
  64.3414211  65.5386829  31.5073848  61.7639918  32.4581501   2.7518387
  61.8318601  33.4127733   2.7341003  61.7394991  32.2025940   1.8297071
  40.0631515   3.9830334  60.3955317  39.3779627   4.4501479  59.9174595
  39.6295730   3.1975062  60.7289791  63.8411379  36.9701481   2.1123695
  64.7950482  36.9287848   2.0447272  63.6776972  37.6091194   2.8060800
   9.7346262   7.1088774  49.5709085  10.3220490   7.4755080  48.9100361
   9.3416218   6.3466866  49.1456509   6.4289278  46.4150381  23.9524031
   6.1940527  47.3422050  23.9145994   6.0105360  46.0303783  23.1821966
   1.7312981  52.3114586  27.5063515   0.9465179  52.2076559  26.9682288
   1.7398252  53.2394266  27.7409530  51.5870086  12.0250447   8.3841270
  51.0546771  12.5753911   7.8096956  51.4862958  11.1414655   8.0300379
  26.0447287  37.7300294  10.8133292  25.1071433  37.8544743  10.6660879
  26.2819854  38.4149678  11.4384711  13.5286045  11.0222816  21.3266373
  12.5891089  10.8472311  21.2724423  13.7668025  11.3248622  20.4503179
  59.4971955  56.8837833  44.1259050  58.9083481  56.2621021  44.5536947
  60.3751635  56.5729523  44.3467855   0.9694394  10.8862458  60.1049775
   1.1110982  11.5052568  60.8212102   1.7194041  11.0159169  59.5244860
  55.8060006   3.6955102  33.8967156  55.2238635   3.0677111  34.3247581
  55.6715754   3.5471375  32.9606867  11.1481408  57.5582804   3.2034798
  11.5443543  57.2473396   4.0174599  11.6292254  58.3586921   2.9934091
  74.3909396  31.4070773  41.7215252  75.2579432  31.5850639  42.0860243
  73.9876942  32.2703719  41.6301680  21.8717796   5.0578339  26.3634038
  21.0872514   4.6623547  26.7433262  21.6578505   5.1724131  25.4374766
   3.6968544  36.3773966  26.6448879   3.0666220  35.8242369  27.1064663
   3.7448844  37.1758389  27.1706390  73.7026198  49.1126558  11.8522186
  73.7250764  48.4878465  12.5770206  73.8928635  48.5859319  11.0759516
  24.7156687  41.4076921   5.2557201  24.5253582  42.2684452   5.6287021
  23.8624926  40.9775182   5.1984711   8.5130024  55.3717279  26.0265422
   8.4963560  54.5231533  26.4691257   9.4365108  55.5163097  25.8204865
  28.9558172  51.8632746  57.4399710  29.0229225  52.4316835  58.2072020
  29.8343849  51.8689823  57.0600843  17.1470010  53.5739422  58.2295418
  17.7718461  54.0390348  57.6732254  16.3011944  53.7045431  57.8008413
   9.3886769  51.4460897  23.6183476   8.7493503  51.3214111  22.9169559
   8.9697498  52.0642519  24.2171860  34.1599282  34.2935430  54.1462718
  33.3943077  34.3767892  54.7147148  34.3141492  35.1803981  53.8207989
  22.7654481  43.9627504  26.9949579  22.4681616  44.8698044  26.9235635
  21.9686151  43.4627581  27.1718764  62.0258904  57.9858446  53.3377457
  62.9340219  58.1932974  53.5579586  61.5602493  58.0327272  54.1727352
  58.3486140  57.4211931  23.3372450  58.5324406  57.7918243  24.2004204
  57.4995768  57.7902412  23.0939960  66.2779490   3.6965020  25.9514928
  66.2769572   2.8300126  26.3582230  66.7835156   4.2429431  26.5531874
  61.3128948  47.3842001   9.8063737  61.1355686  46.6594791  10.4060125
  60.4653072  47.5758123   9.4049811  63.5583845   7.2207339  12.4604976
  64.3792263   7.3780186  12.9270923  63.2820717   8.0875714  12.1630406
  61.4752769  31.8328762  29.5343995  61.4390206  32.6396418  30.0482535
  60.6196415  31.7815924  29.1083837  63.3145129  39.2025828  38.3275151
  62.6123166  38.6782908  37.9424596  63.0801356  39.2742038  39.2528105
   3.1809465   0.4557498  19.9879062   2.4282304   0.2633174  20.5470276
   3.0032483  -0.0182407  19.1755092  64.6910035  24.2773438  27.1938443
  64.9424767  23.4951138  27.6848722  65.4863459  24.5327306  26.7264676
   5.9646899  69.5745182  46.5490294   6.2502807  70.1664352  47.2449493
   5.7087368  68.7733650  47.0060539  25.1152239  10.9645112  52.4558687
  24.9087091  11.8833382  52.2845459  24.9267318  10.5186589  51.6300917
  51.5264622  17.6734002  26.7219448  51.7732612  18.0027230  25.8577299
  50.7292358  17.1669228  26.5665579  72.8797160  27.8678966  26.2944198
  73.7809223  28.1625128  26.4257956  72.4251926  28.1219172  27.0976090
   9.1832519  52.5816107   9.3971705   9.6033722  53.4110403   9.1696179
   8.3880985  52.8363705   9.8652107  45.7381622  13.7488004  21.9621057
  45.9902640  13.2902452  21.1606092  44.9174072  14.1878149  21.7388220
  38.9527956   0.6457074  52.1612740  38.8395313   0.8775313  51.2395000
  38.1646839   0.1493247  52.3819923  10.9544563  58.0087805  42.9325342
  11.8616223  57.7615213  43.1118250  10.7449830  58.6558437  43.6060810
  33.6863422  67.3635626  58.0661821  34.5720363  67.7264261  58.0764341
  33.1235266  68.1111813  57.8648472  28.3404253   3.2044728  47.4930906
  27.6712087   3.6891492  47.9762745  29.0654794   3.8228019  47.4025774
  34.8836613  69.1020250  41.5243244  34.0106487  69.4929504  41.5597439
  35.4001808  69.7163153  41.0027075   7.4800742  41.5423250  34.4213700
   6.5556639  41.4168215  34.2070198   7.9465353  40.9640312  33.8178635
  26.3703156  60.5988503  43.4090662  25.4387236  60.4073381  43.5171938
  26.7005348  59.8830700  42.8660727  20.8125085  24.0635236  29.5182824
  20.6041954  24.1838486  28.5918045  20.4867060  23.1875832  29.7252250
  64.6701987  15.5575248  18.8756771  63.9853115  15.7690641  18.2413168
  65.4696722  15.9213182  18.4952421  30.7738924  58.6757708  13.4905922
  31.4635181  58.0119801  13.4963334  30.1256514  58.3530903  14.1166067
  46.0876957  18.7229569  49.9096870  46.4700929  18.1405289  49.2533493
  45.6689254  19.4163354  49.3997049   0.0098534  60.9825727  12.0362587
  -0.2923827  60.6909868  12.8964109   0.9243937  60.7028505  11.9962473
  71.0196730  34.7977185  23.8700676  70.9812608  34.8131108  22.9137611
  71.7106527  34.1668105  24.0718937  27.6823492  11.0483190   6.5515919
  27.2092982  11.8798324   6.5193291  27.4695225  10.6193611   5.7227773
  16.8556042  26.2123319   2.6611919  16.1273547  26.8292448   2.5883646
  16.4979096  25.3815004   2.3481436  66.1503100  26.1632442  15.9991109
  65.9547996  26.6111374  15.1760674  65.3872615  25.6071091  16.1562777
  62.6466210  19.0086576   2.9212923  63.5079582  19.2837640   3.2353754
  62.0449956  19.2581007   3.6227579  66.0379282  19.5763142  11.0242724
  65.9169499  20.2534421  11.6899264  65.1488892  19.3211587  10.7778382
  18.5652566  66.4583015  41.2265444  17.6676404  66.5737963  40.9148121
  19.0583372  66.2019205  40.4472017  53.4274355  23.2353623  14.4501257
  53.0406324  24.0933163  14.6248531  52.7989880  22.8024991  13.8722682
  62.0274917   5.4313977  45.5975294  61.2151018   5.8312972  45.9079075
  62.6092020   5.4500230  46.3574600  24.8541188  69.6715689  37.9245520
  24.9338984  69.2943525  37.0484400  23.9711881  70.0405741  37.9469538
   2.5248499  41.1447260   2.3527927   3.2430048  41.7042991   2.6483650
   2.3207398  41.4617082   1.4729709  71.1222198  59.0854073  37.0601463
  70.9725299  58.2179070  37.4360037  71.2212029  58.9259338  36.1215281
  21.2411038   4.9130519  19.6861458  21.9302291   5.3983386  20.1398325
  21.4073748   3.9969285  19.9081981  20.7052350  63.1773710  50.4721880
  21.4795923  62.6721478  50.7198811  20.8927250  64.0663099  50.7736301
  57.1102301   8.7090953  35.6701899  56.2618128   8.2729037  35.7486343
  57.1043936   9.3704779  36.3621235  25.6040812   9.2335731  37.7351451
  25.3261995  10.1279891  37.9327130  26.1402583   9.3179893  36.9467163
  16.3754737  33.4461212  46.1152792  15.5634618  33.8127089  45.7653046
  16.9743919  33.4346128  45.3686905  33.0572295  55.6110048  51.5594006
  33.6963964  55.6054449  52.2719097  33.2312608  54.8038387  51.0752201
  30.7483673  36.7964053  18.7201357  29.7970581  36.7256570  18.6411643
  31.0331774  37.1485567  17.8768659  21.4200748   4.7034009  40.7054758
  21.5978206   3.7737067  40.5629587  21.5496150   5.1063712  39.8469496
  13.2919526  36.5453649   5.0386631  13.1200194  36.6608858   4.1041440
  13.8128090  37.3104572   5.2827394  37.3310741  17.6238547  57.8008168
  36.5766557  18.1421720  57.5207548  37.3864611  16.9155513  57.1593573
  61.3672340  54.4012451  53.1090879  62.2294342  54.6049356  53.4715176
  61.2085199  53.4925842  53.3647823   3.8644806   2.9198821  39.8231649
   3.6149565   3.2997115  38.9807272   4.0944163   2.0135196  39.6185517
   5.4023302  44.0539598  33.2511091   5.4567248  43.1362247  33.5176301
   4.6235746  44.0964508  32.6961613  74.6732899  58.6785178   5.4671669
  74.2292329  58.7949340   4.6272311  75.3666111  58.0440263   5.2856296
  54.8372625   7.5682470  35.8857412  54.3549086   7.3626300  35.0849314
  54.1613842   7.8238460  36.5135069  68.1288779  50.6531858  45.9123039
  68.6293846  49.8513460  45.7613897  67.2175097  50.3967810  45.7712555
   4.3041682  43.0749416  46.9614458   3.6302352  42.5110817  47.3410606
   4.6334428  43.5858250  47.7009153  74.3304761  25.0407049  12.0928163
  73.7566764  25.1588413  12.8498049  73.7864549  25.2752659  11.3409824
   1.3087465  57.1960783  42.3336458   0.4563945  56.7624044  42.2929621
   1.7331909  56.8182516  43.1039238  28.2595022  13.1457206  35.3342600
  29.1947134  13.2406398  35.1537008  28.0445130  12.2648927  35.0274057
   3.0703692  41.1993584  60.0302281   3.4348349  41.7642066  59.3488025
   3.0148797  41.7615125  60.8029734  59.5649163   5.6855805  42.3618889
  59.4775406   6.5895922  42.6641512  60.4759923   5.6153376  42.0768690
  24.1482234  63.5067272  17.4106061  25.0683236  63.7357616  17.2794867
  23.7365437  64.3226099  17.6953721  15.6758618  64.0690279   8.5026622
  15.3070772  64.6277523   9.1868079  16.5991092  63.9789915   8.7387586
  21.6230440  65.1216936  25.6041861  20.9179997  65.4333019  26.1716771
  22.4026513  65.5808306  25.9166622  15.0189340  65.5964851  33.3728480
  14.6284807  64.8944902  32.8522873  15.5187035  66.1135578  32.7411079
  21.0495634   5.2750131   6.6105671  20.9626837   5.5612442   5.7013054
  20.2589770   4.7615596   6.7766161   0.7447628  48.6984380  47.5849104
   0.2691225  47.9587777  47.2068930   1.2148480  48.3250745  48.3304596
  38.7514547  29.1602166  59.4260788  39.2613677  29.9519666  59.2547750
  38.8629810  29.0016396  60.3634405  19.4653511  57.4424314  47.8378963
  19.7456276  57.5203371  46.9259691  20.2152205  57.0515442  48.2863760
  69.4236580   1.7385085  31.0195065  69.5027224   1.9990762  30.1018548
  68.6342398   2.1835549  31.3276982  51.4491168  15.2743943  35.0452209
  52.2485796  15.2631314  35.5714965  51.6833988  14.8065312  34.2436886
   2.1136197  44.7701465  57.3581212   2.9072841  44.5621930  57.8511574
   1.7628678  43.9182340  57.0984178  39.6249298  14.6169312  19.4786239
  39.5173696  13.8765176  20.0756574  38.9175955  15.2179272  19.7125256
  63.2370865  62.0951557  11.3103843  64.1482985  61.9050312  11.5334976
  62.7252900  61.5778542  11.9322336  20.9245610  56.3157415  26.1483693
  21.2664795  55.7954168  25.4213333  20.4035473  55.6976938  26.6610026
  24.4645882  60.4486942  46.9385242  25.0608587  61.1536121  47.1910715
  24.3493795  60.5590487  45.9947109  33.3465457  65.2820110  35.5665040
  32.6675940  65.9408569  35.4209709  33.0781817  64.5383024  35.0269628
  73.6897309  28.9887067   7.3068781  74.0118535  28.1673118   7.6780577
  73.3447964  29.4718620   8.0577535  60.1643268   7.9030593  27.0307326
  60.9742609   7.3985179  27.1060538  59.7748462   7.8626139  27.9041743
  10.6802952  65.9711504  26.8293047  10.5561972  65.4145861  27.5981140
  11.6176748  66.1648178  26.8226123  19.6594099   4.8953660  34.2089939
  20.5256701   5.1953728  33.9336419  19.0673570   5.6004937  33.9472747
  31.5630267  22.5238641  40.1807165  31.1870149  23.3400281  39.8509812
  31.2388430  22.4564488  41.0788202  60.3582187  19.1188213   4.6079225
  59.9326368  19.9653169   4.7441501  60.3425212  18.7014839   5.4692097
  22.1197100  21.7318317   4.4203348  22.4934502  22.4895593   4.8702259
  21.4361306  21.4156791   5.0110931  74.5841709  11.7702802  36.5683818
  74.3740002  11.3951428  37.4235606  73.9100949  11.4248784  35.9831119
  60.5414148  53.7755595  58.5389220  61.1740681  53.9692985  57.8472229
  59.9644466  53.1139480  58.1573396  17.7227938  44.7667408  51.7158079
  18.2937753  44.1105604  52.1153593  16.9591844  44.8024368  52.2918797
  31.6297412  58.3876562   3.8278246  32.4210596  58.8000536   4.1742015
  31.4622426  57.6551247   4.4207597  43.5390711  56.5716553  34.7290754
  43.3556747  55.9259224  35.4114461  42.6754570  56.8640184  34.4376564
   2.6019344  68.8296509  50.3104448   2.5585127  69.6786451  49.8705006
   1.7121148  68.4822607  50.2490044  20.4438324  19.9960395   2.6140184
  20.7416649  20.2329418   3.4923191  19.6894236  20.5635282   2.4557466
  40.1820660  55.2511263  28.0972528  39.6530390  55.9606409  28.4618831
  39.6321559  54.8696804  27.4129081  27.2510930  35.3921291   0.6634111
  27.7929898  34.8940727   1.2753887  26.7123146  35.9524986   1.2219210
  55.2970552  49.4063997   8.2103050  54.3475819  49.2854500   8.2002014
  55.4194498  50.3193045   8.4707963  66.9246737  24.0491517  19.0387928
  67.8412072  24.0337785  19.3144035  66.4784066  24.5533593  19.7191298
  18.8573134  58.7505054  28.7074423  19.1067374  57.9214764  29.1157675
  18.5205257  59.2812634  29.4293165  22.0881748  69.1291904  28.9753771
  22.8649974  68.7860775  28.5337281  21.8267012  69.8840714  28.4481049
  14.6943426  65.3541088  53.6612558  13.8172793  65.3130722  54.0424442
  14.8311627  64.4863129  53.2812023  56.5514135  46.8786573   8.3645284
  55.8577251  47.5360250   8.3106881  57.0689154  47.1384239   9.1267246
  19.5373356  53.3514166  27.6560283  18.7649024  53.6300945  28.1478786
  19.9617255  52.7064466  28.2218337  19.4648478   1.5636618  26.2363410
  18.7120262   1.9715483  26.6642642  19.0816388   0.9241612  25.6359911
  70.5174263  10.3298732  22.0041628  70.9218772  10.8629438  22.6886244
  69.7023292  10.0157234  22.3955221  26.3108492  42.6908541  25.6938052
  26.4909220  41.8493938  26.1130309  27.1207500  43.1897688  25.8004642
  42.9145161  13.8362630  26.4033008  42.7015559  14.7104390  26.0766721
  42.1958462  13.2839425  26.0955763  42.3731760  10.4679425  41.0386467
  42.5687460  10.1876862  40.1445293  43.0416111  10.0415166  41.5749216
   8.0298603  68.1127405  32.0004749   8.3268154  67.6737213  32.7975416
   7.1897114  67.7007198  31.7989111  34.8197774  13.4280045  11.5608847
  35.7153360  13.1170972  11.4284503  34.4360713  12.7996190  12.1725464
  12.8639507  37.2259974  51.0535765  13.1014228  36.6855955  50.3000450
  12.4584568  38.0044675  50.6717443  33.4128881  60.1092434  60.9299517
  32.8559899  59.5945501  61.5140676  32.8035593  60.5114985  60.3109694
  67.6225944  29.7673008  36.4199419  67.4784846  28.9103862  36.8213911
  67.2574945  29.6835729  35.5390711  57.1412174  18.1225045  56.8349457
  57.4433509  18.5705312  56.0448742  56.5500394  17.4419339  56.5131140
   6.6047994  33.9419396  31.4187717   5.7064811  34.0178426  31.0970664
   7.1472637  34.0123685  30.6332779  55.3515521  30.4628022  36.8019557
  56.2366310  30.5646451  37.1519423  55.2510873  31.1911137  36.1890173
  71.6989358  44.2763445   7.6000328  72.3748024  44.9125501   7.8338642
  71.0070236  44.7996923   7.1955604   3.7902494  45.0701830   1.4161177
   3.3604141  45.9252378   1.4350147   4.1265936  44.9515077   2.3043842
  38.1680290  12.3069604   8.0032086  38.0562011  12.4887021   7.0700967
  38.8319746  11.6182072   8.0351883  28.6978030  54.6783972  28.8648462
  28.5453749  54.1198111  29.6270633  29.6500826  54.7619724  28.8157511
  50.7597176  39.3995507  45.4530287  50.5696408  40.3249295  45.6072187
  50.2687780  39.1830380  44.6603537  47.5071303  13.1406434  15.5802321
  47.1192495  13.1349404  14.7051620  48.3810130  12.7699120  15.4572868
  32.2084832  65.6568289  54.2702913  32.0602894  66.5884399  54.1079187
  32.8786969  65.6364059  54.9533939  10.2907789  54.6057320  22.4447203
  10.4502118  53.6900473  22.2159600  10.8549535  54.7653103  23.2013392
  39.3222046  68.3969736  58.2287264  39.7176743  68.8693333  58.9613342
  40.0434685  67.8937101  57.8509283  40.5033195  62.8953457  15.1985538
  40.8267891  62.0459461  15.4987562  41.1979806  63.2291698  14.6308923
  48.3410159   1.5555795  26.5374374  48.9630429   1.8266805  25.8622980
  48.7104026   1.8937953  27.3531532  28.9950252  64.5916986  23.6226368
  28.7449598  65.4093552  24.0529084  28.2213783  64.3401337  23.1182408
  13.4686112  55.4909277  22.3605156  12.8317654  55.7217073  23.0368304
  13.6327815  56.3116455  21.8960714  12.2667992  49.0241337   7.2993779
  11.8001521  48.3597326   7.8063756  11.6077054  49.6943951   7.1188962
   1.2955371   5.6167682  43.8064623   1.2947456   6.0847075  44.6414852
   0.3865925   5.3424628  43.6847639  58.9137546   3.6091168  36.3507652
  58.7574998   2.7116092  36.6445279  58.1242696   4.0858729  36.6069913
  34.2571688  59.0812445  26.7194438  33.9142632  58.8450098  25.8575630
  34.4174194  60.0232744  26.6634798  41.1372860  27.3305675   1.0451431
  40.5492480  27.5750324   1.7597647  41.1522312  28.0984995   0.4739256
  71.6455872  57.1948549   3.3589430  71.5938170  56.4451238   2.7661009
  72.2952278  57.7725431   2.9583568  56.8575755  16.7031987  22.8843260
  56.8569843  16.7640336  23.8395905  57.4305621  17.4150403  22.5993538
  47.2637502  15.0411160  44.2021656  47.9379336  15.6128915  44.5692825
  47.7529136  14.3523057  43.7521791  63.1764642  12.8078015  38.6920929
  62.9683796  12.2496827  37.9428029  62.3743216  12.8165276  39.2143226
  13.7206531  64.4599962  41.3492203  13.3991003  63.8394499  42.0032501
  12.9289460  64.8568058  40.9859371  57.4534369  63.5766935  28.9097714
  56.7560434  63.3526230  29.5259404  57.1328974  63.2675409  28.0624771
  55.7393709  24.2700608  12.9236269  54.7822825  24.2636140  12.9104197
  55.9904138  23.4560712  12.4870157  59.1420237  30.4598840  27.1386003
  59.1581074  31.1839612  27.7644515  58.6385361  30.7955106  26.3969207
  27.9898457  19.8587926  32.9696059  28.6371283  20.5269177  32.7440596
  28.1528381  19.6696980  33.8936758  38.0955306   1.4856608  43.6386633
  39.0201846   1.6822751  43.7889671  37.9626266   1.6573174  42.7064085
  57.5855724   6.8741305  49.9915218  58.3874623   6.5851386  49.5559931
  57.7669040   6.7639334  50.9249067  13.2829785  59.2494488  29.1346025
  12.4280632  59.5070696  29.4795394  13.1503594  59.1858435  28.1887698
  32.5038934  50.0376606  59.0684605  32.6790833  49.1411495  58.7824392
  32.4079990  49.9715376  60.0185442   0.9127387  51.5139246  37.9537916
   1.0408311  50.9623671  37.1820354   1.6225886  52.1546221  37.9107809
  31.8021488  61.6148281  31.1158156  31.5905857  61.1828709  30.2882361
  31.5557289  60.9791040  31.7876530  20.2464581  53.7736130   8.5210413
  20.6063032  52.9518270   8.8548213  20.5805659  53.8354301   7.6261771
   2.3840527  15.5554707  29.3169761   2.0591930  15.7350190  28.4346747
   3.2362036  15.9900792  29.3515038  39.2458034  69.2584419  40.3920841
  38.8666248  69.6085691  39.5859408  40.1916170  69.3178558  40.2574062
  51.1057917  17.6182969  33.8274050  51.1226407  16.9160493  34.4776392
  51.1618677  17.1664746  32.9854131  16.1618832  12.9001458  38.9888382
  17.0056734  13.2160600  38.6656570  16.3715849  12.4533398  39.8089743
  20.6927037  57.5762939  31.9915009  20.9843040  56.7404842  32.3556733
  20.4188180  57.3660517  31.0987425  64.2861569  66.7294312  46.8734217
  64.8227501  66.6701031  47.6638508  64.1329527  65.8194447  46.6190767
   8.8412666  62.2719669  23.2070756   8.2645428  63.0355406  23.2310724
   9.5912784  62.5212288  23.7470579  53.9360094  65.7921791  20.4445601
  54.3839121  66.1383820  19.6727073  53.4315205  65.0483704  20.1152086
  25.4036212  53.5746622  28.1488800  25.6115675  54.4599295  27.8500581
  24.4724321  53.4687138  27.9542208  50.7386827  59.3483686  22.7051306
  50.0703335  60.0319242  22.7529526  50.8089972  59.0190315  23.6011362
  20.9798146  13.3057816  10.8056772  21.7253587  13.1975873  11.3961780
  20.2947269  13.6899216  11.3527751  44.9707977   3.1513150  18.8419092
  45.7780925   3.2349761  18.3344543  45.0546018   2.3086198  19.2880857
  47.2024576  15.8772500  50.2089262  47.9274622  16.3764222  50.5849838
  46.9576017  15.2565606  50.8952379  29.9675516  31.6330369   9.2365336
  29.5256046  30.8307107   9.5143747  30.4334549  31.9325002  10.0172317
  32.2969675  62.8515005  54.1204500  31.4596486  62.4680042  53.8595676
  32.0696425  63.7203121  54.4516993  45.9711313  67.5837421  49.9603605
  45.6312370  66.7046738  50.1275349  46.5541267  67.7595758  50.6988907
  34.7930408  67.9787540  23.8081646  34.1816068  68.5392284  23.3304095
  34.5626116  68.1031322  24.7288513  37.8545046  60.3844786  27.9804897
  36.9962025  59.9607468  27.9791927  37.8718567  60.8878851  28.7944388
  20.7236695  63.2100391  32.3795319  19.9017310  62.9360342  32.7864313
  21.3773417  63.1145811  33.0722308  61.4897823  68.7638760  60.4489803
  61.1014700  68.3028650  61.1925602  62.3767996  68.9790726  60.7372904
  55.7955570  33.8332435   6.5173549  56.4356263  33.4891292   7.1403522
  55.5836971  33.0879280   5.9553499   0.5110693  35.4171491  45.8614302
  -0.0797055  36.1657381  45.7787800   0.2499556  34.9952030  46.6799736
   1.0908715  64.8002815  35.2366161   1.2503289  65.7291555  35.0693107
   0.5047946  64.7903728  35.9933519  22.9156303  37.4914742  55.5499601
  23.2440829  37.2872591  56.4255476  22.6134753  38.3975554  55.6127977
   3.8125757  17.3465760  23.2444167   3.5282234  18.1357510  23.7054825
   3.3520416  16.6325791  23.6852574  53.5224068  66.6581202  55.9690952
  52.6718676  66.2556028  56.1445713  53.4686696  66.9436455  55.0570536
  57.8133026   3.2914431  48.5053539  57.3221151   4.0165932  48.1191921
  57.2615377   2.5232251  48.3582830  26.8418344  45.3604804  56.8841778
  26.5654119  44.5156823  56.5290152  27.4413999  45.7123099  56.2261756
   2.5266043  21.0662778  43.4105825   1.8481866  20.5150636  43.0205345
   2.9429618  21.4977391  42.6644468  28.5248256  64.2934799  41.0492182
  29.3770432  64.6754313  40.8392954  28.7281203  63.5555983  41.6240549
  36.4183021  61.4941549  31.6410518  37.0803165  61.3002157  32.3046470
  36.2793350  62.4386835  31.7102504   1.0167603   9.1422065  55.7028627
   1.4602045   9.6120961  56.4091206   1.1464933   9.6926434  54.9305773
  35.3004861  54.7031403  25.8727646  35.6406927  54.0952539  25.2162862
  36.0330653  55.2909184  26.0573626  66.8480746  13.4848054  41.5809822
  66.5865055  13.5052808  40.6604385  67.5587860  14.1230519  41.6422796
  72.8808677  66.4904022  10.9414113  72.5317543  65.9826612  10.2089179
  73.8229100  66.3218164  10.9222722  11.0731240  19.4405052  -0.0392227
  11.5837522  20.0410434   0.5037708  10.1638742  19.7043153   0.1018448
  64.9285713   7.2598393  29.7622561  64.3183700   7.1952803  29.0276027
  64.4795386   6.8225701  30.4857159  38.5110545  53.6143398  26.3652134
  37.9125953  54.3173647  26.1125636  38.1361508  53.2586384  27.1709156
  23.4728081   0.6565554  33.5310817  22.6014509   0.6537850  33.1348991
  23.6500323  -0.2635877  33.7264132  12.8507483  61.3106203  40.7028580
  13.0352819  60.3796482  40.5784845  13.7137794  61.7229366  40.7403517
  69.3451142  70.2534723   8.9018393  69.8777616  70.8573818   8.3843350
  69.9793449  69.7605944   9.4224703  18.0597827   6.4022668  30.1337218
  18.6923448   5.7389195  30.4095197  17.3066971   6.2690718  30.7093549
  21.2733388  47.4618816  10.1340508  20.4499912  47.2946644  10.5927122
  21.8379140  46.7292786  10.3805864  35.7690207  11.7123540  17.6657283
  35.9572605  12.0110257  16.7760134  35.9997312  10.7833894  17.6603711
  60.9650389   3.1837304  30.3908920  60.0660864   3.4106715  30.1529503
  61.4823405   3.4132273  29.6189070  37.3605776  64.0760183  49.7900534
  37.6772523  64.8832417  50.1954508  37.4770689  63.4073448  50.4649878
   1.3815399  43.0304548  15.9769506   2.2108932  42.9890796  15.5008287
   0.7929941  43.5074112  15.3918381  19.3553448  67.6860809  30.0692773
  19.2686594  67.9585791  30.9827662  19.0314412  68.4323835  29.5649433
  56.7499296  22.5525983  45.8883047  55.9839479  22.8577836  46.3744831
  56.7122856  21.5985616  45.9563017  42.5806192  19.2528088  52.5456333
  43.5293261  19.2530759  52.6728630  42.3102287  18.3603986  52.7618027
  45.4555885  15.0328667  58.8481522  45.5370203  14.2586072  59.4050407
  46.2292496  15.5578549  59.0532494  54.8735634  19.2725785  47.7778101
  55.5360357  19.2650826  47.0869350  54.1588584  19.7983296  47.4186182
   3.4836277  38.5077429   2.8024015   4.0895826  38.4114242   3.5370943
   3.0232662  39.3284678   2.9776436  35.9468627  64.2676115  31.8039346
  36.2809086  64.9799156  31.2587070  35.5754638  64.7059536  32.5695372
   6.6281637  40.8167659  48.7210541   6.8779739  41.3493405  49.4761639
   5.6959876  40.6413566  48.8495438  72.0028654   3.3849652  55.9446144
  71.3226668   3.7273963  56.5245295  72.8191773   3.7385018  56.2980032
  18.6574320  14.3190320  22.5484300  19.5701126  14.5673402  22.4014807
  18.3112339  15.0056203  23.1185007  74.7671292  51.3988829  32.4151111
  74.0482587  51.9085169  32.7889204  74.5014773  51.2384796  31.5096116
  39.0669918  66.4110994  18.6776495  39.6763325  65.9219599  18.1247687
  39.5919180  67.1253490  19.0389395  30.7152685  45.5207740  59.4508969
  30.3799280  46.3948642  59.6502515  29.9321111  44.9954997  59.2866321
   8.1220742  25.6533882  11.6292639   8.1120701  24.8088142  12.0796318
   8.8488574  25.5860159  11.0100097  37.5382113  56.5268040   6.5156299
  37.4621940  55.6585789   6.1198592  36.6349530  56.8331242   6.5964061
  16.8324292  54.1154957  47.9635954  16.7072380  53.8827753  47.0435953
  16.9569707  53.2769012  48.4079790  11.4194238  58.0773401  35.7237530
  11.7204821  58.7912750  35.1617098  12.2223186  57.7034569  36.0868025
  69.3275706   3.2056506  42.3613691  68.8091055   3.2897218  41.5611458
  70.2187887   3.0413754  42.0531845  15.9848535  50.0775671  13.7695026
  15.9452653  49.3423033  13.1579041  15.6249750  49.7299767  14.5855284
  40.4647446  62.7961731  46.3238287  39.6640158  62.7908897  45.7993889
  41.0718584  62.2364998  45.8396673  17.9864955  33.9310551  31.7769718
  18.3140576  33.3886147  31.0595512  18.7459123  34.0610743  32.3449636
  59.6311380  66.2268469  11.5452404  59.6774305  67.1782705  11.6395063
  60.5405672  65.9535524  11.4249058  32.0668253  10.4161369  35.1319604
  32.1115097  11.2566005  34.6760516  32.7915891  10.4436694  35.7566147
  22.6507425  59.7857952  32.5458789  22.5390387  60.1049757  33.4413552
  22.0277643  59.0630674  32.4697518  13.3492482  59.9500275  43.4044981
  13.9994657  59.4095945  42.9557419  13.5190928  59.8056269  44.3353748
   2.0480318  40.7717487   6.5149135   1.7446323  41.6043064   6.1529417
   2.5628276  40.3777811   5.8106346   2.6676616  47.3073387  15.9986019
   2.4312060  47.4014473  16.9213498   2.3375008  48.1045389  15.5842376
  56.7005864  34.6103795  22.3869395  56.9766942  35.2541764  23.0392623
  56.4901296  33.8280232  22.8966975  57.5219194  15.0401528  38.7009048
  57.8159038  15.6389745  39.3873572  58.3300487  14.6860154  38.3297658
  10.9157089   9.1625245  23.8472104  11.7581038   9.4169076  24.2238951
  11.0522513   9.2102368  22.9010034  43.1110907  59.1731119  21.0097694
  43.0387402  58.5890150  20.2548981  43.8544703  58.8314152  21.5066218
  73.0539183  66.7436647   5.6213492  73.1054859  65.9404993   5.1031828
  73.7005453  66.6221046   6.3165677  23.4608937   5.8826382  20.8160448
  23.8898567   5.2371772  21.3778329  23.8662929   5.7601149  19.9576330
  23.4589374  36.8370366  18.4227479  22.5242126  37.0227075  18.5124016
  23.8673866  37.3077393  19.1492724  54.8385096  70.1836109  41.3885832
  54.7979975  71.0161543  41.8591785  55.7378674  70.1351976  41.0644817
   7.5163635  41.4060699  52.1766197   6.6317114  41.6916715  52.4047755
   8.0907520  42.0430671  52.6015245   3.8314670  64.1287470  40.3226948
   3.9152253  64.8857355  39.7428846   3.6817810  63.3902836  39.7323537
   7.3908836  39.7530031  39.7705078   7.7351469  40.0180054  40.6234360
   6.6482425  40.3378057  39.6197677   7.7951616  63.7316322  44.0333271
   7.5179726  64.0467930  44.8936033   8.6113095  64.2000961  43.8581800
  16.8529069  32.8455448   3.6533248  16.5368950  33.5518408   4.2168072
  16.1499429  32.1960044   3.6663914  55.8707692   7.2918293  -0.1429491
  56.4950795   7.7397081   0.4279060  55.0207753   7.4336979   0.2737207
  56.4016715  35.7848389  54.0033817  55.6812159  36.4006646  54.1373348
  56.9667713  36.2134869  53.3606100   1.8859215  50.4348299   5.4355163
   1.4460321  51.1465475   5.9004803   2.5949045  50.1684972   6.0208673
   7.5628960  37.9811382  56.4338398   8.2677901  37.7773499  57.0485163
   7.3935425  38.9141464  56.5643978  34.0178112  11.5187199  29.6496224
  34.0541557  10.6316788  29.2917681  34.6151451  11.5000089  30.3973341
  18.5878396  56.1180353  57.9422903  18.7306440  57.0640421  57.9121161
  18.9262211  55.8518839  58.7972116  38.9950684  12.2810490  21.0867310
  38.4837560  12.0434125  21.8602443  38.3397178  12.5036271  20.4255176
  58.1284857  51.5281343  22.8598928  58.7542582  52.2037458  22.5987530
  58.4249210  51.2490797  23.7261987  25.5941741  18.9419873  47.8632927
  25.9330866  19.1954453  48.7218571  25.1739379  19.7340901  47.5283146
  33.7501264  59.6120787  35.1421857  33.5638809  59.4576740  36.0683084
  33.9481926  60.5471277  35.0903583  10.4539875  23.0293591  57.5870228
   9.6538071  22.5320847  57.4177361  10.7097296  23.3706124  56.7300653
  54.2856598  62.8365612  34.1359210  54.1678190  63.1725121  35.0244498
  55.0379038  62.2481394  34.2001462  21.1658907  59.8067808  44.9410820
  20.8351326  58.9815092  45.2957010  20.7350206  59.8918056  44.0905809
  30.3510594  63.6648798  29.7833061  30.4589462  63.1905317  28.9589357
  30.4180145  62.9898167  30.4586101  31.6996336  66.7954922  31.8407726
  31.9353580  66.6181564  30.9301591  32.1144485  67.6356888  32.0362973
  21.2759070  35.7039101  29.0852165  21.2988190  35.0671799  29.7995567
  21.7573885  36.4594205  29.4222641  64.0584461   3.2304032  53.5887241
  63.2331506   3.6297686  53.8637209  64.4051949   3.8286622  52.9268456
  15.9011002  54.2304823   5.7010622  16.1746712  55.0456735   6.1216135
  15.4207869  53.7592241   6.3818283   9.8984293   4.3621476  24.8256207
  10.7575993   4.0516885  24.5398235   9.4304756   3.5680135  25.0836897
  67.9141886  46.5051386  33.6630602  67.1473189  46.9981977  33.9546652
  67.6770587  46.1864015  32.7921934  21.4719296  70.3345299  31.2209630
  20.6861472  69.9598742  31.6189742  21.6612077  69.7607565  30.4785371
  37.3272634  63.8909388  35.5760050  38.0340004  63.7520599  34.9455547
  37.2858667  64.8411322  35.6839323  21.0887098  59.8297882  50.7418203
  21.5180397  60.2812099  50.0150967  21.6313148  60.0326157  51.5038395
  44.6577684   5.5443557  49.0818644  43.9114384   5.6246836  48.4879160
  44.4785897   6.1759599  49.7784281  61.8532625   0.5068715  18.0418754
  61.2666503  -0.1768892  18.3652878  62.6580588   0.3905661  18.5468578
  42.5356952  24.8076852  53.0310059  43.2586018  24.3970235  52.5566626
  42.1079842  24.0840848  53.4889364   0.3803972  26.7726929  14.3989551
   0.2295069  25.8636601  14.1398728  -0.4554792  27.2099240  14.2365730
  64.8351303  34.5865090  37.3567581  65.6957451  34.3882020  37.7258754
  64.6609441  33.8639577  36.7535925  15.8976221  66.9543362  37.1325064
  16.8244696  66.9410563  37.3712730  15.8674514  67.4550629  36.3172793
  11.2278072  23.1500085  44.4862652  10.8580128  23.4046109  45.3316402
  11.9844691  22.6078542  44.7093344  37.1101213  66.6671562  30.7553339
  37.3957634  67.1082067  31.5554047  37.9231358  66.4307261  30.3088570
  72.4651066  11.3287766  60.4846334  71.8189780  11.9191582  60.8721924
  73.3095948  11.6765912  60.7711458  31.3862534  44.4023439  11.9317121
  31.1581297  43.4840223  11.7872257  31.3028689  44.5238992  12.8774900
  39.3335295  65.1161528  43.9122915  40.2089739  65.1475334  43.5264874
  38.9364457  65.9537649  43.6736250   8.6330362  27.5752756  25.6572122
   8.4297939  26.9628879  24.9501772   8.2399149  28.4022304  25.3782244
  57.3823500  53.1537533  28.8834238  57.6091290  52.2660923  28.6061907
  56.5251875  53.3160639  28.4895253  37.7769712  25.9521992  18.1218147
  37.8452889  26.4876492  18.9122939  37.5158337  25.0879414  18.4397817
  18.6853850  68.8744164  10.4463148  18.4103763  69.6642113   9.9806726
  18.4152508  69.0242195  11.3523042   4.1246265  62.8413391  43.4090424
   4.1765535  62.5953770  44.3326426   4.6540773  63.6360168  43.3426809
  64.4873062  39.5207532  47.2120047  65.2067105  39.0006860  46.8539286
  63.7241522  38.9458974  47.1539259  11.3175873  25.3056176  42.9983664
  11.8092684  24.7345097  42.4081850  10.9397701  24.7115834  43.6469078
  12.6916460   1.8831237  17.5758588  11.8949751   1.3681300  17.4480653
  12.4170832   2.6164086  18.1264412  53.9105264  20.8918889  58.9254427
  53.4454266  21.4171536  58.2742786  54.6967546  21.3998158  59.1256714
  55.6553356   5.5801995  54.5191574  56.2291614   4.8682530  54.8021460
  54.7726957   5.2731402  54.7262621  55.7219545   9.2732222  30.6777549
  55.4609481   9.9410279  31.3119030  56.6537396   9.4347127  30.5296779
   2.7000670  18.7044461  30.0554466   3.0677704  19.2734654  29.3792558
   2.1420769  19.2816098  30.5767584  14.7023857   5.0820231  18.8445461
  14.7673059   5.9410059  19.2618775  14.9866903   4.4657147  19.5195031
  67.6439601  28.3188033  38.9066148  67.9711157  27.4545765  39.1562343
  67.1614819  28.6234212  39.6751547  14.5339513  35.0612140  22.9159689
  14.0353882  35.5346298  23.5819602  13.8703513  34.7271347  22.3124337
  26.4174815  57.9841988  54.8805332  26.2951394  57.1188883  55.2710438
  27.2725149  58.2724385  55.2000141  15.9702639  47.8111842  55.5014758
  15.4401027  48.6058238  55.4405843  15.3368740  47.0957545  55.4448192
  52.5342762  24.4725847   5.2444977  52.0590508  25.0034595   5.8836883
  52.2540009  23.5749125   5.4229987   1.3697927  14.3912458  50.2789831
   0.7234673  13.9216602  49.7517395   2.2150862  14.0967929  49.9398518
  29.2884111  25.6196547  18.1259131  28.7851405  24.8677063  18.4382033
  28.9825368  26.3516808  18.6614621  12.9008329  23.8366461  52.8623056
  13.7938416  23.5210204  52.7239275  12.4557364  23.6677694  52.0318842
  15.8016944  16.4286888  11.1280107  16.4537215  15.9000337  10.6679916
  15.5610955  15.9022319  11.8903673  57.3003413  61.5345798  11.6099167
  58.0847349  62.0627783  11.4617109  57.6221987  60.6340437  11.6508222
   2.1536890   8.1203145  10.6558514   1.5432841   8.6432129  10.1360297
   3.0118364   8.5038781  10.4750371   4.7129384  13.9949048   1.2445609
   3.7708563  14.0446568   1.0825817   4.7883430  13.5328293   2.0794457
  30.7519869  26.1935041  52.4489247  30.7150720  25.2775458  52.1734439
  30.4263382  26.6839257  51.6941594  23.9765751  18.9353418   7.5928372
  24.7404444  19.2776167   8.0571479  23.9361918  19.4495177   6.7864728
   0.1603343  36.5403557  28.9464641  -0.3678634  35.7995391  29.2438316
   1.0480857  36.1891365  28.8773775  19.2445062  51.4607039  56.3042804
  20.0108375  52.0220259  56.4221190  18.7297569  51.5877179  57.1012320
   8.8769853  28.5252643   7.6376688   8.5481977  28.9012790   6.8211257
   8.5285157  29.0967512   8.3219212  72.4190491  10.5934143   7.7648908
  71.8781948  10.6328452   8.5536575  71.8467718  10.9100771   7.0659953
   9.4291055  29.2580414  54.0537167   9.5301795  29.6998644  53.2106256
   8.6390722  28.7271214  53.9527035  48.9393055   5.5824000  29.7770572
  48.7600767   6.4111531  29.3328977  49.2245638   5.8376503  30.6543875
  61.6593611  34.2861485  36.6181588  62.1333134  34.2252684  37.4475527
  62.3388612  34.4569564  35.9659815  33.4993529  17.0370162  41.7956352
  34.4394803  17.2012651  41.7220545  33.0935311  17.8864551  41.6224480
  71.8772375  64.7436810   9.2246008  72.2329747  63.9656925   8.7951577
  70.9297129  64.6669054   9.1126424  33.5069609  25.3409338  19.6496415
  34.1197133  26.0274935  19.9130893  33.1318116  25.6571960  18.8277709
  64.6950996   8.4947962  25.3232026  64.1717028   8.8367766  24.5984006
  64.8718261   7.5852966  25.0827670  55.7427108   2.8666249  31.1459804
  55.7677960   2.0128933  30.7138395  55.0783872   3.3594614  30.6642985
  62.0244455  34.9679947  10.3358400  62.4876284  35.7804012  10.1316607
  62.1105516  34.4376135   9.5436817  45.1004867  70.5613402  51.9215940
  45.3909592  70.3315667  52.8042381  44.5301060  69.8380593  51.6612731
  18.5590458  15.4877067  41.0419941  18.7166023  14.6449399  41.4676189
  19.1196752  15.4728019  40.2662992  16.1588093  48.0016939  11.8883967
  15.5686494  47.7623551  11.1737907  16.5033623  47.1664421  12.2044146
  43.8264771  63.8401942  38.2305503  43.1132551  63.2038455  38.1794977
  43.9015915  64.1875844  37.3417830  56.3034749  27.5551271  53.9410353
  55.4820955  27.7199841  53.4780121  56.1372542  26.7604709  54.4481087
  34.2048808  56.4113669  22.3140526  34.9554630  56.9109337  21.9926620
  34.3016883  55.5482070  21.9117904  74.1938952  30.9549046   1.9436613
  73.3406844  30.7276106   2.3132570  74.7868893  30.2823257   2.2786638
  59.8240363  41.1618519  13.7516975  60.5457031  40.5429602  13.8630617
  60.1828146  41.8497705  13.1910944   6.0770881  38.2956171  35.6718373
   6.3529122  38.7005401  34.8495293   6.3882160  37.3924875  35.6102777
   5.3555316   0.3154428  35.7402372   4.6132484  -0.2590904  35.5527306
   5.2925974   0.4892784  36.6794133  20.3879738  51.3063860  60.9218407
  19.7872162  51.1826229  60.1869917  19.9266028  50.9346247  61.6736126
  32.8575182  42.5849915  29.4094992  33.5156703  41.9402027  29.6689415
  32.0511484  42.2867918  29.8303032  13.9430416  26.7404318  14.4203663
  14.4256353  26.8359637  15.2414680  13.0494595  27.0079780  14.6352208
  60.2379496   0.1173684   9.3730755  60.2264423   1.0628292   9.5220823
  61.1661513  -0.1160339   9.3871231   0.7070005  13.3903623   2.3751803
   1.1399367  13.5731387   1.5412793   0.0658144  14.0945101   2.4715580
   9.9247599  47.0642281   3.1215480   9.0258324  46.8900204   2.8425983
   9.8914874  47.9416466   3.5026813  58.7924786  14.0983926  59.9226169
  58.1927087  14.6442710  59.4141683  58.3251180  13.2708179  60.0363179
  68.5877591   5.1444346  19.6435273  69.1862648   5.1174873  20.3900504
  68.8825142   4.4334516  19.0744448  58.1290092  68.1992792  55.0942850
  57.3264511  68.5283405  54.6894979  58.0666854  68.4753793  56.0086775
  54.0877282  15.8949423  15.3219843  53.9950263  16.8227077  15.5385208
  53.6049187  15.7909608  14.5020366  24.8772593  63.0632590  28.9008427
  25.7333132  62.7688305  28.5898542  24.8076340  62.7048735  29.7856855
  23.8553476  19.7783697   4.9223053  23.8689852  19.2318845   4.1365573
  23.0944109  20.3471518   4.8052847   6.6119790  21.0252094   5.8121091
   7.3019671  21.2414813   6.4393044   6.6184300  20.0689912   5.7692063
  61.7498946  19.5144093  50.9679365  62.5431883  19.9455273  50.6500435
  61.7469883  18.6640072  50.5285740   5.8533823  19.1335142  20.5723429
   5.0813210  18.5681510  20.5495811   6.2361765  18.9814937  21.4363956
  25.2432799  17.7005768  25.7857704  24.8561597  18.2498753  26.4674163
  25.3802347  16.8534517  26.2098622  67.2069341  45.8372402  29.4139028
  66.8145883  45.0107479  29.1324663  66.7786169  46.5017223  28.8742375
   1.9253071  45.5471420  40.6935883   1.1222129  45.7607889  40.2185869
   2.6085031  46.0457611  40.2454185  71.4811602  24.5832849   3.3158347
  72.1713161  24.0047264   2.9915076  71.4776224  25.3187513   2.7032107
  72.8034063  65.8008043  37.2733331  73.3038445  66.0695909  38.0437541
  72.4158188  64.9611948  37.5204444  26.6333508  33.8367963  20.3869462
  27.1166635  34.2595911  21.0967946  26.0931492  34.5345998  20.0161600
   7.5016356  11.4856780   4.8295438   7.4100846  10.8127189   4.1550246
   7.1136463  11.0945570   5.6123090  57.8798592  20.8105636   7.1355748
  58.5084140  21.0242844   6.4460289  58.3930325  20.3341079   7.7881646
   8.1333023   7.1168572  51.9503975   8.3725333   6.2180567  51.7242146
   8.8164413   7.6545554  51.5498543  20.5095506  33.9967704  32.6285625
  20.7371712  33.0893612  32.8311181  21.2543988  34.5071793  32.9462385
  24.5643950  30.2402496   4.6088827  24.1194153  29.8579621   3.8525215
  24.5993948  29.5304704   5.2501464  31.2207246  31.0093188   3.4256521
  30.7459927  30.1830339   3.3355859  30.7739687  31.6086292   2.8277645
  13.0262804  12.9122126  43.7968254  12.6041126  12.2197831  43.2883453
  12.3249257  13.2722867  44.3396664   5.8655008  64.5419811  21.5476942
   5.3180178  64.6874271  22.3192787   6.5720066  65.1823841  21.6311526
  50.3382909  38.5091758  42.8308725  51.1865675  38.3956933  42.4021721
  49.8716700  37.6913118  42.6588392  70.1802226  55.5281799  55.2230883
  69.8497160  54.7804706  55.7210112  71.0904618  55.3037696  55.0298595
  12.1991261  68.9248665  11.3206971  11.8988856  69.5358849  11.9935596
  12.3304900  68.0997856  11.7878342  42.8882456  20.9372854  12.0585978
  43.1284952  21.3574576  12.8844094  41.9664288  20.7037735  12.1679699
   6.5658253  12.1992338  27.0417953   7.0072305  13.0362928  27.1857572
   6.5798229  12.0813179  26.0919881   6.3040924  10.5493820  13.7650502
   6.3526565   9.7269028  13.2778120   6.6598314  11.2046933  13.1648421
  59.3856334  54.9032021  27.8096867  59.6256721  54.5724821  26.9441009
  58.7069452  54.3017817  28.1161284   0.7317662  32.5509977  14.2666733
   1.6529983  32.8055787  14.3191302   0.3887273  32.7106118  15.1459229
  32.7362279  21.3851823   9.2796774  32.3477594  21.4626027   8.4082813
  33.6251710  21.0689594   9.1183872  16.7897618   7.6133752  28.0826473
  17.2191107   7.1710491  28.8149309  17.3341298   8.3826727  27.9150844
  64.3162441  21.4056206  61.1259460  65.1039695  21.0027027  60.7607365
  63.8297581  21.7158055  60.3621769  70.6459328  14.8750794   4.1081673
  70.8964845  15.7564151   3.8312137  70.9642321  14.3046093   3.4085381
  25.3294778  51.3347149  24.8968673  26.0978270  51.0942459  25.4145980
  25.5467701  52.1914959  24.5295215  25.2759433  24.9505997  36.3969898
  24.3676448  24.6491170  36.4152694  25.4784012  25.1564240  37.3096108
  69.7757810  29.5557117  11.6990805  69.6601951  30.1626205  12.4301982
  69.1680413  28.8396454  11.8838382  60.3762805  17.9012036  18.7625003
  60.4408705  18.6972582  19.2900968  60.8727061  18.0992258  17.9684079
  60.8733344  18.1390691  31.6944623  61.5298414  18.6196709  31.1902308
  60.8107924  17.2894955  31.2579489  24.0035248   1.2159420  25.3901601
  23.8253021   0.8764550  24.5131087  24.0777659   2.1626656  25.2700162
  17.9027712  28.3243132  36.2528682  17.6539588  27.9235649  37.0857692
  17.7997160  29.2646241  36.3992548  32.8414965  23.4418368  16.0656869
  32.5471997  23.7281489  15.2010214  33.0047321  24.2545176  16.5443683
  10.6735170  25.1786089  16.8956029  10.6177580  25.0050807  15.9559166
  10.2086997  24.4472790  17.3022127  30.2120352  20.8074379  38.1325245
  29.3652272  21.2419438  38.0307651  30.7030010  21.3756514  38.7260866
   6.3061655  31.2503600  60.1298761   6.6667986  31.4191127  61.0003376
   7.0472151  30.9166908  59.6241665  63.3517103  46.6190210  49.0620713
  62.9125003  47.0079258  49.8184304  62.7127485  46.6875854  48.3526664
   0.8518427   9.9583536  49.0813828   0.3283869   9.3398041  48.5718489
   0.8700351   9.5870119  49.9634266   9.9364027   3.7788879  61.0953918
   9.9657830   4.7105991  61.3128337  10.7036861   3.6380826  60.5406999
  24.2907092  51.5545477   0.0857944  23.7937880  50.9852172   0.6733007
  23.6957297  52.2797002  -0.1049595   9.6318860   4.3178031   2.0565767
  10.4022332   4.7914621   2.3703308   8.9754386   4.9987623   1.9096107
   0.4457997   8.4623784  22.7400064   1.0099542   8.7090617  23.4728837
  -0.3689886   8.1741208  23.1514192   3.7569204  12.9350626  49.7196770
   3.6261791  12.2883165  49.0262365   4.3781582  12.5213861  50.3189802
   7.7207375  39.8955703  24.6556926   7.0812702  39.1956878  24.7879052
   7.9406011  39.8465133  23.7253785  65.7572810  50.9863843   0.2261276
  65.0928322  50.3099550   0.3572244  66.5141074  50.6785406   0.7247991
  47.4052817  64.5946895  35.8375740  47.6725524  64.3692105  36.7286158
  46.9493749  63.8153259  35.5198097  46.6591215  16.3754225  10.9948397
  46.0395479  16.6467202  11.6721559  46.1961317  15.6956995  10.5050969
  14.6486938  41.0227346  15.3218865  14.4853985  41.0588646  16.2643623
  13.8026392  40.7873583  14.9410677   8.3528590  33.7733841  18.3721793
   8.4268808  32.9489589  17.8914762   7.5284100  34.1539788  18.0694187
   3.8663679   0.7868294  25.7944417   3.8906509   0.1903711  25.0461912
   3.4852827   1.5928030  25.4460001   0.2212741  27.3832083  42.7321911
   0.4588690  27.0734525  41.8582153   0.9946064  27.2057605  43.2676363
  63.5656833  27.6472378  25.7027149  63.7281775  27.0255971  26.4122152
  64.0615856  28.4277630  25.9498811  56.5815636  12.5044452  54.1028612
  56.4151218  12.0799361  54.9444812  56.2745740  11.8736945  53.4515994
  52.8289159  67.1184070  -0.0504121  53.7331300  67.3499589  -0.2625737
  52.9048689  66.3498797   0.5151218   5.8138260  46.1406748  12.7634156
   4.9077686  45.9620802  12.5116348   5.7422813  46.7400758  13.5062683
  51.4056377  63.4386423  55.0571143  50.6395773  63.7517837  54.5761537
  51.4928655  64.0470126  55.7909470  59.6175460  35.7823660  53.9399963
  60.0187521  36.6065058  54.2157822  59.2299394  35.9783188  53.0870037
  47.2422199  56.3500908  59.7528935  46.2904982  56.4453939  59.7899616
  47.4429087  56.3123563  58.8177294   0.7923807  31.9809890  11.2094140
   1.6970406  32.2504520  11.3681972   0.2719996  32.5336480  11.7925119
  70.8337339  11.4826715  24.5302057  71.5390360  11.8675280  25.0504613
  70.2883008  11.0233414  25.1687598   8.3091196  43.1094448   8.8472199
   8.1424912  44.0438740   8.7234855   8.8348635  42.8573267   8.0881017
  52.4347343  59.5140223  42.9130983  52.4285569  58.9521007  42.1382189
  53.3619507  59.6870010  43.0761337  31.0067463   3.6630636  26.7303157
  30.6517911   3.2095447  27.4948812  30.2350354   3.9370978  26.2347364
  68.1849026   7.8970289  20.3788471  67.4664229   8.2526124  19.8557997
  68.0054795   6.9579387  20.4252052  34.6279856  58.8453762  51.7619085
  34.3795546  59.1138928  50.8773661  34.7467001  57.8975837  51.7000341
  71.6998273  15.4389906   6.6053331  71.3935193  14.9559188   5.8378375
  72.4939096  15.8829308   6.3077050   9.7825891  34.5625043  24.9272132
   9.2647004  34.5880127  24.1226196   9.4748938  33.7804508  25.3854108
   2.1980694  14.1664839  43.6155128   2.2831260  13.2365596  43.4051847
   2.4090256  14.2215073  44.5475531   9.0182769  36.5245938  27.0185494
   9.3515587  37.4218154  27.0308185   9.3996245  36.1381960  26.2301970
  18.5958658   7.4189285  34.7856169  17.7896492   7.0505598  35.1469355
  18.3231650   8.2435897  34.3833714  25.0425049  57.9517369  11.7721272
  24.7680922  57.2314446  12.3396730  25.9966298  57.8818016  11.7407453
  64.4948419  64.9158429  15.5534923  64.4960292  65.7650350  15.9951961
  64.6016856  64.2784528  16.2595737  69.5407812  67.2167638  35.6975084
  69.0734569  66.4237860  35.9602385  69.8197953  67.6146725  36.5221625
   2.4952824  11.0069370  21.4359903   2.1369153  11.8350744  21.1166239
   1.7297353  10.4448938  21.5554738  18.7669182  15.8650208  30.1466703
  18.3108842  15.7599533  30.9816694  18.1182790  15.6194973  29.4869590
  39.0800699  18.1174861  47.3980253  39.4016095  17.7167569  46.5904002
  38.1453927  17.9115306  47.4119632   2.9082441  22.7085352  22.6406908
   2.9803288  22.4908590  23.5700202   3.7795529  22.5331235  22.2853255
  71.0194179  34.7286940  57.2016191  71.1171651  34.4806480  56.2822962
  70.0747081  34.7125769  57.3548985  13.7843406  30.9451342  19.7186410
  14.7165763  30.9750223  19.9337554  13.7346125  31.2771630  18.8222504
  21.9127488  24.4854975  32.0119214  21.6317868  24.3491364  31.1071014
  22.7250171  23.9849091  32.0885158  12.6931143  16.7281532  29.3705010
  12.3901129  16.3331914  28.5529280  12.0762491  17.4413514  29.5349956
   2.6488566  17.4627495  37.7311373   2.7667829  18.0944574  37.0217204
   3.0469272  17.8821564  38.4939408  24.9686809  67.0627780  21.1507440
  24.2317553  66.9946294  21.7578125  25.5096742  66.2970977  21.3438535
  29.1878200  23.5044885  16.0055137  29.6002650  24.2561674  16.4310718
  29.0184999  22.8887224  16.7185330  22.2069301  60.7158330  53.2868980
  22.9882668  60.6287483  53.8329392  22.0960371  61.6601375  53.1763201
  70.7038995  42.4802987  20.9058857  70.1031490  43.2251875  20.9276056
  70.2583142  41.8289487  20.3641963  73.2946607  33.8980627  40.9994745
  73.3631123  34.5007300  41.7399740  72.3710693  33.9291096  40.7499790
  36.5827000  22.4497366  52.2410488  36.3903916  22.1467566  53.1284332
  36.8354261  21.6575146  51.7669773  71.9254702  17.2788835  30.8727551
  71.6045913  16.8749082  30.0664854  72.3628835  18.0791330  30.5820632
  14.8453808   7.5545210   6.8380988  14.2389596   7.0571542   6.2893617
  14.9964774   6.9926625   7.5981754  50.9176496  48.4011953  10.0693357
  50.2977872  48.9756553   9.6198922  50.4618107  47.5621216  10.1356518
  33.1130672  27.3079991   7.8401172  33.8158250  27.1249700   8.4637058
  32.3080301  27.1706891   8.3394098  64.6790218  32.6125598  35.3403115
  65.6315458  32.6568007  35.4238105  64.4525444  33.3574939  34.7835207
  68.2096392   3.6278874  58.7731028  67.8678477   3.0891231  59.4866419
  69.0359592   3.2094097  58.5316420  25.9980869  21.2789392  12.2387707
  26.8207383  21.5194583  12.6649487  25.4256272  21.0104060  12.9573894
  24.8145709  58.6907104  59.2485768  24.3133908  59.3486217  59.7304510
  25.5046909  59.1887930  58.8105359  61.8136545  61.8230538  37.1045423
  61.6405197  61.3165121  37.8980613  62.3208316  62.5763373  37.4071431
   4.4943190  27.2198057  12.3447049   4.2603001  26.2918091  12.3277283
   3.7435234  27.6634073  11.9500446  74.6356059  19.4845426  47.1240377
  74.3095729  19.5364034  48.0225039  73.9895452  18.9474022  46.6654301
  58.2383561  24.1196156  30.6889677  57.6503515  23.5202312  31.1485553
  59.0690851  23.6469889  30.6365848  48.7333166   2.0657313  18.8447881
  49.5683086   1.8485184  18.4302533  48.1596243   2.3050207  18.1168795
  47.8114640  14.0904903  27.6959968  47.4204766  13.8944042  28.5474157
  47.0770013  14.0617597  27.0828319  73.7922001  53.6943483   1.3934556
  74.5854989  54.0725708   1.7727387  73.2663768  54.4510174   1.1342397
   0.9270994  38.8954592  21.0778451   1.7824543  38.8862085  20.6482935
   1.1209902  39.0968132  21.9933200  62.2620952  13.8297272  41.7447567
  62.4815428  14.1141570  42.6319838  61.5223098  14.3821585  41.4922333
   0.8248972  54.0990305  24.6483564   1.6948977  54.1103601  24.2493534
   0.9768815  54.3434048  25.5612707  13.5208607  18.8689518  24.3004537
  13.7784660  19.2068040  25.1581979  14.3130374  18.4545207  23.9584947
   3.7892339  17.1111262  20.5813146   3.8400710  17.0099568  21.5317965
   2.9391569  17.5241208  20.4295373  19.0919936  42.6554394  20.0033379
  18.8875973  41.7469597  19.7817099  19.9917400  42.7791166  19.7010255
  18.4836026   5.1973125  20.0047464  19.4044323   5.0344488  19.8003454
  18.4999533   5.9403011  20.6080122   7.1233755  23.3343863   3.9635879
   6.6733122  23.9208198   4.5716751   7.0306796  22.4659967   4.3554282
  17.6985228  29.6326351  10.5333102  17.9469883  28.7285280  10.7258904
  18.4266806  29.9760318  10.0155282  73.2438241   2.3828351  28.5634232
  74.0502258   1.9154438  28.7813544  72.9417520   2.7413023  29.3979812
  28.5374243  64.6689728  60.6525434  28.2540779  65.5695537  60.8103336
  27.7304278  64.1551188  60.6832594  27.7607734  70.2350763  58.3675518
  28.5020606  70.0335339  57.7964952  27.3440112  69.3882302  58.5268997
  44.4078445  12.0847142  16.3674057  44.3552351  12.0323408  17.3217225
  44.3972254  13.0229425  16.1780751  69.5913589  19.1962814  25.2992725
  70.0970915  19.9155879  24.9210334  70.1975333  18.4555244  25.3071809
  25.5886149  28.1732798   1.9297236  25.0925517  28.9090824   1.5709141
  26.2257648  27.9589629   1.2482982  21.7017746  41.2680531  24.1142559
  22.2990036  41.8577766  23.6540651  21.0927033  41.8504047  24.5682716
  72.0319000  37.2004032  39.7560310  72.8816093  37.3679495  40.1636505
  71.7251271  38.0635309  39.4783068  11.2159002  31.9105339   4.8129499
  10.3212488  32.2101450   4.9743918  11.3119173  31.9448900   3.8611978
  58.0922699  14.6066403  19.0823054  57.3163795  14.4837058  19.6292198
  57.7517509  14.9550092  18.2583404  61.8584478  35.8845544  51.2282705
  61.6470217  35.0300550  51.6042519  62.4313104  36.2958813  51.8754768
  73.8302659  57.3147392  11.2671578  73.9594261  56.3666391  11.2929082
  74.6496265  57.6773167  11.6039288  71.4438560  20.9487033  24.4451380
  72.1698644  20.6206751  24.9757409  71.3251906  21.8533134  24.7346759
  61.8727541  27.5994515  23.6724401  61.6249120  27.1033502  24.4526267
  62.6329207  28.1126165  23.9463758  26.1849292  17.4943887  60.9224688
  25.7058462  16.6662704  60.9529891  25.5592426  18.1449472  61.2410926
   4.1743326  50.4177809   8.1913871   4.1518709  51.3587284   8.3655775
   3.4434026  50.0629997   8.6974543  72.1004122  22.7605867  28.9342380
  71.7793062  22.5133419  28.0670619  72.0323026  23.7152004  28.9516592
  68.7806654  30.9773111  52.9248905  68.4504264  30.1663327  52.5382471
  68.1986606  31.1434674  53.6664391  12.0781791  26.5688610  22.8888369
  11.3182282  26.9910073  22.4882150  12.1232092  25.7093453  22.4699831
  21.3188314  40.3815269   9.9858361  21.0630345  40.6221437   9.0953851
  22.2253108  40.0854731   9.9029016  16.4623678  62.8682423  27.8013444
  17.1491957  63.0526257  28.4420490  15.7340980  63.4321117  28.0619454
  16.2922013   1.8412864  45.4955721  15.6977117   2.5885421  45.4290676
  16.5044928   1.7862958  46.4273119  68.9446425   8.4232610  36.8387818
  68.5107571   9.2758280  36.8720222  68.2498347   7.8101057  36.5989590
   4.2210754  69.5493922  27.7502465   4.5768484  69.6557169  28.6324906
   3.5390457  68.8845718  27.8455448   0.8928788  24.3393850  55.9852409
   0.2660633  24.9873924  56.3068247   1.6694172  24.4662166  56.5303373
  25.0075865   1.5050043  41.8598938  24.6067262   1.3746846  42.7192926
  25.3669930   2.3914650  41.8951941  21.0407114  62.5771046  29.8027825
  21.9106054  62.1896839  29.7057295  20.9681106  62.7717829  30.7371593
  62.6691293  66.5062666  28.7308288  63.1889796  66.3232756  29.5134544
  62.0216751  67.1499348  29.0184546  32.8695154  14.3048775  15.0277901
  32.3453379  14.7926068  14.3925023  33.1668186  13.5310268  14.5492542
  34.6637750   0.6070253  28.9162779  35.1134253   0.8371578  28.1032062
  33.8870645   0.1250508  28.6322856  12.8579319  50.2876425  13.9937937
  13.1815648  51.0843325  14.4142473  11.9814014  50.5183506  13.6860585
   7.9209725  15.9547837  34.3255949   7.1311907  16.3016255  34.7405410
   8.5177974  15.7817586  35.0536728   2.5734052  36.4644432  47.6154041
   1.8808196  36.3133240  46.9721937   2.1593449  36.2856483  48.4596872
  22.6176238  18.0824172  46.5561533  22.7312350  17.5871730  45.7449484
  23.2856345  17.7327180  47.1458197  58.5317495  59.1883759   8.0691534
  58.3488204  58.4769051   8.6828130  59.0643694  59.8059349   8.5703206
  27.2569251  43.8363791  30.8903646  26.7495441  43.0424356  31.0590386
  27.5579238  44.1164255  31.7547727   9.5952076  18.0305231  24.7393799
   8.8095528  17.5607646  25.0192094   9.6622974  17.8480494  23.8021326
  62.7511847  20.3234148  45.0667381  62.6994931  20.5087781  46.0043955
  63.2875061  21.0322952  44.7116613  74.6105770  64.2694473  13.5845625
  74.6508793  63.6795664  12.8318048  73.9871853  63.8546133  14.1808236
  16.2334847  20.4150057  46.4985561  16.1889124  21.3711452  46.5049314
  16.8498826  20.2086449  45.7959175  11.0467124  31.6985035  18.4480584
  11.0463464  30.7570362  18.6208880  11.3591647  32.0915031  19.2630172
  14.8871517  22.9953790  37.5630355  15.5901086  23.4983087  37.9743075
  14.1176558  23.5608029  37.6293969  70.6069756  20.5068016  27.6814246
  70.0379848  19.9421573  27.1583033  70.2352715  20.4708648  28.5627723
  20.9451326  14.9154149  59.3421887  21.7447551  15.0603496  59.8479857
  20.3928074  14.3830215  59.9146595  54.7406423  30.3927469   1.0605559
  55.2588474  29.8080063   0.5075865  53.8677513  30.3825903   0.6678848
   9.6473539  23.0947590  11.7547584   9.4941700  22.2032905  12.0678878
   9.1644716  23.1451464  10.9298229   9.0277255  47.1353483  21.3389421
   9.1607761  46.8740225  22.2501159   9.5498443  47.9314137  21.2394023
  20.4380774  48.7963486  20.8569193  19.8588777  49.1041040  21.5540886
  21.0494518  48.2055998  21.2967730  71.7982805  38.6450505  30.0393391
  72.4016653  38.1227493  30.5678844  71.5135038  39.3470693  30.6244063
   0.4156716  17.0505893  45.1672649   0.4781061  16.6660488  44.2929268
  -0.5140818  16.9944036  45.3877926  22.5542005  62.2260802   6.5447390
  21.7789444  62.7816550   6.6256529  23.2373699  62.6972662   7.0217001
  25.1545382  54.2841148  24.9495387  25.1490617  54.7343731  25.7942104
  24.3205881  54.5233727  24.5451713  27.4580908  37.3665500  27.1890402
  27.6190591  37.6116180  28.1002283  26.5136743  37.2171330  27.1444583
  47.5754238  30.6055318  51.0508495  47.9842385  30.9481727  50.2560537
  47.2855397  31.3843118  51.5259307  64.8848291  42.6864635  43.4161096
  64.6644267  42.1381913  44.1691392  65.8417745  42.6900159  43.3943312
   6.4632690  43.3719397  29.7434855   6.7981023  43.7137747  28.9144707
   5.5747586  43.7225199  29.8057270   6.2813147  23.3543979  45.7451766
   6.0753878  22.4725352  45.4351084   5.9307369  23.3832275  46.6353982
  32.1003079  55.9021235  17.8725135  32.1092391  56.5739059  17.1907043
  32.8106952  55.3073502  17.6320422  26.5225625   3.5158178  37.8776145
  27.3957086   3.2052404  38.1171775  26.6364574   3.9055768  37.0108104
   7.9425818  16.2589359  43.9885855   7.0010102  16.1796463  44.1415167
   8.1215572  15.6473660  43.2743168  21.2618279  11.2746453  52.5670433
  21.2076688  11.2505770  51.6116810  21.7213678  12.0917606  52.7603817
  21.1992812  21.0165596  12.1284747  21.0698771  21.5709686  11.3589835
  21.5101457  20.1835465  11.7739570  35.6917266   7.2618897  28.8076758
  35.7013170   6.3050921  28.7817311  36.6131274   7.5085671  28.8877010
   0.1659363  34.5708942   4.5465538   0.6733379  35.1534843   5.1116753
   0.2131004  34.9762034   3.6806834  15.0534177  26.5195179  11.8469620
  15.2411938  25.6152892  12.0986426  14.5009708  26.8548703  12.5530589
   5.7689536  22.0190477  32.6060224   5.5873197  22.3189998  31.7153645
   4.9131924  22.0095825  33.0347586  21.4405465  38.0026603  16.6878784
  20.7473111  37.8864145  17.3376036  21.1257601  38.7106371  16.1258197
  49.2966405   2.8596480   4.6384761  50.0988857   3.2834943   4.9434203
  48.8811961   3.5113700   4.0737718  10.4135863  41.3860426  60.0681606
  10.0619368  40.8052805  60.7429129  11.2648980  41.6609314  60.4086522
  18.9150536  23.8171887  36.2824631  18.9286840  23.5012412  37.1859145
  19.2918646  23.1002665  35.7722998  13.2003736  43.4689045  27.9330063
  12.8271019  43.5877562  27.0596361  12.7326298  44.0989685  28.4811568
  60.2990555  15.5843568  31.1487031  61.1464274  15.1476622  31.0621572
  59.7666084  15.2158856  30.4437494  68.4461766  22.7230430  31.0023785
  68.8749259  23.4678149  30.5808115  67.5572699  23.0289650  31.1826229
  15.0852549  23.0694628  33.6801672  15.3917599  23.7449956  34.2850995
  15.2578104  22.2448659  34.1345859  23.6322099  64.6242956  56.7500936
  23.2987718  64.4163183  57.6229029  23.8929079  63.7785247  56.3854830
  30.6846809  20.5580044  10.7596266  30.0815201  21.2560606  10.5043876
  31.5531945  20.9064102  10.5583084  46.1299173  24.0847231   1.2045545
  46.0078517  24.1337158   2.1526737  45.9395162  23.1726171   0.9853668
  71.6303122  47.2349024  39.9155855  71.8935817  48.0198860  39.4352555
  70.7683345  47.0155144  39.5618987  16.6605771  33.9472890  21.9935083
  15.9996414  34.3710256  22.5410867  17.4236619  33.8585806  22.5645280
  24.2839265  44.1937590  20.0733590  24.5446682  44.5598888  20.9184575
  25.0909758  44.1804409  19.5588434  53.5723114  69.6839476  33.0940962
  53.1916142  69.0169334  32.5227857  53.3113670  70.5155373  32.6983738
  19.0589797  13.8884652  36.2739110  19.6698570  14.3271160  36.8660641
  19.4628763  13.0382824  36.0998726  14.9011695  44.0640879   8.6360896
  15.8089781  44.0533304   8.9394021  14.8558104  44.8137093   8.0425870
  25.5378556  42.0275545  32.1237230  25.2925158  41.1604214  31.8010545
  25.0207090  42.1415520  32.9210925  72.3284593  17.5707364  10.0565982
  73.0851410  17.4086142  10.6199646  72.6365062  18.2178736   9.4221276
  23.5925674  18.3630812  39.6619320  23.7805390  18.6788201  38.7780714
  24.3357301  18.6617792  40.1860714  23.3928704  39.0225673   2.4398643
  24.2740035  38.6489606   2.4558112  23.3832097  39.5802164   1.6619401
  10.3252172  18.2290113  42.0546055   9.6390647  17.6725948  42.4231577
  10.2421606  19.0569019  42.5278187  60.6234181  31.2263513  50.7036161
  60.7104301  31.1871457  49.7511864  61.4673578  31.5603304  51.0076809
  71.3758865   8.6388826  14.4798243  72.1976065   8.8294423  14.0273917
  71.5937957   8.7037128  15.4096329  19.0930247  33.2795548   5.8285451
  19.3095744  34.1850972   6.0506499  19.6155596  33.0927157   5.0486219
  64.9907595  19.2737019  32.7845073  64.7626173  18.3744490  32.5488663
  65.7482600  19.4799662  32.2368956  11.5424585  34.8329854  34.0179324
  11.4741814  34.3815446  33.1766415  11.8422604  35.7138658  33.7934279
  31.4478493  33.9296150  21.1934328  31.1458564  33.3138180  21.8611336
  30.8459377  34.6707749  21.2613821  17.5908792  47.7147865  15.8973289
  17.4537075  47.8352928  16.8369532  16.8036664  47.2607899  15.5966413
  47.8418815  26.2112832  51.7009020  48.1718147  27.1016574  51.8217850
  48.2616675  25.7039285  52.3956013  14.2354107  23.1903958  19.3059707
  14.3133545  23.0825949  18.3580601  14.5397234  24.0827346  19.4713724
  18.2967031  15.9699321   6.3545173  18.5031080  16.6441607   7.0018530
  18.8925624  15.2496934   6.5605265   3.9027560  24.8975539  26.1929369
   3.0582955  25.3475904  26.2171364   4.5267853  25.5410147  26.5287638
  13.5446167  18.6660445  21.1110926  13.9032829  19.4029903  21.6055632
  12.7591372  18.4121239  21.5956306  49.2608968  37.6256789   1.4440222
  49.6548668  38.3244358   0.9217567  49.8951069  37.4616432   2.1419449
  72.6814893  40.2016068  36.3517404  72.8084258  39.5547223  37.0457578
  72.8226265  39.7134328  35.5405688   1.7727791  35.8824444   6.3519996
   2.1564938  36.7515182   6.4690572   1.5255174  35.6088424   7.2353089
  38.5716204  58.0520323  60.4243507  37.9634635  58.7898901  60.4684360
  38.2048397  57.4031332  61.0248765  23.2432938  62.9518127   3.5778475
  23.2252812  62.8148317   4.5250243  23.1890893  63.9016104   3.4721291
  33.9984296  40.7801077  54.7931432  34.7245340  41.3509515  54.5418643
  33.6306934  40.4803017  53.9618080   0.8689599  55.5968761  19.1636729
   1.5659474  56.0968399  18.7388527   0.0984862  56.1617136  19.1040027
  35.5886173  17.5166190   4.8777008  35.7498813  18.1784987   4.2052865
  34.6891761  17.6785469   5.1623333  64.0919172  43.8366318   5.2308148
  64.9266767  43.9075565   5.6938249  63.4775293  43.5181522   5.8921230
  70.2196546   0.8590089  57.4837243  69.7559746   0.4973851  58.2390123
  70.5260869   1.7164670  57.7788492  19.2638195  59.5960379   2.9437304
  19.2881715  59.5266294   3.8980997  19.9344802  60.2458954   2.7336580
  11.9665655  67.3289408  23.9682746  12.7062973  66.8727846  24.3694568
  11.2718066  67.2825177  24.6250749  32.3473525  28.8111877  21.3654923
  32.4254990  27.9987788  21.8656063  31.4628267  29.1245413  21.5543175
  23.1493044  16.1497664  26.2470150  22.3056293  15.8609378  25.8991337
  23.2185769  17.0656586  25.9776163  31.5566802  20.7401466  13.5027063
  31.0964370  20.5964255  12.6758146  31.8481851  21.6508532  13.4594238
  10.6212986  23.6557269  30.0117445  11.1905646  23.3518696  30.7187366
  10.4624724  24.5782089  30.2118278  54.4825995  36.9570518   2.7564886
  55.0811290  36.4726877   2.1878187  54.9457514  37.7712035   2.9536626
  52.4125544  13.9977010  29.9053383  52.8964917  14.6652921  30.3915071
  51.4975993  14.2718346  29.9681020  17.1934140  26.8810272  38.5630131
  16.8570054  26.0346794  38.8575554  17.6462924  27.2378135  39.3271065
  70.0426217  65.3063755   4.0627667  70.1759120  65.7316481   3.2156488
  69.3444892  64.6709172   3.9045396  18.4707892  40.0684309  19.6096027
  19.3802881  39.8265600  19.4348407  17.9553819  39.4646883  19.0747380
   0.2952924  32.5768328  17.5733590   0.6684315  33.3964324  17.2489274
   0.2929857  32.6750588  18.5255027  28.2395375  67.0436157  15.8466549
  28.8156638  66.6491450  16.5014095  27.5009788  66.4381970  15.7816238
  40.6112289  52.2923326  10.9092414  40.7490110  53.1775475  11.2463546
  41.0071230  51.7210817  11.5673959  33.3440542  15.4734850  32.9551554
  33.0589604  15.2907121  32.0598626  34.3000722  15.4676664  32.9079843
   7.4177297  21.3002216  50.3223996   6.7467197  21.2128459  50.9994095
   7.0044573  20.9575473  49.5299273  26.6405093   4.0446122  41.5438843
  26.4126675   4.9324544  41.8196630  27.1033075   4.1628106  40.7143784
  23.6463646  48.4669341   4.0791387  24.2302685  47.7134658   4.1661663
  24.2085657  49.2252148   4.2378015  34.3229699  42.5732803  32.9822111
  34.5120335  43.0636311  32.1821833  35.0593138  42.7678156  33.5620260
  29.4873174   0.1484762  59.2546095  30.2485403   0.6430160  59.5582523
  29.7177442  -0.7669891  59.4128995  40.7228279  59.3695354   9.6880752
  40.0945902  59.0436602  10.3325546  40.9895992  60.2248812  10.0248957
  71.4961374  41.2980652  25.4947305  72.2228688  40.8242035  25.0903225
  71.5205916  41.0343695  26.4145660   8.1602207  16.6692765  31.6007113
   8.0924813  16.5799363  32.5513244   8.6605696  15.9019406  31.3230801
  34.6234918  21.8436003  12.6449060  33.8029671  22.2925520  12.8484023
  34.3974018  21.2408018  11.9365633  21.3634133  38.6163807  12.1399438
  21.1433625  39.4520235  11.7282248  21.3755488  38.8073182  13.0778289
   1.1382072  43.3404541  12.9051089   0.1952592  43.2634878  12.7596533
   1.5321949  42.8323174  12.1960199  65.1904845  28.8272285   4.5525533
  65.1096910  29.2530084   3.6990798  66.0861307  28.4898734   4.5680889
  70.3267255  26.4832854  15.1671326  69.9367600  27.3174429  14.9057102
  69.8487445  26.2327504  15.9577012  65.4485416  47.1277857  27.4243760
  65.9321540  46.4019442  27.0300317  65.9355098  47.9096079  27.1639037
  15.7891297  24.2702103  29.3328834  16.0009825  23.8342810  28.5074663
  15.0395858  24.8276401  29.1238618   8.5154212  66.5316820  34.3122292
   8.5799831  65.7669735  33.7401438   8.4418797  66.1658430  35.1936960
  19.1105878  69.6153736  32.3604751  18.5492408  69.2409134  33.0393720
  18.5751927  70.2985334  31.9568968   9.5999724  27.8180575  34.6763587
   9.0330648  28.0247760  33.9333153  10.2832341  27.2580910  34.3078208
  32.0441341  42.2107410  34.8720670  32.5572133  42.4098301  34.0889001
  32.6484489  41.7313814  35.4388523  14.1251981  13.3316278  36.5477800
  14.4595599  13.8529670  35.8179593  14.8403573  12.7323699  36.7614865
  13.3296490  47.8050518  27.9210782  12.9680991  48.1731224  27.1148300
  12.5649559  47.4983692  28.4083414   9.2173249  43.1303596  33.1420875
  10.0958014  43.0212688  33.5062456   8.6685258  42.5414467  33.6600041
  34.8075628  16.3880849  36.5190578  34.4307041  16.1296237  37.3601341
  35.2248216  15.5923867  36.1889195  72.1758839  24.8856306  14.1612625
  71.5153229  25.4335737  14.5851111  71.7545378  24.0311980  14.0682960
  36.9330883   9.1211253  31.8024826  37.2207999   8.2253319  31.6263938
  37.6693940   9.5228916  32.2636414  23.0185938  39.9573946  17.2373235
  23.0834866  39.0118122  17.3710978  23.6994767  40.3261852  17.8000176
   9.2024571  37.9318571  31.7264915   9.8880970  37.4711633  32.2101116
   9.6703166  38.6001253  31.2257338  10.7443389  67.6935737  54.5559788
  11.0169777  68.5239272  54.9463797  11.4984997  67.1155356  54.6715069
  30.7898967  23.8184527  50.9440713  30.0545715  23.2140044  50.8432262
  31.5463088  23.3323136  50.6158309  57.6106548  54.0303755   6.6732544
  56.9006538  53.6982012   6.1238986  58.0999041  54.6213722   6.1009049
  28.4531307  15.8699560   7.1729088  28.3442211  16.4499938   6.4192992
  29.3989587  15.7387519   7.2394502   9.1920656  42.4911165  22.2138762
  10.0997460  42.7650738  22.0823622   8.6742824  43.1430340  21.7415023
  72.5817585  10.7188773  34.8094940  71.7655787  10.9757686  34.3804359
  72.4927732   9.7760272  34.9485874  42.2021675   5.0503439  19.5418370
  42.1164513   4.6288750  18.6867058  43.0298662   4.7190589  19.8902500
  49.1310967  54.4622545  12.3689222  48.9387426  53.8896112  13.1114256
  49.0935338  53.8857012  11.6057670  28.7679005  49.5637417  28.5221720
  27.9198456  50.0070763  28.5442185  28.6192608  48.7392616  28.9851737
  58.9569577  17.4630176  43.7637477  58.2926746  18.1521808  43.7672167
  59.7054275  17.8495084  44.2183321  28.7107515  32.6016355  16.9678438
  28.0288267  32.5218391  16.3008797  28.8912320  33.5404968  17.0147240
  24.2636284  59.7002558  55.2231216  25.0552353  59.2371444  54.9490499
  24.1950926  59.5229594  56.1612558  14.2959964   4.6619803  33.5685229
  14.0456271   3.7996066  33.8999724  13.7943065   5.2784765  34.1018820
  70.7191267  62.9757977  51.7624855  70.6062996  62.9399347  50.8126354
  69.9802327  62.4766207  52.1104670   8.6142552  35.3739667  12.4453163
   8.6033475  34.8890996  11.6200793   8.9197403  34.7383523  13.0925453
  52.3194532  49.5311895  56.9776254  52.2955184  48.7218967  57.4882164
  53.1631426  49.5047608  56.5262728  23.5849977  16.8068933  44.3692970
  23.9682221  17.2003901  43.5853767  24.3354630  16.4743853  44.8617172
  16.5694296  15.7019973   3.3889034  17.4583149  15.4187930   3.1746337
  16.4439023  15.4297566   4.2979473  70.6614205  59.7916508  54.5040417
  71.0264677  60.5971003  54.1376734  71.4231795  59.2345715  54.6641016
  19.6866870  27.3900127  25.9771204  19.9017870  27.7824283  26.8232727
  19.1670203  28.0572581  25.5288339  71.5611855   3.4599765  14.4687378
  71.5032975   2.6955064  13.8956177  70.6507269   3.7045081  14.6345532
  23.3356309  18.3711541  23.6905313  22.7482963  18.9976227  24.1133857
  24.1701674  18.4797764  24.1465807   9.3632214  66.9550327  46.0640042
   8.5729377  66.6225293  45.6384175   9.2778747  67.9072717  46.0172122
  75.0475149  63.6874417  60.0112277  74.7745971  64.5692423  59.7579049
  74.3712167  63.1143764  59.6500484  16.4798415  43.8296986  26.5213013
  15.5820954  44.0520906  26.2746739  17.0180881  44.4935656  26.0902500
   7.9843235  28.1856275  17.2923386   7.8031600  28.9800334  16.7900145
   8.8644189  28.3200431  17.6439023  15.7299360  63.8112514  25.0096726
  16.4705595  64.4015776  24.8710036  16.1315855  62.9702334  25.2278471
  65.8176899  48.5630178   3.7805364  66.1637985  49.2962408   3.2717851
  65.0236124  48.9082766   4.1885433  37.5159407  34.1887689  15.3566432
  37.9700279  33.5151982  14.8503458  37.7802777  34.0266490  16.2622237
  66.6260990  12.6605188  47.5400894  66.8381306  12.4409114  46.6328697
  66.3638767  13.5805665  47.5088017  73.1891347  48.7710905  28.4339237
  72.4346101  48.1832123  28.3975482  73.5659999  48.7317610  27.5549150
  29.7587943  21.3149524  31.3684034  30.5730724  21.6068006  30.9585166
  29.1513824  21.1981630  30.6378937  14.2003107  29.7978973  35.6603861
  14.5771742  29.2060018  36.3114357  13.3892143  30.1100397  36.0615373
  23.6771441  49.4901514  27.2748065  24.0100861  48.7537527  26.7618752
  23.1562281  49.9988031  26.6533923  -0.1123172  35.1008296  19.6102464
   0.7858638  34.9648619  19.3085587  -0.2388052  34.4402409  20.2913165
  64.6158421  41.7247105  22.7525473  64.9824053  40.9140205  23.1055927
  64.4386208  41.5268946  21.8329334  23.5084009  44.0711975  16.8292820
  22.8952670  44.5849133  17.3550117  23.9815283  43.5368395  17.4671292
  32.1237206  57.4132013   8.4874624  32.0589495  56.4921284   8.2351452
  32.6858759  57.4103451   9.2621917  21.9217014  29.0540552  33.3852935
  20.9873724  29.0128994  33.5891700  22.2589397  28.1930041  33.6324644
  61.9459486  44.8057270  34.7871304  61.8805837  43.8511896  34.7585034
  61.2043619  45.1123381  34.2653370  53.1614637  54.3184042  11.4439309
  54.0630436  54.0322781  11.5906274  52.8188086  54.4896889  12.3211288
  17.0787033  11.7204867  41.3912242  16.4824232  11.7894374  42.1368330
  17.9148945  12.0483791  41.7221384  29.2224574  43.4298182  28.9345384
  28.5781169  43.7359381  29.5727777  29.8890591  44.1165686  28.9189172
  23.5398889  47.1709776  33.6281490  23.9483404  46.8686771  34.4393277
  22.8355289  47.7514553  33.9165163  74.1032722  67.9379177  24.4008493
  73.1939813  68.2076883  24.2718315  74.3484746  67.5198126  23.5754418
  51.4565094  15.9517347  42.9421966  51.9110765  16.7690049  43.1463151
  52.1583380  15.3213369  42.7801185  14.3109512  36.7064214  16.8947816
  14.6796107  35.9856176  17.4054325  13.8311994  36.2772298  16.1863565
  70.0624531   6.3909125  13.6778963  70.5777192   7.1335655  13.9928555
  70.4133209   6.2084508  12.8062129  15.9386742  68.9348269   1.5560676
  16.5152645  69.0865660   0.8072343  16.4498997  69.2195797   2.3135608
   3.3742103  47.0468903   9.0969676   4.2062211  46.5736198   9.0945232
   3.5963768  47.9202127   9.4197392  74.4197931  65.2983189  44.2553377
  74.6236920  64.6175766  43.6140537  73.8841301  64.8549604  44.9131584
  27.4420261  33.4583163  32.4883914  27.1450472  32.9224253  33.2238221
  26.6631579  33.9431834  32.2154450  72.7146312  62.1730457  48.9848185
  72.1207400  61.6408186  49.5142126  72.3050471  63.0378805  48.9617300
  66.3714069  39.6031046  24.5990610  66.8161368  38.7912726  24.3553829
  67.0805514  40.2247667  24.7630262  32.5951515  43.6707166  60.1791297
  31.9294874  44.3462607  60.0496568  33.4156953  44.1562012  60.2642438
  35.6223229   1.2957843  34.3452358  35.0189892   1.1594994  33.6147237
  35.7993022   0.4155762  34.6771145  43.7111712  68.9755964  49.1743517
  44.5597458  68.5949945  49.4008255  43.2354307  68.2631731  48.7473202
  54.3749141  15.4242622  34.7536783  54.5395713  14.9837981  35.5874138
  54.7891225  16.2818109  34.8499375  34.9387697   7.2956784  36.1881590
  35.4467026   7.9843600  35.7592559  34.5725176   6.7837842  35.4670095
  65.8096385  29.3632460  21.6658282  64.9530780  29.5418572  22.0539451
  66.0604572  30.1877356  21.2492466   6.9018322  37.4348640  13.2639670
   6.3947976  37.0454240  13.9763474   7.3503923  36.6939831  12.8563857
  30.0459862  39.5187712  22.8400230  29.9254131  40.4587603  22.9746127
  30.8129311  39.4547415  22.2708750  14.1196299  50.7424641   6.0348284
  13.5792899  50.0401592   6.3968134  14.5512545  51.1294222   6.7965335
  73.8564507   8.6095417   6.5831918  73.4696386   9.4208956   6.9123024
  74.0509692   8.1005049   7.3701328  55.1102523  66.5050271  50.4961734
  54.7338705  65.9629348  51.1895012  54.8624138  66.0620740  49.6846311
  32.9647279   4.5616740   4.7915745  33.6740255   4.1562501   4.2928168
  33.3988118   4.9557993   5.5481911  27.7447605  54.8483753  26.3365912
  27.4170208  54.0025616  26.0309505  28.1161284  54.6637869  27.1992898
  16.5777242  43.8327122  19.8120427  17.1214378  43.2818985  20.3752589
  17.1007562  43.9551163  19.0197754  21.5873528  26.3620567  15.7398510
  21.1500001  27.1544790  16.0513318  21.6552854  26.4825344  14.7926962
  55.6441069  56.4747953  29.7576666  55.6883049  56.3787794  28.8063216
  55.2465248  55.6591749  30.0625014  11.5239918  32.7841616  28.5295367
  11.6804707  31.8601179  28.7241864  10.8773744  33.0596495  29.1793251
  69.8273864  28.5788345   7.5876516  70.1033303  29.4886422   7.4765909
  68.8709354  28.6161733   7.5814098  26.3541746  45.3696871  28.0402255
  25.7090855  44.8090076  27.6092577  26.5611243  44.9135113  28.8558912
  58.0531970  24.1654141   4.7602710  58.2589713  23.2432111   4.9133569
  57.0970670  24.1949876   4.7260329  40.8125734  67.8321028  20.1751113
  41.1738014  67.1087503  20.6874585  40.4812431  68.4470940  20.8295107
  31.8174958  51.4241314  13.9856958  31.2364960  51.6882801  13.2723260
  31.6698050  50.4829979  14.0788758  12.5294387  28.5782909   3.6875734
  11.6687298  28.5040188   3.2753912  12.4890161  27.9823947   4.4355738
  33.2120895  40.0368166  32.6353168  33.5034132  39.6041393  31.8327236
  33.8491940  40.7375050  32.7744794  64.3262116  16.6151746  29.9334955
  64.4936172  17.5470193  30.0745201  64.6547881  16.4436848  29.0509677
  74.1867176  14.8333485  21.7023468  74.5304362  14.2531426  22.3816442
  73.2844416  14.5415051  21.5721202  24.2097458  16.3070165  53.9040117
  24.1175636  15.4968463  54.4053685  23.3178934  16.6471778  53.8324343
  18.3292544  51.0367727  16.7292833  18.5492241  51.6290474  17.4483478
  17.4478459  50.7259846  16.9360721   0.9201819  65.8703804  10.9840596
   1.5596685  66.0217714  10.2880931   0.8473123  64.9175549  11.0392535
  32.6115537  39.5434594  15.5927515  32.2572088  40.4126978  15.4054153
  33.5439515  39.6934462  15.7488596  21.1258721  41.7939901  16.7747378
  21.8196917  41.1424971  16.8767464  21.0986447  42.2487116  17.6165938
  37.4515009  56.1964607  26.0566330  37.4601626  57.0416403  25.6073809
  37.6697040  56.4057207  26.9648337  55.0373975   0.7386668  21.8659806
  55.3928129   0.3714927  21.0565996  54.0886513   0.7221301  21.7401218
  27.5633883  65.0188494  11.5178418  27.1304512  64.5641088  12.2403443
  27.0223832  64.8227549  10.7529271  66.7374503  54.2538214  24.4384575
  66.5067291  53.6121655  23.7666869  65.9410590  54.3508911  24.9605393
   1.9942269  56.9247818   5.1524889   2.7226433  57.0226049   4.5392421
   2.0035416  55.9974241   5.3894687  10.4225338  25.5981708  10.3423584
  10.7922435  26.3947320   9.9615192  11.1663473  25.0001764  10.4156590
  42.5432301  69.9780941   6.5818256  42.2773838  70.6491661   5.9531575
  43.1309414  70.4338264   7.1844375  18.1202602  22.6119590   4.5514971
  18.3292592  22.5739861   5.4848289  17.1638429  22.5906634   4.5191625
   4.0516910  60.5099487  26.4508510   4.8108843  60.0861073  26.0505843
   3.5095483  59.7853136  26.7626476  68.5247179  25.8870135  52.0657985
  68.2957979  24.9723445  51.9008492  69.4814976  25.8932077  52.0934891
  14.7292972  70.0500536  60.5152607  14.6389353  69.0986681  60.5694199
  15.3003180  70.1938343  59.7606134  40.5820799  31.6059923   5.6439203
  40.3662109  30.9171796   6.2725449  41.5386343  31.6070127   5.6088144
  58.2244293   3.6570199  29.7808242  57.8004495   3.1930001  30.5027390
  57.5277058   4.1885026  29.3956828  41.5857807   0.2424701  21.1043763
  41.1200229   0.8695109  20.5510998  42.5042907   0.5047114  21.0427332
  29.5222855  14.2482138   4.2507911  29.6745062  13.9939976   5.1609749
  30.1244617  14.9771976   4.1018042  28.2905436  63.8114548   0.3073519
  27.5016451  64.3512154   0.2570424  28.7794232  64.0272236  -0.4867974
  70.6895292  60.5593872  39.5009613  70.7140684  60.0711823  38.6779881
  69.9606108  61.1707067  39.3951535  30.1366115  66.3086557  29.4983315
  29.4113970  66.6710854  30.0071955  30.2544403  65.4244423  29.8454833
  40.7545130  64.7708276  56.6573881  39.8961870  64.3683031  56.7896139
  40.9104960  64.6984557  55.7157599  34.2028332  21.0514450  15.9994721
  33.4609842  21.5869308  16.2808013  34.7541714  21.6511655  15.4968858
  38.1713367  37.3082042  16.4312387  37.9839325  38.2318425  16.2638938
  38.0724359  36.8853712  15.5782080  52.9062442  53.7632433  49.9742727
  53.0975251  53.7900165  50.9117835  53.4765510  54.4315186  49.5942872
  18.3004669   9.9700578  21.2526488  19.1918472  10.2659257  21.0678840
  17.7854017  10.7755597  21.2984729  11.0343540  10.4551756  21.2043643
  10.3358006  10.5331922  21.8541074  10.5760646  10.3920841  20.3663754
   7.5895029  53.8489771  17.0197356   7.3673302  54.5520878  16.4094019
   7.7847660  54.2983866  17.8420103   5.5567855  33.4900522  10.4282773
   4.8031998  33.0213690  10.7869947   6.0862207  32.8096318  10.0123918
  36.6780806  48.7776852   4.5343241  36.9341803  49.4847679   5.1265061
  35.8045793  49.0243673   4.2303914  19.1146076  58.4918356  34.1736341
  18.3702123  58.0829334  33.7321520  19.8530555  58.3468437  33.5821080
  18.0396295  50.9517860  25.5145025  17.5891244  50.3557682  26.1128664
  18.2181001  51.7306423  26.0415339  12.6743615  23.8985515  31.8422055
  13.5782933  23.5839200  31.8543363  12.7324200  24.7797823  31.4730263
  11.7825377  45.1195192  24.9307179  12.7198410  45.1818848  25.1145744
  11.6956770  44.3318987  24.3937445   2.2949530  64.9130201  14.8250794
   2.7659807  65.6779146  14.4944727   1.4707482  64.9104643  14.3383431
  32.0657897  21.7163491  19.2824435  31.4776778  22.2140884  18.7144542
  31.5750694  20.9237075  19.4995749  21.6912580  53.8813734   0.7705115
  21.6498280  54.8033428   1.0244624  21.9069457  53.4192753   1.5805601
  28.8693500  53.5428333  31.6121531  27.9483438  53.4847879  31.8663311
  29.2756701  54.0671921  32.3022127  30.5900049  56.0694838  11.6151559
  30.0737000  56.5104818  10.9404874  31.4621568  55.9822130  11.2304902
  13.5251149  19.6665679  59.7151129  14.3787392  19.3815719  60.0412057
  13.5905393  20.6206714  59.6746526   0.0157412  14.1758119  38.8547235
   0.4157742  14.2245685  39.7229557   0.6934174  14.4978486  38.2603507
  21.2427092  43.2364941  14.4459617  21.8416286  43.9710236  14.3118298
  21.3052583  43.0442238  15.3815639  56.7296223  59.3558195  60.6491550
  56.2155871  60.1302603  60.4205845  56.2609891  58.9666513  61.3875057
   6.9157439  38.8644743  33.0183315   6.6385359  39.0773726  32.1272302
   7.6988882  38.3262300  32.9033923  51.4448055   8.2546159   5.4465933
  52.3152001   8.5530445   5.7103844  50.8939884   8.4157392   6.2126703
  69.6301623  59.0144674   2.4858266  69.8361596  58.0861275   2.3763703
  68.6992105  59.0799360   2.2730465  31.9215131  43.8602781   7.4935734
  32.6066089  44.3557501   7.0448154  31.8534946  43.0436134   6.9989401
   5.3553325  36.8513656   6.1463571   5.1425636  36.1455417   6.7569095
   5.6029481  37.5865650   6.7070711   8.9318141  59.1873847  47.4787741
   8.9297279  58.8106166  48.3587008   9.4656976  58.5845004  46.9613486
  64.4016421  60.4129887  56.4215183  64.2808747  61.3304615  56.6662264
  64.8178935  60.0140953  57.1856213  71.3140150  14.5099794  54.4360476
  71.0737463  13.6942445  54.8754530  71.8703910  14.2346727  53.7074291
  20.8662510  32.8758025  19.2442441  21.6161323  33.4099150  18.9822650
  20.1651168  33.1384182  18.6478555  22.1148300  36.0014105  10.4070365
  21.8231106  36.4096999   9.5919091  21.9834495  36.6760564  11.0732365
  35.0334120  16.5717578  14.3036604  34.5369601  17.3823774  14.4161844
  34.9860501  16.1414266  15.1573610  13.2133603  47.5449467  22.2899842
  12.5779068  47.7877378  22.9633951  13.9846575  47.2600746  22.7800679
  38.3307235  63.9189771  60.5904725  37.5204651  63.4752539  60.8411194
  38.0457835  64.7743634  60.2689833  52.0462751  38.8485646   2.6902574
  52.5641108  38.8244200   1.8855873  52.6918316  38.7724853   3.3928943
  53.7010336  46.3672018   1.8725382  54.3368435  46.6240740   2.5403669
  52.8553057  46.6367674   2.2307387  60.4034042  22.6163387  20.7276201
  59.4620073  22.6175761  20.9008336  60.7475960  23.3262610  21.2696290
  72.2663875  34.7423564  47.7581756  71.8689176  33.8724099  47.7202075
  71.7964574  35.2494870  47.0961957  37.1008921  59.8022938  15.5680847
  37.7209878  59.4438839  14.9330616  36.5152907  59.0723419  15.7692659
   2.7632860  -0.1677530  15.0137711   1.9252876   0.0318511  14.5964599
   3.0357126   0.6591399  15.4115975  54.4869891   2.3896249   2.1215481
  55.0702111   3.0256732   2.5356981  54.5035044   1.6326888   2.7072191
  13.9032702   1.2983163  10.1842082  13.5574583   0.4304393   9.9758041
  13.3904842   1.5853675  10.9397769  52.3095981  19.2833932  21.7687058
  52.6681415  18.4263928  21.9994164  51.9870511  19.1751130  20.8740163
  43.2168674  58.3360052  18.0821490  43.2012320  58.1880713  17.1365798
  44.0947151  58.0664682  18.3522642  15.1637396  18.3749972  47.8267698
  14.5639690  18.9717590  48.2744055  15.6165107  18.9252578  47.1876745
  72.9434935   6.9821961  19.1027951  72.9196707   6.5124972  18.2691014
  72.0245997   7.1586020  19.3046594  65.0261422  29.0224897  54.8074125
  64.2652877  29.5315324  54.5277583  64.9926170  28.2287084  54.2735361
  66.5223932  50.2596998  28.8837504  66.4145947  49.8902082  29.7601557
  66.5719843  51.2048626  29.0267348  44.7402382  67.4200392   1.8437588
  45.6220913  67.5227499   1.4859635  44.8149300  66.6907883   2.4592657
  24.2182398  42.7614021  23.7465429  23.6594224  43.5132694  23.9431405
  24.9777603  42.8713989  24.3186092  13.2913375  34.6243596  26.6128397
  12.4951649  34.5951748  27.1433973  13.0589449  34.1636276  25.8066463
  67.2167015  68.4848213  53.9991331  67.7727699  69.0472126  53.4599352
  66.7525625  67.9327440  53.3698320  72.5631591  29.8175346  30.9862261
  72.7115007  29.5889054  30.0686460  71.6645070  30.1463853  31.0088592
  52.0090691  14.1895993  26.2611270  51.3237587  14.7908433  26.5528250
  51.5342394  13.4240372  25.9375739  56.5986458  13.8850529  25.8223152
  56.4516536  14.6749528  25.3020501  55.9422723  13.9305718  26.5175390
  59.9006811   4.7997601  12.4659753  59.6428791   3.9268191  12.7621913
  59.7741238   5.3596814  13.2319427  45.3763771  60.1731586   1.2528618
  46.3195276  60.2583027   1.3923368  45.1697969  59.2861795   1.5475154
   2.6651052  50.3519058  24.9810791   2.2326875  50.7868385  24.2461753
   3.4937900  50.8201170  25.0825357  73.6200062  30.8730443  22.5673699
  72.9332415  30.7516606  21.9117355  73.4757010  31.7572053  22.9045033
   6.0157732  14.8491986  58.9834118   5.5985121  15.4668649  58.3828974
   6.3623242  14.1605408  58.4160662  18.9473224  44.7985935  14.0627384
  19.4291294  44.0741301  14.4617963  19.5386863  45.5478430  14.1344607
  52.2916023   1.1253150  29.6578717  52.6453677   0.2359565  29.6468043
  51.3818470   1.0177691  29.9353743   5.2942260  43.4553443  52.4231594
   4.5603975  43.1480228  52.9554026   5.7175597  44.1236840  52.9619907
  22.0988055  39.1482231   6.9672317  22.2358818  39.3833467   6.0495395
  22.9371090  38.7815210   7.2483177  63.5408799  18.2254918   6.4745557
  63.0578867  18.9993222   6.7646134  63.9097349  18.4768422   5.6277966
  41.2899017  59.6960211  31.6245627  41.5787268  59.1384840  32.3470330
  42.1011543  60.0122786  31.2269688  56.1828820   0.3479083  29.9579906
  56.7503182   0.8675797  29.3886161  55.9534494  -0.4185216  29.4324636
  66.6672531  23.4400018  14.0682530  67.6058403  23.3739121  13.8924003
  66.5769593  23.1841214  14.9861884   1.6117915  55.9804450  54.8857378
   1.7702278  55.3708278  54.1649692   1.5469536  56.8375789  54.4646167
  10.3620895  16.8320142  60.1193813  11.0478719  17.0247470  59.4800130
  10.2491077  15.8827602  60.0706263  10.0053505   8.9903624  29.7973394
   9.5065168   9.2103942  29.0105820   9.5999817   8.1857999  30.1207423
  11.8695867  53.8591671  13.4282827  12.1148467  53.0892134  13.9413619
  10.9165108  53.9042711  13.5047233  62.6971165   8.8337786  50.0889063
  62.0254389   9.2669184  50.6156635  62.8636113   8.0085929  50.5445099
  66.4252058  12.0682843  44.4706345  67.0435206  12.5950368  43.9642286
  66.9153897  11.2790139  44.7008848  47.3011160  58.2265806   7.2437453
  47.9321861  57.6143742   7.6221442  47.3730850  59.0111971   7.7872777
   1.7672924  18.2321198  19.2265570   1.3401941  18.7721951  19.8914909
   1.1791567  17.4859650  19.1100478  32.3259822   3.4530194  15.9196007
  31.3740007   3.4738906  16.0172045  32.4905989   3.8883908  15.0831902
  55.7937018  18.1677945  34.8908019  55.7621304  18.0047829  33.9481115
  55.6341044  19.1076691  34.9768233  66.2914959  18.2537015  21.0227036
  66.4388386  18.5789330  21.9108200  65.9916560  17.3528321  21.1442065
   7.8135744   9.1061766  27.8162146   7.5791756   9.0488608  26.8899298
   6.9929019   8.9439900  28.2814288  42.9476118  59.1348362   4.6507087
  42.6365709  59.8830795   5.1602387  43.8979197  59.2450237   4.6190688
  42.0228481  48.4164810  24.3048573  41.7215252  47.6637936  24.8136806
  41.2433863  48.7173986  23.8378286   2.5981955   0.5840810   6.4134723
   1.8416695   0.0095303   6.5309316   2.7773766   0.5550368   5.4736412
  57.9284286  64.8119020   7.8952521  58.6403179  65.4293394   7.7272713
  58.1124496  64.0712404   7.3175055  53.5709953  53.7463951   3.1123388
  53.0488014  54.3706179   2.6084614  54.3099785  53.5364056   2.5413400
   2.6836088  59.3165731  50.7689810   1.9185475  59.5553827  50.2456427
   3.4234780  59.7064972  50.3033781  13.3098781  47.6510191  13.2200348
  12.8461862  48.4517097  13.4652197  13.7816465  47.8828573  12.4200857
  62.6436106  28.1238683  11.2511492  62.1383826  28.8375314  11.6405797
  62.6978890  28.3479817  10.3221416   2.2388033  22.4283154   0.4239941
   2.4554447  22.0073540   1.2559134   1.5634207  21.8684800   0.0410087
  58.5336590  31.1895919   1.3734259  59.3917179  31.3708925   0.9898956
  57.9083014  31.5154457   0.7261387  56.5535860  66.0837963  41.3063305
  55.8536796  66.3840392  40.7264881  57.3609047  66.3163904  40.8476715
  70.5614964   5.1038058  32.6661468  71.0950772   5.7310422  33.1540990
  70.2588002   4.4814046  33.3273745  48.4508101   8.1115706  19.1820323
  47.9830900   7.3533328  19.5321000  49.0750519   8.3459313  19.8687851
  49.9733019  53.0472326  18.2505298  50.2549028  53.6546898  17.5664759
  49.5692158  52.3215008  17.7748632  71.8919913   8.7600072  60.7212114
  72.1754662   9.6499951  60.5119228  71.6038243   8.3972295  59.8836040
  14.3014149   6.6768725  23.8133740  15.1885323   6.4687045  24.1064882
  14.4266991   7.1733601  23.0046487  41.7813484  21.5596612   9.1705447
  41.1332253  20.8562024   9.1343474  42.2835139  21.3819821   9.9658382
  47.9683081  11.1547406  28.7889194  47.1498338  11.0587342  29.2758608
  48.0350105  12.0937093  28.6153436  57.8787319  28.3732541  48.2632589
  57.4442927  27.6193841  47.8642988  58.2078282  28.0448945  49.0999889
  31.9750333  41.8108940   5.5781353  31.2983203  41.7750835   4.9021116
  32.7992177  41.8241358   5.0915396  10.4015982  64.4694662  43.7406158
  10.9287417  65.2152872  43.4540796  10.8660054  63.7038708  43.4023476
  64.3960381  57.1613693  29.2615485  64.6716499  57.4739504  30.1232696
  63.6722469  57.7383471  29.0177059  51.2522793  45.3879309   6.6801149
  50.7277393  45.2415800   7.4673092  50.7830811  46.0727453   6.2035477
  44.0043846   6.7086060  15.6194580  44.3533198   6.5471299  14.7428727
  43.1645981   7.1418698  15.4668999  32.5791717  50.5423927  19.2805076
  32.2835851  51.1935949  19.9167418  32.0230103  50.6859875  18.5148084
  62.1447817  28.9861329   8.6032981  61.2067071  29.0907033   8.4442067
  62.5140086  28.7944348   7.7412319   9.5129923  15.8719476  53.1684494
   9.6540121  16.0234959  52.2339058  10.1973919  15.2503140  53.4162331
  44.2059612  54.0073824   8.7631387  45.1144361  54.0613651   9.0597653
  44.2468405  53.4892511   7.9593331  28.9195919  47.4623728  19.0875661
  28.7863851  47.7400684  18.1812692  28.4141469  48.0880260  19.6065235
  16.2062554   2.4884875  30.0680256  15.4947142   2.1039040  29.5561361
  15.7716517   3.1066544  30.6555772   0.3741793   6.7724259  15.0923610
   0.9791140   7.0307334  14.3969750   0.3331331   7.5349028  15.6695747
  17.9966454  26.3406117  48.7856054  18.1739048  25.7073052  49.4811201
  18.6281017  27.0441563  48.9356613  52.9843998  67.4087906  11.7734289
  53.5209799  67.5083208  12.5598156  53.5860443  67.5821829  11.0494196
  26.4197302  57.4294996  29.3274665  26.8955421  56.6128969  29.4791198
  27.0597267  58.1172323  29.5109344  37.2394279   6.2938626  10.5209446
  36.9112674   7.1832593  10.6532884  36.4626459   5.7389958  10.5914056
  61.0546748  11.7993100  29.6219349  61.6461865  12.5346501  29.4618583
  60.8205668  11.4856847  28.7483954  49.1479969  61.8634272  35.3738689
  49.7213173  61.1107826  35.2287388  48.3423471  61.6446352  34.9055791
  31.7896970  30.7227050  60.6723332  32.5967535  30.6380759  61.1800062
  31.3124880  29.9109088  60.8440375  12.9232935  10.9353097  47.0379591
  13.8578610  11.1284859  46.9637728  12.5502066  11.7129166  47.4531269
  29.1645531   3.3886988  38.6778116  29.4372038   3.6829264  39.5469046
  29.3774990   4.1209634  38.0993056   3.5583691   3.7234385  14.1341007
   3.4950117   3.5999806  13.1870127   4.3626074   3.2672961  14.3818271
   6.1712623  54.0346622   7.9373890   5.7077056  54.3348360   7.1555698
   6.8124598  53.4046125   7.6085454  70.5018107   9.0859206  43.3437920
  69.6846358   9.5687802  43.2200813  71.0302893   9.3091948  42.5775766
  22.6593733  60.9666729  48.7575626  22.8635669  61.8772078  48.9707756
  23.0014968  60.8455658  47.8718328  61.2097279   0.1029094  34.5193768
  61.0625140   0.9547646  34.1083908  60.8300749   0.1900180  35.3937387
  74.6201865  13.9129193  57.1092033  73.7220637  14.1175397  57.3694611
  75.0780312  14.7526200  57.1480799  61.0271493  11.2559445  41.6008472
  61.3403789  12.1408398  41.7881775  60.0837652  11.3575299  41.4745951
  31.2461877  55.3643036  28.2733178  31.4076614  56.2382078  28.6289144
  31.7410946  55.3438044  27.4542451  49.7849941  69.2659521   8.9434826
  49.0464592  68.9763165   9.4791168  50.1522303  70.0083685   9.4232613
  50.1587725  67.5889444   4.3886018  50.3188276  68.0573034   3.5692990
  50.2300501  68.2609510   5.0665069   9.4429239   7.2646867  34.5574360
   8.7482127   7.1950351  35.2122312   9.0515884   7.7716504  33.8460450
  19.1476023  38.2511568  25.3760910  19.2379022  38.1708074  26.3256288
  18.4207404  38.8621831  25.2554750  71.7984215   3.9904959  19.1460633
  72.1966711   4.7778638  18.7750137  72.5414578   3.4486087  19.4115639
  33.9166808  68.5752106  47.3239994  34.4635367  67.8090525  47.1502781
  34.0090418  68.7271070  48.2645464  39.0747714  62.4610806  22.3057818
  39.4818354  61.7211962  22.7564430  38.1515360  62.2189379  22.2334313
  72.9016205  35.3338348  50.8280294  72.6573416  35.0345002  49.9522667
  72.4960538  34.6999608  51.4195954  73.6144324  11.9619332  22.5929885
  74.1748901  11.9011365  23.3665662  73.9991685  11.3459502  21.9694715
  43.7354183  63.6851358  45.8154440  42.9416704  64.1487598  46.0823822
  43.4866428  63.2269001  45.0127220  32.0201516  58.9296055  32.2507620
  32.0160484  58.0013561  32.0171642  32.9424763  59.1335630  32.4055171
  39.7722602  58.8082695  12.4537063  39.4090700  58.0999470  12.9853094
  40.5031157  59.1458225  12.9715288  70.5991077  60.6100988  43.5051918
  70.8128166  60.4887533  44.4303083  70.7763624  61.5357399  43.3378410
  17.8543905  15.5654939  46.5352678  17.2013907  15.2630456  47.1664143
  18.5154633  16.0076840  47.0678902  11.8070436  45.3621292  21.0092616
  11.7907357  46.1235285  21.5891218  12.5780451  44.8668766  21.2858772
  12.5472550  25.4791673  34.1379499  12.4970345  25.5756791  33.1869531
  12.6162438  24.5350201  34.2795587  33.5069394  62.6299572  19.0462089
  33.6746764  61.6920137  19.1376567  34.3444920  63.0443859  19.2535400
  15.1347566  57.6586533  30.5136871  14.5273185  58.2718182  30.0998282
  15.4284656  57.0934582  29.7991800  22.1912050  62.3424292  44.9282169
  23.0589986  62.0304251  45.1847744  21.6484714  61.5541410  44.9117327
  71.2464171  49.6683884  14.6467698  72.1954637  49.5958376  14.5453858
  71.1279207  50.0865793  15.4995942   7.4175471  47.9382420  31.2261486
   6.9530642  47.7033901  30.4228234   7.4669659  47.1209192  31.7219067
  68.3046198  63.5274506  43.3538389  69.2202663  63.4518719  43.6223698
  67.8177118  63.5832644  44.1760540  56.3873911  66.6746712  35.0166726
  57.0689344  67.1929455  34.5887494  56.6725159  66.6099215  35.9281230
  50.8553267  61.9537687  42.6524162  51.3122416  61.1128950  42.6722002
  50.3042269  61.9085789  41.8710899  71.8501612  63.3193779  12.0428193
  72.4717092  63.8534641  11.5481865  71.0040098  63.7439966  11.9015431
  51.1686364  22.2678883  17.7128768  51.1479369  21.5617783  17.0669580
  50.5686108  21.9805939  18.4011090  59.5518938  27.4883206   0.8320871
  58.7565628  27.8202756   1.2486069  59.6757904  28.0523713   0.0687168
  29.5817891  19.3235429  50.2766275  30.2421001  19.2855962  49.5846844
  29.2407421  20.2168877  50.2335072  65.5846854  37.2157966  36.4259415
  65.2633818  36.6342460  37.1149950  66.5377124  37.1808158  36.5080910
  53.0221748  40.6510735  11.8830872  53.2453680  41.3868952  11.3130164
  52.0651865  40.6444931  11.9020772  29.6060395  39.5069242  11.3974392
  29.7816133  39.1025615  10.5477941  30.2596331  39.1257477  11.9837415
  66.5181509  19.9804337  45.4215336  66.6636053  20.9223492  45.3328514
  66.9170395  19.7545464  46.2618303  34.3779993  53.9322567  55.1932669
  35.0436091  53.2862425  55.4296160  33.7566757  53.4480190  54.6494818
   0.4927119  27.1025382  40.0143151  -0.2697603  26.7466746  39.5579891
   0.9774240  27.5755798  39.3379145   1.1741690  23.0375035  32.0799041
   1.4312367  23.8973840  31.7470980   0.6627802  22.6490529  31.3701010
  71.1398202  38.2989216  19.7399819  70.6880736  38.5247421  18.9268637
  70.4537385  38.3139896  20.4072881  70.7237307   5.4432042  27.2642684
  71.4703623   5.0028260  27.6702690  71.1167494   6.0949738  26.6837835
  40.6089238   2.9846413  44.9197865  40.3734223   3.8844950  45.1456785
  40.9237508   2.6061852  45.7406950  73.7617120  45.8534241  30.2886057
  73.7549818  46.5149784  30.9803653  74.2816935  46.2456322  29.5871615
  51.7294407  70.0319147  37.9805136  51.9196796  69.5731497  37.1622396
  51.2886381  70.8364105  37.7071714  50.8216619  51.8903160  56.4919138
  51.2038660  51.0945272  56.8618774  51.4988804  52.2323322  55.9082794
  33.7879705  35.8171630  23.7260604  34.4204855  35.8737540  24.4422698
  33.6908531  36.7190528  23.4204602  51.8897263   8.6066325  23.4327197
  51.8399063   7.6659329  23.6025310  52.8046910   8.7592538  23.1965423
  24.8814424  55.5710422  50.2606731  24.9203809  56.5151225  50.1076369
  25.1483520  55.4652129  51.1737942  65.6482466  70.0795966  27.0238066
  65.3915842  69.1624741  27.1199465  66.1727901  70.0988702  26.2233615
  71.1241313  15.0257121  41.1652153  71.1142131  14.8775779  40.2196007
  71.1080213  14.1474115  41.5454202  35.2150059  61.8649149  34.5846391
  34.6994591  62.6338959  34.3415117  36.1176372  62.1819162  34.6162295
  38.7333941  63.0413771  19.6849072  39.2664480  62.4088573  19.2032373
  38.9786792  62.9128027  20.6011701  24.2638087  63.8073158   7.7822632
  24.0873909  64.3050861   8.5805923  25.0684571  63.3254004   7.9733855
  46.4981270  61.9619846  34.6689892  46.3974285  61.6753769  33.7612748
  45.6289959  61.8487692  35.0537300   6.6787914  12.8004868  12.1528506
   7.5961880  13.0623372  12.0750594   6.1941628  13.6258824  12.1629691
  59.7386495  -0.0087707  25.4672694  59.1743866   0.6315549  25.0338864
  60.0109378   0.4216559  26.2777138  48.4450618   0.3348477  47.8142881
  47.6061741   0.5031331  47.3851299  48.2775036   0.5023463  48.7417030
  24.2927527  54.5016384  10.0631678  24.8073578  54.6917963  10.8475482
  23.3901978  54.4446850  10.3768289  63.9744874  42.1081411  59.1702854
  63.9532658  41.9603120  58.2248073  64.2857929  43.0083285  59.2650326
  61.9738857   3.8353665  18.6017728  61.2178389   3.7195666  19.1772854
  62.1358219   2.9637702  18.2407689  26.7239809  59.8026800  27.6979661
  26.8834472  59.7002077  28.6362123  26.7728186  58.9130259  27.3481536
  19.3736605  14.7572644  27.0333600  18.7676005  14.0175660  26.9912767
  19.7500328  14.7088368  27.9121256  52.5052992   1.7004712  20.8455181
  52.4384967   1.3010962  19.9781835  52.4177805   2.6398833  20.6840229
  18.0416977  66.9454527   8.6214966  18.4025717  67.6304388   9.1843426
  18.3300102  67.1830130   7.7402061  63.8014590  60.3221273  25.2730107
  64.6334326  60.2422380  24.8064590  63.5295236  59.4186306  25.4341817
  60.1544396   1.7845614  21.9634461  59.7168747   1.0289128  21.5713191
  61.0469905   1.7496522  21.6194010  34.2199159  27.9550958  11.1858308
  33.5989261  28.2002521  11.8717611  34.8527455  28.6730361  11.1679161
  70.7755872  32.6408635  58.7918631  71.1027141  32.0785962  58.0896681
  70.9047743  33.5313760  58.4654798  50.7197332  48.9989233  15.2778482
  50.0153875  49.3455410  14.7301424  50.4052210  49.1150856  16.1744082
   4.2525438   7.4904712  17.3467147   3.7840942   8.2721217  17.0537806
   4.0108494   6.8148835  16.7131579  31.8184733  49.2579603   2.8099102
  31.3373828  49.0358162   2.0127676  31.1695290  49.6828890   3.3707467
  17.9172520   5.4386981   9.6425563  18.2005791   4.7673638  10.2632570
  18.4689812   6.1955674   9.8399633  22.2638798  40.6512785   4.6317878
  21.5331340  41.2639761   4.5490465  22.4751139  40.4073286   3.7306213
  48.6493000   2.3540245  21.8381601  48.1146177   1.6305505  22.1651607
  48.7297186   2.1870266  20.8990746  33.9706516  45.1899672  11.3492525
  33.0534410  44.9317217  11.4401460  34.2155385  44.8988247  10.4709041
  14.0839096  16.8013450   2.5415726  14.9168463  16.3928816   2.7773828
  13.4869452  16.5527269   3.2473011  13.7090659  38.5464191  21.5487742
  14.0637362  37.7634835  21.1275244  13.0026889  38.8312030  20.9689808
  17.9597962  65.1971149  38.5301518  17.1041512  64.7737122  38.4606338
  18.5834777  64.5221710  38.2623792   9.0963209  59.3497753   9.4591826
   9.1587120  60.2202225   9.8524463   9.0826058  58.7502909  10.2052820
  14.5542530   7.9572423  29.6606207  13.7137035   8.0469544  29.2115521
  15.1652531   7.6897509  28.9740634  43.9454651  66.7008543  47.2871208
  43.1393433  66.3531351  46.9056797  44.4428682  65.9246206  47.5445795
  29.0258527   3.0458386  22.6054621  29.7356126   2.4061663  22.6628757
  28.2530621   2.5267823  22.3827291   1.2585548   4.4082959  21.4271474
   1.5122322   5.3307994  21.3977981   1.8817572   4.0076907  22.0332575
  43.7987137  65.8796215  13.8977039  43.1348276  66.1628532  14.5264041
  43.8679790  66.6064739  13.2787371   9.9936684  14.2226325  57.2948985
  10.6205162  14.8372232  56.9133603   9.4211444  13.9814721  56.5666880
  15.9886841  17.5114377  20.7263207  16.5389780  18.2862695  20.8405042
  15.1329760  17.7732022  21.0661340  15.8289579   0.8394702  33.0162573
  16.6455559   0.9547122  32.5303435  15.3337387   0.2001078  32.5041938
  33.9186549  68.9185476  28.5421944  33.9492917  68.1929970  29.1657853
  34.3642497  69.6379042  28.9896321  11.2166266  12.0774110   2.9360476
  11.0304407  12.7242406   3.6166209  11.2950949  12.5912602   2.1322826
  48.9115238  65.2040052  26.2091398  49.4924641  64.7323561  26.8060398
  48.3262825  65.6970024  26.7841911  70.9843651  12.9392464  38.8327217
  71.0683791  12.0045693  39.0213013  70.0564591  13.0605157  38.6314392
  53.5516138  20.3597137  10.2686519  52.9096098  20.3206274  10.9775467
  53.0278654  20.4898235   9.4780893  72.8087536  15.9320004  18.0275750
  72.9559914  16.8618806  17.8547287  71.8776718  15.7997258  17.8491974
  13.9077210  58.2480907  32.7435350  14.2854416  57.8538322  33.5297394
  14.4322550  57.8970671  32.0238972  54.3896023  13.8755257  27.4174643
  53.4620920  13.7998135  27.1933603  54.6494833  12.9880841  27.6647162
  15.6382199  34.9294588   5.0035114  14.7552390  35.2978870   5.0324173
  16.0454245  35.2190420   5.8199425  34.1274007  37.1776830  54.2558204
  34.2547830  37.9283963  53.6757927  34.1298803  37.5524055  55.1366197
  59.0364496  16.0088952  10.5436337  58.3397714  15.9900506   9.8874956
  58.9114920  15.2055009  11.0487914  30.2143959  -0.2141158  16.0423076
  29.9084572   0.3579409  15.3384709  30.1943497   0.3369983  16.8246782
  29.7342161  30.4739125  18.2078254  30.6368260  30.5778630  18.5090137
  29.3923239  31.3668473  18.1630528  58.3968417  17.8543694   2.4754643
  58.5937873  16.9763215   2.8017750  59.0029899  18.4263833   2.9462281
  60.6142040  31.4208089  54.0462982  59.8823377  31.0638772  53.5431050
  60.7622643  30.7796012  54.7413956  50.1149559  56.1257267  27.7325988
  49.9083805  55.2808285  28.1322360  51.0159922  56.3041544  28.0019045
  48.7753049  31.5292580  48.9481783  49.4212285  31.9500096  48.3807421
  48.1644741  31.1072762  48.3439827  73.3462763  45.9373188  12.7623808
  73.2751751  45.8487558  11.8119419  72.4494076  46.0979652  13.0557203
   2.0631969  43.7081146   5.9827316   2.9927671  43.6514139   6.2039167
   1.7418754  44.4548512   6.4880753  57.3384809  43.4621048  15.4711211
  57.6531649  44.1110611  16.1004543  56.4998388  43.8097382  15.1676977
  71.0974375  13.5926278  11.7906415  71.0402409  13.9087899  10.8889771
  72.0339981  13.4632714  11.9401407   2.8761253  38.5699892  28.6084318
   3.3575377  39.3275666  28.2759404   1.9627765  38.8558054  28.6267519
  57.0592276  13.1276543  13.2083213  56.9393650  12.6484616  14.0282226
  56.2727872  12.9315598  12.6991189  56.1440007   8.6490138  26.4047432
  55.5297509   9.3392785  26.1548042  56.7373625   9.0701087  27.0267034
  63.4308783  24.9140389  18.9158392  63.9785878  25.2821000  19.6092165
  63.1613461  24.0592416  19.2518580  35.8697514   9.9726327  48.0904627
  36.6491703   9.6025689  47.6759672  35.7084755  10.7867081  47.6134920
  61.1264038  59.7263861  19.3187606  60.9085798  59.1075897  20.0158048
  60.5259418  59.5060682  18.6066246  50.7849713  20.8311912   0.0179500
  50.5449410  19.9639198   0.3442306  50.7016106  21.4051029   0.7794685
  27.2182584  63.6982346  35.4393673  26.8070507  63.4638309  34.6073842
  26.5485668  63.5136795  36.0979176  39.6081805  68.1039381   0.5632176
  38.7322283  68.0585051   0.9464580  39.4539022  68.1861496  -0.3778834
  68.6016413  51.2013446  58.1568416  68.3594914  50.2757941  58.1260510
  68.0284067  51.5767871  58.8251818  23.2406521  37.7107239  26.3157368
  23.7745309  37.0699883  26.7854881  23.1888366  38.4602141  26.9088745
   1.9248646  69.8945856  41.5979385   2.1966477  69.8682404  40.6805134
   1.3703991  70.6722689  41.6612434   5.7824663  10.4282697  48.2182455
   5.7686476  11.3016446  47.8267431   6.6962818  10.2925141  48.4687185
   3.0595794  64.2461777  28.0514407   2.1170232  64.3654490  28.1680322
   3.4155720  64.2689848  28.9396858  38.9271736  64.2189312  54.0538836
  38.0928540  64.6158457  53.8036823  38.8344455  64.0357542  54.9888039
  66.2743346  13.6596329  33.1336093  65.9255186  14.5491250  33.0756187
  65.5264489  13.1261285  33.4024405  71.1918338   6.6410743  48.6911647
  70.8328708   5.7561313  48.7563806  72.0084747   6.5329562  48.2036810
  73.1883112  27.2390015  20.7176733  73.3770434  27.5717671  21.5951014
  73.6959664  27.8023083  20.1335526  42.0720454  29.7953769   9.8084040
  42.3707362  28.9480087   9.4782753  41.2223883  29.6105262  10.2085895
  21.5800766  16.0130437  36.1953712  22.2397379  15.4440816  35.7986856
  21.9463209  16.8940766  36.1186981  31.6265520  29.8125087  49.9519115
  31.9520220  30.2376901  50.7453363  30.9968313  29.1647922  50.2683752
   7.0107702  10.2614339  10.0183427   7.6617149   9.5622285   9.9582189
   7.3721079  10.8703358  10.6624758  61.3261095  41.5833791   4.7555307
  62.2405115  41.4253743   4.5207232  61.2593118  41.2950166   5.6658161
   6.2727551   1.8324168  11.0897362   6.7876724   1.5628655  10.3291881
   6.9235615   2.0104201  11.7687070  54.1986815   0.5384524  14.5021069
  55.1419298   0.6977208  14.5360219  53.8050071   1.3933499  14.6764719
  27.7280096   4.7376759  18.2944012  27.1548943   5.2356131  18.8773477
  28.5885767   4.7795327  18.7114239  69.8701159   3.1540902  38.1667519
  69.3606821   2.4789555  38.6149716  69.8406140   2.9030164  37.2435379
  48.6337042  55.6467581  24.6081114  49.3059158  55.1797724  24.1118336
  49.1005611  56.3758945  25.0163269  74.4769716  48.4052706  23.8126540
  73.5576677  48.1865358  23.9652014  74.7928333  47.7173233  23.2268310
  21.5363996  57.3472455  49.6515029  21.3674037  58.1645087  50.1202815
  21.5282981  56.6745046  50.3323739  72.4446646  25.6437905  10.1739001
  72.1097485  25.6504662   9.2772293  72.2889439  26.5322144  10.4943585
  53.9565039  60.1885080  45.6324673  54.5890522  60.8182049  45.2866459
  53.8097715  59.5759821  44.9116993  59.8033047  65.2446651  19.7789681
  60.5944109  64.8166561  19.4515646  59.4555473  64.6377230  20.4323578
  60.9456682  43.5220432  58.0108070  61.4705515  43.0743122  57.3472834
  60.2236176  42.9201365  58.1912994  53.6046830  18.7821038  29.8907018
  52.7499644  19.1259129  29.6309280  53.5792390  17.8597100  29.6361804
  31.2650951  42.1959315  58.0806877  31.7432960  42.6352988  57.3774736
  31.6435512  42.5501500  58.8853811  60.2901856  29.1082509  45.7240963
  60.3829829  28.4428914  46.4059448  59.3519250  29.2960294  45.6987953
  27.4060798  61.2785006  39.3918419  26.6799593  61.7693901  39.7765565
  27.4837780  60.4972553  39.9394274  59.5970885  23.6049207  36.4203930
  58.6732236  23.4008248  36.5654850  59.8568693  24.1031773  37.1953034
   8.4074625  45.9908401  41.4148872   7.8581270  45.4460822  40.8512383
   8.5074290  46.8109809  40.9315520  27.4292088  65.0599241  30.8307385
  26.9080162  64.5324278  31.4359975  28.2974815  64.6574306  30.8488464
  59.5844221  62.4584198  41.8306828  59.8499441  61.6183043  42.2047710
  59.9203920  63.1110525  42.4450350  47.0555735  41.5455818   5.9448177
  47.2855568  40.7092047   6.3495588  46.7107964  42.0734262   6.6650534
  72.4149052  21.9852193  13.2801986  73.1893698  22.1443780  13.8197434
  72.4178568  21.0398991  13.1299078   1.2021927   1.3987906  29.0284157
   1.5816120   2.2434933  29.2707872   1.9452385   0.7954009  29.0222216
  17.0839314  39.9294980  24.5912480  17.3732380  40.1246293  23.6999249
  16.2213377  39.5295079  24.4809151  46.4313499  10.8508046   2.3130192
  46.1018030  10.6209309   1.4442340  47.3343507  10.5333264   2.3183817
  -0.2209898   3.2777102  59.8185158   0.1737217   2.4371035  59.5865440
   0.4943947   3.7780030  60.2111483  16.7404083  20.3272660  26.9319201
  15.8036188  20.3302319  27.1284986  16.8215899  20.8652909  26.1444092
  56.0247771  19.0624078   3.6441970  56.5733615  19.6578343   3.1335533
  56.2070767  18.1964715   3.2792976  56.4840794  65.1429129  22.2531343
  56.6175508  66.0715628  22.4429440  55.6021786  65.0983047  21.8836832
   1.4254526  11.5538819  17.1217871   1.2302832  11.4176686  16.1946487
   0.6683401  12.0334466  17.4579871  71.8398142  56.3849401  16.0893321
  71.4291525  55.5452919  15.8829784  71.7656851  56.8928099  15.2813685
   3.0644664  32.5270425  56.8152725   2.4070152  31.9717990  57.2344335
   2.5595578  33.1090175  56.2472879  68.5416142  20.3333981   7.4822503
  68.7320439  21.2226136   7.7810395  69.1865078  19.7866662   7.9310495
  54.6057606  52.0473337  24.1853046  55.3538895  51.4558840  24.1032863
  54.8480177  52.8135157  23.6651993  31.9423590  18.9159615   2.7899572
  32.6466713  19.0444215   2.1546026  31.1450443  18.8870652   2.2611032
  50.3361336   6.4583142  33.8255286  50.2274791   7.3935254  33.9981890
  50.4993550   6.0731824  34.6864939  71.6223335  25.6083369  41.2557125
  71.0788488  26.1942649  41.7825365  72.1321678  25.1133418  41.8970251
  60.7406489  49.1330655  18.4632027  60.9117810  48.5767014  17.7033341
  60.4020468  48.5332234  19.1278577  69.2621565  68.5137367  27.7901888
  69.4018745  68.7340164  26.8692183  68.7639523  69.2523336  28.1401968
  29.1619563  52.9561186  18.5631943  29.1733289  52.2113657  19.1643953
  28.2395840  53.2061863  18.5090840  18.9543410  24.5682165   0.0195093
  19.0370484  23.9330885   0.7308454  18.0789299  24.4163438  -0.3366070
  57.7268544  25.1519330  57.4812889  58.1139938  25.5218156  56.6878557
  58.3738390  25.3230031  58.1656694  29.0762258  26.7143393  22.3701334
  29.5851421  25.9474468  22.1072412  28.7784410  27.0983720  21.5454674
  49.1558218  64.4854736  43.3848858  48.9641047  64.3867731  44.3174791
  50.0830030  64.7213840  43.3546257  35.3810378  52.4131128   5.6203956
  35.8258315  52.4331876   6.4677353  35.7131501  53.1821748   5.1572723
   0.7451805   5.7777272  51.9136535   1.0948857   4.9071609  51.7237847
   0.8402523   5.8725654  52.8613870  61.6064159  12.2842152   9.6113855
  60.7850686  12.0946915   9.1578388  61.4428965  13.1093247  10.0682104
  70.8050966  69.4616508   2.3610094  71.0775709  68.6476755   2.7846047
  70.7853460  70.1052666   3.0692485   8.5806040   0.8986886  20.9807825
   7.9110149   0.8198912  21.6602492   8.7163166   1.8415149  20.8864498
  12.9732565   8.0622752  14.4598627  13.7436585   8.2585604  14.9929476
  13.3170990   7.5710137  13.7137628   0.3540806  14.1740926  41.6921329
  -0.1169058  13.3668073  41.8987226   1.0657839  14.2064603  42.3314047
  51.6126347  56.9776630  21.6179681  51.2043476  57.8361654  21.7298102
  51.5844870  56.8201733  20.6742334  61.1817185  15.4268296  15.2793479
  60.2597538  15.1824124  15.1988912  61.3061181  16.1118157  14.6224284
  71.2095451  65.0154924  58.6466312  71.4974880  64.6188354  57.8244495
  70.2605104  65.0981808  58.5532093  22.7388978  53.2860279  27.8381133
  22.4728632  52.6329899  28.4854150  22.0562792  53.9557934  27.8790832
  18.0847220  18.8361581   4.5148703  17.8908543  19.2843468   3.6916021
  17.2657351  18.3990987   4.7482699  48.1021643  46.3093758  13.5176933
  48.7186337  45.8628988  14.0980864  47.2440100  45.9721613  13.7747681
  27.6737928  60.9611797  32.7933311  26.9089818  61.5340900  32.7379370
  27.3200464  60.1153755  33.0684948  53.7236261  58.5565424  16.1571109
  53.0808210  58.6411667  15.4529274  53.8779354  57.6145697  16.2286174
  16.4666637  16.1328660  58.6630454  16.3939031  15.9014617  59.5889988
  16.6786083  17.0663034  58.6653802  45.4267693  62.9586697  58.6843681
  45.7901430  62.1120787  58.9441347  44.4897556  62.7946234  58.5779381
   7.7289681   8.7621720  45.6725883   8.0614285   8.5077269  44.8117971
   6.8254189   9.0330298  45.5098867   5.1674545  51.8428421  26.6579890
   5.9476555  51.7541695  27.2053981   5.4570663  52.3671103  25.9113312
   6.1439375   1.8541224  56.9117212   6.0680393   1.0679276  57.4524307
   7.0867590   1.9909938  56.8190718  63.9919472  62.6403856  57.8482676
  63.7446165  62.1841574  58.6525726  63.2022905  63.1157875  57.5900602
  45.0619999  23.3650430   7.3091453  45.4666463  22.8589566   8.0136853
  44.8851625  24.2207368   7.6999664   9.8814261  64.4486761  29.8699951
   9.0347749  64.1737223  30.2218676   9.7734362  65.3822041  29.6880722
  54.9585438  48.0535316   0.2999962  54.4885874  48.1530428  -0.5279335
  54.4044113  47.4729919   0.8216699  65.8820868  57.5991726  20.1959300
  66.5723276  57.9986525  20.7252836  65.0901175  58.0829334  20.4304409
  72.8711414  51.3953304  35.6670928  73.7590265  51.4694929  35.3172469
  72.8657675  50.5582571  36.1313200   8.3112721  41.9343217  15.7963312
   8.7574867  41.1614831  16.1425066   9.0113072  42.4645741  15.4155254
  58.7263823  55.8828926   4.9000275  58.4065580  56.7535543   4.6636274
  58.8457394  55.4358959   4.0620643  11.2937597  13.5128625  36.1080074
  12.0815043  13.3577092  36.6291761  11.6093401  13.9655240  35.3258681
  16.5572580  22.1288310  55.8753895  16.3432058  22.9557429  55.4433798
  17.4298176  21.9074689  55.5500214  47.7234777  60.3664790  56.9987868
  47.2559532  60.1556121  57.8069886  47.8988870  59.5166026  56.5948494
  19.2790385  27.2037098  18.9874143  20.1433630  27.2672960  19.3937845
  19.3631716  27.6912710  18.1680031  33.5345308   3.1410201  29.0590620
  32.6576809   3.1494077  28.6752725  33.7945876   2.2199757  29.0421319
   9.6928362   1.3270409  10.1742101  10.4314760   1.8728812   9.9045819
   9.0029101   1.5283425   9.5419806   6.8786296  49.7737991  53.7724607
   7.5071176  50.2230464  54.3376266   7.4182376  49.3404494  53.1112008
  49.5126104  70.0950050  33.7362766  49.5445681  70.3351974  32.8102541
  49.8696089  70.8563232  34.1936398  28.7029600  65.0014114  37.3701119
  28.3245683  64.5003986  36.6475916  28.0294275  65.6432676  37.5950742
  31.0452795  63.4583426  24.9331069  30.1973438  63.7821293  24.6291351
  31.3100457  62.8209877  24.2698503  34.4337872  10.6159909  36.4698148
  34.8976753  10.0042279  35.8981633  35.1265696  11.0544808  36.9637871
  59.8351955  61.3921833  35.4245996  59.4173050  60.5524254  35.6153965
  60.5321598  61.4664650  36.0764861   8.7800825  59.2224503  18.1458378
   8.6527336  59.4135952  17.2166026   8.5873008  58.2883739  18.2268405
  17.6139502  26.9968922  13.4833002  18.0845741  27.6852353  13.9533234
  17.8650669  27.1174557  12.5675285  41.9213787   7.9178555  20.6907082
  42.8539828   8.1211694  20.7624316  41.8857256   7.1593888  20.1078796
  24.5221615  55.5422640  16.6913903  24.9392557  56.3386059  17.0201814
  24.1427302  55.7999802  15.8512425  52.0767641  58.7933588  13.9308453
  51.8629074  57.9721594  13.4879804  52.3566818  59.3790197  13.2273674
  49.2333762  16.8106873  44.9159718  49.4950191  17.7290852  44.8502636
  49.7425548  16.3674386  44.2373657  15.8647907  53.4554005  26.6160917
  15.6539524  52.7507401  26.0035300  15.2912605  53.3000088  27.3665214
  43.9402977   4.0984519  10.8572602  44.1905454   3.3862860  11.4458442
  43.4137968   3.6749966  10.1792371  27.6956177  49.4526768  25.1419878
  27.3444748  48.6699677  25.5665994  28.4102345  49.7347307  25.7129526
  64.5558548  38.7973070  33.3017659  64.9028635  38.5160875  32.4551654
  64.4452667  39.7439241  33.2127953   0.7239139  56.8914461  29.0526438
   0.6892002  57.8030682  29.3424296  -0.1149094  56.5208197  29.3269467
   2.5494501  65.6717587  45.5746889   2.1678714  65.5492210  46.4439487
   1.8321276  65.4834700  44.9695206  70.4309574  18.0739434   7.3860073
  70.7477299  17.6472791   8.1821525  71.1422030  17.9622968   6.7552191
  24.4115734  37.1390820   7.0504773  25.2096438  37.2725010   7.5618595
  24.6991634  36.6463184   6.2819040  55.5855846  59.6582985  48.0392122
  54.8946571  59.9407053  47.4399662  55.5277538  60.2672577  48.7754583
  12.8491553   7.8606044  56.8350421  13.7907489   7.9958211  56.9415735
  12.6634034   8.1598340  55.9449904   0.1761024  22.8449631  10.4135430
  -0.1227169  23.5574460  10.9786129   0.5636039  22.2088766  11.0147667
  63.6078580  65.0852703  22.8308463  64.4388088  65.2852748  23.2618356
  63.2468029  65.9406571  22.5980735  33.2805610  18.2469344  30.0836849
  32.4563813  18.5171103  30.4886103  33.4009480  17.3406541  30.3672266
  56.5598039  12.4233631  59.0676360  56.0072665  11.7858294  59.5198352
  56.0467796  13.2314542  59.0730747  16.1607333  48.8990133   8.3304179
  16.6480680  49.3662421   7.6518655  16.8330642  48.4455054   8.8388813
  34.1647363  24.0790319   7.9263842  35.0356364  24.2132902   7.5525653
  34.2645645  24.3012524   8.8520646  43.0524143  50.4714172  15.2731991
  43.2173141  49.5758383  15.5681229  42.6997157  50.9162609  16.0438788
  68.9283985  22.5976229  40.9308243  69.2650908  21.7332745  41.1669874
  68.7035036  23.0039477  41.7678165  65.6091150  31.8385546  30.1786232
  66.0764476  31.4802925  30.9332633  66.1459490  31.5921776  29.4254041
  69.0121710  32.7715588  30.6419849  68.2221669  33.0391550  31.1115766
  69.7303444  33.1643796  31.1381197   8.3698994   4.7434372  22.4123812
   8.6800843   4.1794196  21.7039299   8.8896626   4.4813281  23.1722331
  48.2919364  63.7140897  57.6361765  48.6070804  64.6148685  57.5619270
  49.0281825  63.1777504  57.3420395  55.5178501  67.9076315  29.0345716
  55.0909164  68.6872815  28.6794591  56.3946577  68.2045880  29.2779994
  73.5472359   4.5816582  50.3003454  74.2828827   5.1530713  50.5206728
  73.4218095   4.7047210  49.3594122  35.5825162  14.7474384   5.1367420
  35.0638795  14.5843208   5.9245491  35.4272676  15.6700718   4.9345598
  55.4062982  62.1853475   6.7186219  55.4750862  62.5043862   7.6184630
  55.9314539  62.7997689   6.2058544  38.1298971  33.0721974  17.9950058
  38.4005356  32.5694799  18.7632895  37.2434759  32.7637386  17.8070164
  11.0053349  40.0865173  12.5978208  10.3362215  40.4482794  12.0167458
  11.4727342  39.4494510  12.0575297  26.0628939  18.2679272  12.2554052
  25.4385424  18.2794654  12.9808593  26.1175561  19.1805470  11.9719112
  27.1559000  33.6662745  14.2882800  26.2864137  33.8289213  14.6540272
  27.5381827  34.5374632  14.1828287  49.1448832  67.7095331  15.7368886
  48.9307526  67.8665738  16.6565180  50.0716893  67.4703504  15.7442367
  63.5118222   6.9545519  21.6896486  64.2528677   6.5232360  21.2641478
  62.8619623   6.2605101  21.8001914  61.6639745  27.4027848   3.9641374
  62.1499073  28.0174065   4.5139927  60.9618163  27.0797491   4.5288077
  24.2584062   5.7585353  17.9403841  23.9804316   6.6601861  17.7791774
  24.4511437   5.4081964  17.0707023  13.3563268  21.3357854  45.6365490
  13.4898686  20.4030704  45.4678917  14.1170967  21.7619014  45.2417231
  22.8674030  49.3827343   9.3658149  22.3548293  48.6745596   9.7556722
  23.6871600  49.3851900   9.8600042  27.3446822   6.2532252  13.8014293
  26.6301298   6.3839269  14.4247782  27.2946811   7.0101261  13.2176197
  46.3435082  68.2690671  47.0086413  45.4531555  67.9989150  47.2334140
  46.8340044  68.1811288  47.8258996   8.0121404  25.9228158   6.8449056
   8.4235203  26.7817974   6.9405562   8.4238172  25.5453181   6.0675699
  12.6755142  23.5351443  24.8896813  12.1538746  22.7679181  24.6541190
  12.0386481  24.1611862  25.2342200   8.5322022  15.4073322  14.1080427
   7.6620668  15.1309204  14.3956065   8.7587023  14.7952652  13.4078252
  59.6710662  34.6685694  56.8058552  59.5703964  35.0752700  55.9452205
  60.2231483  35.2780763  57.2956901   9.7246226  35.3306501   6.3525903
   9.9031767  35.2725260   5.4139900   9.0652260  34.6556441   6.5132082
  39.9010372  25.1159906   5.0673968  40.2965641  24.3439555   4.6627343
  39.0870166  25.2503061   4.5820481  17.2215915   4.6110037  56.2616825
  17.8055573   4.0584832  55.7421303  17.1692383   4.1721883  57.1107626
  26.9430923  30.2039099  18.3404899  26.6483450  30.4788733  17.4723017
  27.8739905  30.0117421  18.2276607  27.5799084  27.5846887  24.6001363
  28.0420780  27.1635175  23.8753986  27.5135183  26.9039249  25.2697515
  23.7422538  23.1816125  27.0477557  23.4997725  23.9161658  27.6115537
  22.9104996  22.8662825  26.6942263  33.6837645  68.4888616   8.8144141
  34.2860790  69.1726895   9.1073793  32.8300258  68.9203389   8.7799484
  74.6237185  12.5469589  48.6485624  74.6315791  12.7487099  47.7128983
  74.9596205  11.6523182  48.7035036  13.9452720  15.0184023  18.5010076
  14.8367512  14.8030448  18.2269347  14.0120649  15.9035110  18.8592720
   9.6078742   2.7803344  42.3925209  10.1133502   3.5189074  42.7319860
  10.2202833   2.0447963  42.4055719  30.2219009   7.5602955  25.8549190
  30.9014535   7.3119020  25.2282286  29.3994904   7.3538077  25.4108047
  42.0229053  32.0380187   1.0104350  42.6825762  31.7749453   1.6521965
  41.2390423  32.2136855   1.5309469  16.9342661  36.2202978  30.6110001
  17.0928931  35.4186344  31.1094022  16.4208841  35.9348297  29.8552370
   9.1787490  60.5608283  34.1557097   8.9107951  60.2952258  35.0354195
   9.9353298  61.1298256  34.2973399  34.6044716  66.1160399  33.3550143
  33.8436874  66.1234029  32.7741647  34.2344936  66.0253482  34.2331505
  20.1706537   1.6707741  49.2517274  20.9660562   1.1622440  49.0937274
  20.4408010   2.3532592  49.8661118  55.4695400  68.3578217  18.5802925
  55.9724804  68.2945946  17.7683282  54.6696507  67.8618757  18.4058034
  15.4251122   8.4144825  15.4238164  15.9675992   9.1980386  15.3344846
  16.0015750   7.7695036  15.8336031  59.0086356  11.3739236   8.6314648
  58.4204665  11.9921239   8.1977391  59.4484750  10.9180672   7.9138505
  30.3978809  67.0363627  20.8335400  29.8116382  66.2816088  20.7796669
  31.2641462  66.6567473  20.9808612  47.0457840   1.4905624   7.4796456
  46.7161036   1.4238630   8.3757997  47.6129532   2.2615670   7.4898553
  66.2034988  44.2558289  21.6445351  65.7902288  44.9908352  22.0975327
  65.6394768  43.5071898  21.8385816  30.5995464  24.6346283  21.8339300
  30.5917931  24.0936804  22.6235795  31.4214849  24.4100285  21.3978052
   8.1589997   4.0077215  16.2578571   7.5152284   4.5367041  16.7289913
   7.8385031   3.1096700  16.3416255   7.8959768  55.3428915  20.3060990
   8.1863515  54.8193386  21.0529595   8.4684007  56.1100248  20.3143387
  61.2065363  26.4186788  15.4672992  60.9950066  27.0022988  16.1959100
  61.6824150  25.6933236  15.8718145  21.8503070  21.2076664  29.9966264
  22.5580215  21.8222284  30.1907563  22.2351456  20.5868745  29.3779588
  37.7324466  56.9951156  28.5347085  36.8510644  57.1941999  28.8505607
  38.3124106  57.4813131  29.1207843  63.3281569  65.7210902  59.9361809
  64.1342501  65.7124737  59.4200694  62.6882653  66.1573985  59.3736828
  33.0954777  43.0590144  56.2628963  32.6790009  43.5428634  55.5496853
  33.4412651  42.2694060  55.8467459   9.1896445  35.4179502   3.5178688
   8.6187494  36.1113644   3.8487580   8.6270082  34.8978996   2.9440922
  25.6410336  30.2521014   8.3878523  26.0182428  29.3733454   8.4294999
  25.2091241  30.3677082   9.2342097  36.7329288  29.4515824  22.3513889
  37.0922613  28.7364841  21.8262720  37.1567369  29.3586040  23.2046008
  57.4499464  33.9593792   4.3821964  58.3368397  33.6582732   4.5796463
  57.0427513  34.0835905   5.2395159  32.8289461  39.6984935   1.9791196
  33.5691929  40.2880764   2.1228506  32.7697539  39.1872144   2.7861646
  34.3989778   5.7884991  33.8469315  34.1688442   6.5557486  33.3229089
  34.3224692   5.0522470  33.2400441  43.9275837  29.5788407   2.0481239
  44.6783161  28.9872575   2.0997240  43.3481026  29.2925858   2.7541637
  35.2386117  39.0726566   7.8215045  34.8402190  39.9253511   7.9959404
  36.1209822  39.2791104   7.5132364  57.9890776  24.7588634  15.9755051
  57.9109192  25.1185036  15.0918865  58.9275932  24.7836828  16.1620522
  18.6251724   8.1685913   9.3388182  19.3067730   8.0347365   8.6802304
  18.8610828   8.9933789   9.7634423  36.7004800  50.4112816  14.8442924
  36.7596102  49.4688749  15.0011480  37.2809720  50.5669785  14.0992951
   4.9844697  40.8456755  28.3573604   5.7241207  41.4479971  28.2776523
   4.2111728  41.4036798  28.2744551   1.4704083  43.0771685  26.3273644
   1.6427769  42.6977491  25.4656434   0.6545956  43.5651636  26.2153649
  24.3476605  13.9252019  37.5205421  24.6673274  14.6945238  37.9919100
  23.4768915  13.7658930  37.8847075  55.6801558  13.5244322  21.1754465
  55.1101589  14.2738557  21.3477826  55.4100895  12.8659260  21.8155003
  18.8044202  21.7762208  29.0529585  18.8748205  21.6598916  30.0004506
  18.1155944  21.1669493  28.7873697   5.6997091  20.2030444  26.2536597
   5.9256715  19.4229770  26.7602849   5.5612487  20.8842254  26.9117260
  31.9896063   1.4375411  59.7785527  31.9295868   1.4600431  60.7336041
  32.6165327   0.7380592  59.5943796  26.1922455  23.9703369   1.3000742
  26.7488480  24.4115210   1.9417761  25.3039360  24.0761042   1.6405940
  41.0134125  62.0612812  26.9481230  40.9849119  61.1112595  27.0616150
  40.8820391  62.4117851  27.8291011  22.9396605  55.4088306  23.6172342
  22.2655916  55.3950500  22.9377723  23.1469750  56.3364649  23.7301636
  35.2593017  31.1863279  20.4989028  35.6797886  30.6954765  21.2049389
  34.8185873  31.9119072  20.9410977  21.5993948  63.6111930  53.2058304
  20.8248953  64.1643551  53.1038712  22.3343195  64.1866425  52.9937505
  73.2572610  20.3121686   1.7364162  73.5923659  19.5469737   2.2037643
  73.9833150  20.5880713   1.1769921  17.8394222   3.8669288  17.3106825
  18.3626664   4.4586739  17.8513169  18.1959891   2.9975510  17.4930942
   8.8746755  63.8245490  34.0048819   9.7775082  63.5337380  34.1335445
   8.4596912  63.7023404  34.8587470  69.7452478  60.6390932  46.4069181
  70.0127534  60.5947474  47.3249083  68.8225727  60.3844241  46.4137440
  46.5840808   6.6985114  51.7328215  45.7672707   7.1971495  51.7123795
  47.0324031   7.0054324  52.5208807  21.4558458  12.7778351  14.0903568
  20.7522297  13.3415699  13.7688613  22.1523714  13.3841622  14.3422472
  18.7625277  49.9210787  10.7330835  18.7128103  50.4385185  11.5368354
  18.1062603  49.2340660  10.8495343  73.6140470  23.2005978  21.2144852
  72.9896918  23.7406826  20.7300043  74.4727322  23.5175443  20.9344220
  14.3789896  14.7486459  56.8094849  14.5280322  14.1292106  57.5238531
  15.0988659  15.3753625  56.8817960  15.6618166  43.0795527   4.9825445
  15.2808142  43.0517960   5.8602107  15.6461215  42.1696711   4.6857387
  41.7806530  12.7331257  47.8346109  41.0965490  12.9243529  47.1929979
  42.0390987  13.5908043  48.1719923  47.0339632   6.0307336  20.3413343
  46.5667868   6.4039147  21.0888052  46.4184475   5.4025215  19.9635541
  19.4458950  19.0110791  15.0265014  18.5432386  18.7699413  14.8184216
  19.6154022  18.5970831  15.8727324  32.5595125  58.4799282  16.2621927
  31.7172607  58.9242689  16.3591444  33.2042726  59.1206770  16.5621245
  29.5687708  22.9104816  45.6672781  28.9642414  23.1142341  44.9536543
  30.4300483  22.8814183  45.2506333  48.1593847  37.8040099   6.0176772
  49.0793657  38.0682492   6.0245317  48.0895805  37.1985650   5.2795750
  26.7676830   1.6409108  22.1390963  26.4763737   0.9391247  22.7212214
  27.1587491   1.1863679  21.3929820  19.2866453  57.1020298  23.5358930
  19.5651802  57.6492815  24.2701721  18.6088594  56.5348391  23.9034963
  21.6942723  56.4480499  58.8879930  21.3677384  56.0363820  59.6880787
  20.9423755  56.4501146  58.2956432  30.5571294  14.2556500  34.0008140
  30.1611376  15.0139642  33.5714197  30.8548641  13.7006450  33.2800102
  42.0817280  17.5151742  42.6143456  42.8928089  17.6106179  42.1150780
  42.2635841  17.9434609  43.4508467  71.5341445  69.8271222  19.7406077
  70.7535025  69.3789656  20.0661659  71.8270751  69.2923959  19.0027118
  34.5143890  41.0800600   4.6764466  34.9624109  40.2778053   4.4083190
  34.8573256  41.7536306   4.0891385  73.3878803  23.1164718   1.9656439
  73.0989302  23.5910869   1.1862333  73.3759264  22.1959019   1.7036502
  40.2641201  39.6849656   1.8752797  39.8397422  39.4422364   1.0523465
  39.7980118  39.1814995   2.5427356   3.5223501  51.4780513  46.0115771
   2.7033679  51.5225211  46.5050547   4.1504590  51.9644144  46.5455847
  56.0656337  49.1955629  53.1109702  56.0852174  48.2421211  53.0285238
  56.9134883  49.4827441  52.7720003   6.4258627  45.6977824  59.5113826
   7.1890215  45.1200113  59.5122231   6.2793581  45.9024146  60.4349050
  37.2359173  66.1920288  59.6111930  36.4254908  65.9337810  59.1721610
  37.4605422  67.0370487  59.2216881  16.0623932  46.9663191   1.4465372
  16.2871861  46.6105700   2.3062718  15.1438296  47.2233963   1.5264238
  74.3441293  44.1758585  23.2832408  74.8339065  44.9936724  23.1964517
  73.6766864  44.2226028  22.5987220  23.5961279  65.7870673  18.9321232
  24.3254265  66.3393192  19.2138577  22.8464636  66.3810606  18.8946199
  66.3625002  50.1815462   6.6681319  66.4858389  49.6581745   5.8762330
  67.1272182  50.7565451   6.6967207  63.5158523  10.4060994  57.2377877
  62.7934309  10.7855521  57.7381416  63.2498499   9.4997464  57.0828791
   4.3558726  28.4110188  39.9430060   5.2225775  28.4777379  39.5422530
   3.9835364  27.6090598  39.5763159  43.4070635   7.2823656   9.5414078
  42.9368114   6.8751580  10.2689207  42.7509022   7.3673314   8.8496995
  26.9272852  14.8092723  14.2899477  26.0058641  14.5587552  14.3567133
  27.1753001  15.0500906  15.1825440  40.3777409  25.7083797  16.4861405
  39.8108864  25.4659796  17.2183621  41.2229156  25.9022427  16.8915153
  55.2329588  45.5812168   6.6114742  55.6895733  45.9316921   7.3762608
  55.8611727  44.9792147   6.2125075  36.6257954  46.5375471   6.8186659
  36.9686985  47.1826982   6.2002611  35.6757236  46.5851212   6.7122173
  73.5889787  51.3803959  23.0397296  74.4462965  50.9766245  22.9047918
  73.3367696  51.7019558  22.1741533  28.0056691  34.8741436  26.3545036
  27.7732706  35.7729602  26.5876389  28.8060331  34.9603510  25.8366084
  33.8504934  33.2729506   9.0133208  34.6006227  33.3574581   8.4247661
  33.0871654  33.3664179   8.4433883  18.0570269  26.6414928   5.6070757
  17.8613234  27.5597024   5.7936859  17.6564002  26.4800239   4.7528753
   0.6785600  42.9263094  53.9460730   0.3759448  43.7588445  53.5833888
   0.0455253  42.2824356  53.6283862  40.0824881   1.6446686  41.4271593
  40.4655743   0.9478642  40.8942986  39.6951914   2.2466980  40.7917118
  26.7078328   9.9138016  14.0933466  25.8322310  10.0655603  13.7376440
  27.2047639   9.5512718  13.3599544  11.5548643  58.4202127  18.5019374
  10.9699472  58.8787071  17.8987074  11.0069545  57.7428453  18.8984239
  33.9184546  14.5460606  17.5223863  33.5605645  13.7668467  17.9477954
  33.6636710  14.4559813  16.6041255  32.8950500  12.5827932  33.4914875
  33.3813381  12.5379038  32.6682377  33.2194376  13.3757603  33.9183450
  27.2250017   2.8130232  54.5845901  26.7037233   3.5391842  54.9269288
  27.3846134   2.2535502  55.3446852  22.2074847   1.0793260  36.3316350
  21.4074100   0.7912973  36.7711263  22.1885435   0.6347612  35.4841476
  37.8689408  30.4117942   3.6370122  37.6947665  31.2059975   4.1421202
  37.0559549  29.9095869   3.6924303  45.6642628  57.5922966   2.5158283
  45.5412149  58.0211115   3.3627093  45.2519131  56.7347002   2.6194477
   9.6824881  67.8755359  10.1700783  10.6019874  68.0465207   9.9663299
   9.6956392  67.0590238  10.6694448  12.0221460  24.2572594  21.6548967
  12.8261852  23.8648057  21.9950914  11.5221608  23.5176969  21.3095117
   7.2940815  18.6287642  22.6890206   7.1598518  17.8272152  23.1947207
   7.4319828  19.3081284  23.3490801   9.1254193  21.3880730  36.5256882
   8.8739109  21.7666364  35.6832719   8.8683832  20.4682827  36.4612389
  15.5475219  60.9991620  15.3468001  16.1204418  60.7350074  16.0666704
  14.7469076  61.3006727  15.7761478  12.3038805  50.6375980   2.2946881
  11.6698837  51.0167265   1.6859661  12.6044703  51.3791132   2.8200781
  72.2275420   5.5043470  57.8211211  73.0307933   6.0199319  57.8931754
  71.5240808   6.1532508  57.8381740  46.0894108  21.1911869   8.8473046
  45.5616188  20.3943658   8.8996959  46.3726997  21.3504601   9.7476441
   5.2126392  11.1153566  55.1259284   4.7968920  10.3386270  55.5002003
   6.0654219  10.8065950  54.8198896  61.0916817  21.3578701  10.2584410
  60.7135093  20.4795766  10.3010952  60.3480744  21.9455743  10.3921664
  26.0095167  10.9227264   9.0978092  26.8844247  11.0276616   8.7239689
  26.0480928  11.3897657   9.9324453  67.3831349  47.0466185  24.3472624
  67.6484418  46.2981987  24.8817825  67.1957922  47.7391195  24.9809623
  67.9980749  28.5361814  29.5226645  67.2068524  28.6434698  30.0505733
  67.6810115  28.5018277  28.6201549  24.4015050  33.5914993  15.6988907
  24.4387770  32.7823710  16.2089431  23.5574675  33.5524297  15.2491033
  17.7118871  50.0784470   3.0566711  17.8406302  49.1369368   2.9417152
  17.4211601  50.1714255   3.9639015  31.1025596  19.8408115  28.3602071
  31.6726017  19.2061865  27.9260015  31.4573002  19.9145269  29.2461848
  48.1646291   3.6548741  10.8454895  48.6453430   4.4795783  10.7747030
  47.3938028   3.7786563  10.2916527  41.9814491   6.3883287  11.9601917
  42.7522087   5.8702886  12.1921360  41.3494110   5.7460028  11.6374290
  16.7152536  24.1306734  26.7433262  16.2169349  24.9231386  26.5435624
  16.6758668  23.6137652  25.9386611  45.5145502  62.7247334   3.3274731
  45.3935575  62.0337629   2.6762027  45.5301332  62.2634220   4.1660312
  56.2349796  21.1622095  12.5889170  56.1122274  20.7528806  13.4454310
  57.1347713  20.9440804  12.3459601  18.3069599   9.8215187  38.0437660
  18.1153798   8.9005834  38.2209826  17.5896835  10.1111877  37.4799943
  22.6899370  21.1213599  56.6386210  23.0478605  20.2352582  56.6928529
  21.7708143  21.0240661  56.8875836  27.3972702  57.7482033  26.1004472
  26.7488098  57.4320745  25.4713225  28.0891085  57.0868969  26.0840535
   3.6768001   9.0268183   3.9217344   2.7603751   9.0168726   4.1979566
   3.7044826   9.6623230   3.2064724  31.9127463  58.5430005  56.2627180
  32.7434508  58.4805969  55.7912653  31.9848816  57.8934506  56.9620835
  24.8633885   3.6198267  21.6237617  24.2509890   3.0253148  21.1904573
  25.5790710   3.0553091  21.9159102  35.6659405  50.5884734  58.1021189
  35.9335379  49.6931198  58.3093961  34.7612218  50.6452945  58.4095090
  68.2815723  62.0452526  49.9619715  67.3889808  61.9888309  50.3030484
  68.2843237  62.8399876  49.4284730  23.0857612  51.6207972  56.3071202
  24.0226453  51.4387420  56.2340723  22.6777838  51.0372678  55.6673711
  73.2546755   1.5372096  51.4403473  73.5934492   2.2097527  50.8494585
  72.5498720   1.1177622  50.9468441  32.0736337  39.6029282   7.5476253
  31.9703507  40.3010798   6.9009829  32.9225993  39.2108512   7.3432565
  17.7029955  29.1294169  24.9690676  17.0368958  29.2386508  25.6477523
  17.6736844  29.9463105  24.4710183  10.7256341  22.8174806   5.4668117
  11.3832390  22.9303026   6.1531484  10.3652537  23.6942387   5.3339475
  21.4285120  56.1693184   2.2532092  20.6681999  56.0088067   2.8121257
  21.8967470  56.8837552   2.6851481  37.5154066  28.1167126  26.9539857
  36.7729545  28.7202883  26.9803286  37.1191192  27.2470593  27.0077538
   5.2884001  34.0609908  18.2566106   5.5893064  33.6981893  19.0897155
   4.3645716  34.2639661  18.4034896  16.1427724  30.1515532  14.1294217
  15.3596056  29.8036718  14.5558715  16.1253214  31.0885715  14.3241537
   7.8510672  45.5470562   1.7738615   7.4610919  44.7019625   1.5503304
   8.0936247  45.9294653   0.9305588  61.9433308  23.2645273   5.4053158
  61.8173933  24.1704917   5.6874520  62.8096247  23.2586765   4.9982113
  52.3414520  61.9773011  17.5367129  53.1774732  61.5261392  17.6539898
  52.1812435  62.4069898  18.3769107  19.0669930  29.2384028  39.2504930
  18.3102918  29.3271685  39.8299384  19.7410464  29.7874928  39.6509743
  17.0172262  24.2306709  39.4104457  17.8048670  23.9016294  38.9773345
  16.9885433  23.7613273  40.2441883  19.5940268  10.9093511  10.0061858
  18.8989127  11.4688504  10.3526068  20.2988505  10.9764051  10.6503606
  48.3160095  48.1984416  52.1792691  48.2378130  49.0914872  51.8437319
  48.4910588  48.3082131  53.1139021  17.7884054  27.0809793  21.4734769
  17.3348761  27.9154992  21.5922928  18.2484496  27.1750331  20.6393623
  11.6840466   9.2773162  32.1620469  11.2092551   9.9382316  32.6660257
  11.1576828   9.1547357  31.3720160  54.8485427  41.7053631  60.4813996
  54.5758514  42.5660667  60.7992995  54.6631746  41.7270264  59.5425696
   8.8988241  69.0490122  35.0435495   8.6632498  69.2975756  35.9373903
   8.7482318  68.1043254  35.0100732  21.4129639  46.4626122   2.8323430
  20.8542919  45.9387398   2.2581682  22.1817803  45.9131718   2.9848811
  15.0210365  56.3403229  13.1414115  15.6673750  57.0463483  13.1388223
  15.2676614  55.7871084  12.4002230  38.3378172  16.3209641   2.1394226
  38.3607435  15.8855510   2.9915500  37.9090619  15.6910884   1.5600635
  67.2433214  40.4435513  60.8653245  67.7564268  39.6358463  60.8891226
  66.3334636  40.1483512  60.8299354  17.9699731  20.9622383   1.3515474
  17.5572026  21.1570525   0.5101793  17.2371268  20.8165288   1.9498253
  19.8002887  57.5454187   9.6074241  19.3740916  57.1512461  10.3684866
  20.2552795  58.3112860   9.9576461  22.6458001   1.8293072   0.3034036
  23.4912229   2.1951221   0.5635406  22.0625567   2.0299944   1.0353753
  29.9547982   2.5457615  29.0288496  29.2352033   2.9662395  29.4996071
  29.6089315   1.6891176  28.7783098  37.1579719   8.8674420  15.9990084
  36.5262890   9.2678320  15.4016006  37.9783940   9.3285495  15.8243144
  30.7869148  33.8596702  15.1259351  30.6265593  34.2993784  14.2909658
  30.0240874  33.2948279  15.2495527  73.2443162  69.7523408  45.6313562
  73.6169310  70.4422457  45.0823355  73.9684769  69.1430295  45.7747507
  18.7626076  25.1256800  50.9209156  18.3194196  25.3068566  51.7497635
  18.9010334  24.1785526  50.9253597   5.8933648  56.6795139  30.9298682
   5.1898678  57.1064119  30.4409051   6.3861402  56.1955099  30.2671862
  11.0298602  30.6755939  55.7505350  10.6310813  30.0217405  55.1763539
  10.6221692  31.5020782  55.4918002  36.9080830  47.7321863  15.0282395
  37.7113843  47.2988319  15.3165817  36.4118552  47.0452356  14.5831680
   4.4683307  27.5200009  50.4742050   4.6018204  26.5850115  50.6297874
   4.1806352  27.8647900  51.3195372  56.3185157  12.9091512  45.2759152
  56.3137849  12.6777516  44.3471186  56.2852575  12.0684539  45.7323735
  14.7392511  38.6520386  24.2933822  14.5968366  38.6366487  23.3469605
  13.9504814  38.2531905  24.6607971  69.0066522  37.9323220  21.1330819
  68.3258694  37.2979236  20.9087944  68.5720926  38.5533810  21.7176127
  40.3145313  30.3053856  14.9470162  40.6393862  30.5614209  15.8102357
  40.5272102  29.3747091  14.8774338  70.5113058  46.1322692  46.0768013
  71.3583545  45.7919303  45.7888584  70.4417257  46.9890264  45.6556623
  54.1947142  28.6359282   5.3442783  53.3564273  29.0497227   5.1386614
  54.3559448  28.0435820   4.6098633  31.8761778   0.4994527   0.8053377
  32.7657723   0.6430500   1.1281909  31.6756558  -0.4040679   1.0496178
  60.1621485  10.2663898  19.5577812  60.6945229  11.0210812  19.8092711
  60.7946873   9.5599747  19.4270170  18.5140121  42.8982067  24.0680003
  18.2414973  41.9808531  24.0470886  18.3605707  43.1730986  24.9719501
  26.5572262  34.2864990  23.8386559  27.0035529  34.3444586  24.6834445
  26.0250497  35.0808668  23.7939405  21.2657579  10.5864440  45.3812783
  20.8478626  11.3475572  45.7841520  20.6584676  10.3164111  44.6924298
  57.3610644  65.7754210  47.8758030  57.6373581  64.9625257  48.2990008
  56.4372735  65.6352571  47.6679580  32.9621633  16.5502511  58.9068349
  32.1331438  17.0280610  58.8812449  33.4258922  16.9153749  59.6604069
  34.3510509   3.1305221  56.6562462  35.0801516   2.8403723  57.2043896
  34.3252230   2.4985263  55.9378147  61.0507135  46.9866577  60.8479042
  60.2013330  46.9574145  60.4075292  61.4130406  46.1088410  60.7279573
  21.6441178  17.6697159  14.0632725  20.9040737  18.2465637  14.2525148
  22.0464349  17.5084329  14.9167132  31.6400766  33.0780268   7.5888062
  31.1654544  33.1589770   6.7615128  31.0426664  32.5971627   8.1616092
  35.4494309  11.7017305   8.2036936  35.0107598  12.5184977   7.9655993
  36.3809228  11.9220710   8.2062525   4.0833815  65.0845109  23.7853479
   4.1781529  65.9437995  24.1962910   3.3362158  64.6864824  24.2320561
  23.2012177  49.9239826   7.0162803  23.0978274  49.6996784   7.9410666
  22.5308990  49.4080353   6.5682888  14.2932701  29.8471403  23.4051681
  14.9841332  30.4079652  23.7578964  13.6148846  29.8493075  24.0804601
  29.4307423  52.4594116  15.9039998  29.4038248  52.5257206  16.8585205
  29.6421385  53.3448935  15.6082630  32.9027891   6.9533753   2.6598063
  32.2909093   6.2867862   2.9720503  32.5928164   7.1699303   1.7804579
   8.2807899  23.3220315  17.3031354   7.6476586  22.6222682  17.4634767
   7.8027391  23.9610934  16.7746460  41.0462093  36.2271953  12.1347725
  41.8898630  36.6073251  12.3796904  40.7569838  35.7607174  12.9189777
  61.1531162  51.6326857  17.5926900  60.3096771  51.9974232  17.3247242
  60.9890938  50.6944180  17.6874161  29.5584059  54.0336514   8.9873213
  28.8672876  54.0218496   8.3251667  29.2960906  54.7251177   9.5950186
  32.7133624  69.7309640  56.8063532  32.8602664  70.6256679  57.1132039
  31.7867439  69.5668104  56.9814571  14.5702362  70.0299168  17.0261061
  14.6105027  69.1198206  16.7322779  13.6386931  70.1927996  17.1741867
   7.3306044  16.3533269  50.1755731   6.4055690  16.5759717  50.2803116
   7.3882254  15.9759532  49.2977910  65.0052528  45.7655409  55.2782183
  65.8998708  45.7366076  54.9390160  64.5568733  45.0466272  54.8328554
  12.6974249  41.0634851   1.0945820  12.3210716  41.9192982   1.2999503
  12.0040059  40.4393053   1.3085927  38.2652879  42.4170732   3.9656261
  38.4939241  43.0370855   3.2731405  38.9003563  42.5894880   4.6607471
  36.1792803  23.3049631  15.2193618  35.8291984  24.1671848  15.4435182
  36.0923934  23.2512164  14.2676294  31.3004446  62.8109741   0.8327498
  32.2056794  62.8063679   0.5216849  31.0758066  63.7388372   0.9023169
  73.9988737  59.8100236  60.1023328  73.4308557  60.4224327  59.6348496
  73.5739259  58.9591387  59.9944141  25.1355203  22.5529491  52.3282020
  25.6925281  23.1189357  52.8626518  24.6911319  21.9881736  52.9604821
  30.9662962  50.2062082   5.4248923  31.2592649  49.8208523   6.2506664
  31.4292789  51.0423946   5.3732175  22.5040460  16.4616692   1.7892550
  22.1793652  16.8889880   2.5818542  22.7037239  15.5668271   2.0642406
   2.4729650  62.5438383  58.7396943   2.5588529  61.5961150  58.8430118
   1.5487687  62.6791790  58.5304578  66.1273193  37.0462513  21.2703085
  65.6885195  37.8901839  21.1632347  66.0944223  36.6471791  20.4008889
  40.9146214  37.6242304  25.8534622  40.2408648  38.3032727  25.8878946
  40.4766512  36.8357873  26.1740398  49.6659040  23.4058595  15.6616068
  49.8333120  22.5083613  15.3740239  50.0552940  23.4541774  16.5346885
  33.7311459  49.1540432  16.1944771  34.6883225  49.1500521  16.1893570
  33.4979224  49.7406054  16.9140494  37.0999217  25.2610207  24.2952228
  36.3021398  25.7562256  24.4810867  37.5982237  25.8234000  23.7022161
  72.8439073  55.8580378  38.0166035  71.9302921  56.1427477  37.9947477
  72.9031782  55.1905373  37.3331099  52.1462965  55.8328056   1.9320078
  52.6756239  56.5131760   1.5159017  51.9018459  56.2044001   2.7795905
  74.7969970  66.7733431  22.1541476  74.6209446  65.8469343  22.3184729
  74.4941418  66.9194031  21.2579465  30.5316257  67.6702118   5.4693431
  30.6360960  68.5835314   5.7361180  31.2880301  67.2221041   5.8478713
  69.1447210  19.1871428   4.0790069  69.7009754  19.8805058   4.4340593
  69.7584343  18.5599351   3.6966470  43.9461927  69.6497944  59.4527516
  43.6968498  68.7596467  59.2043606  43.7597029  69.6979478  60.3903733
  36.4220071  14.1387761  22.9020143  36.8305802  14.8610008  22.4248433
  35.5730700  14.0201449  22.4760270  30.8113607  35.9403812  59.3837342
  30.4097542  35.6004726  60.1833656  31.4977630  35.3074800  59.1727321
  72.9053526  67.4692777  60.8182030  72.1169118  66.9924644  61.0775149
  73.3130531  66.9143489  60.1533209  64.4243383  42.8823614  12.1869493
  64.1584158  42.9099894  11.2678444  65.1814604  42.2968388  12.1997333
  20.1131082  13.7268782  30.3793025  19.6836209  14.5682025  30.5340481
  20.9161735  13.9508331  29.9090242  36.1722350  31.9884086   1.5884709
  36.8865705  31.3539696   1.5297903  35.3771901  31.4628124   1.4996745
  52.4541192   4.7577058  53.9342730  51.6794612   4.2064844  54.0451490
  52.8831082   4.4131862  53.1510054   6.6897138  37.0476066  53.9557903
   7.0309695  37.5585519  54.6897601   6.9593271  37.5360929  53.1780236
  20.0379770  46.0714844  58.1838732  19.8187511  46.9877294  58.3531808
  20.1113860  45.6781510  59.0534315  24.1226435  40.7469130  10.2559376
  25.0276780  41.0585880  10.2584648  23.7251115  41.1594629  11.0227513
  56.8134880  26.9795251   1.5873449  56.1891413  27.1612740   0.8849280
  56.9270039  26.0292983   1.5669657  31.8210816   7.1757084  22.8773236
  32.1819353   6.5040821  23.4560585  32.4928808   7.8571248  22.8530884
  58.5166216  18.8956654   9.0826344  57.6178312  18.6288762   9.2755806
  59.0304470  18.5527706   9.8138249  36.5744805  37.6897621  22.9101801
  37.3716664  37.5891733  22.3899817  36.8527913  37.5201917  23.8101912
  20.5117965  42.7500820   3.3108467  20.1423526  43.6307430   3.3754668
  21.3674331  42.8787374   2.9014984  45.0412369  46.1119604  12.1666825
  44.5537853  45.7131910  11.4458454  44.4824457  46.8292570  12.4657929
  30.5940986  31.9363308  12.8352046  31.4928842  32.1989059  13.0338800
  30.1630688  32.7458954  12.5612497  65.1693249  36.0016012  23.9625883
  65.6353045  36.8246603  24.1098046  65.3679419  35.7730246  23.0545497
  42.5639534  14.7737634  19.9751508  43.0595064  15.4620934  19.5314646
  41.6611767  14.9033380  19.6845734  23.1092279  41.6772518  59.1773193
  23.3370654  42.5874207  58.9878059  23.8476531  41.1702457  58.8398256
  72.5855142  17.1715498  36.7862177  72.2309354  16.5869188  37.4560785
  73.5163620  16.9522750  36.7453194  51.6473389   0.6140018  18.3065891
  51.6924095   0.0637570  17.5246489  51.0819817   0.1294977  18.9081371
   3.4287509   1.7020641  59.5107258   4.0421876   0.9958731  59.3076963
   3.1924518   1.5580045  60.4270453  18.6186302  11.0650754  17.4032342
  18.8951838  10.2035046  17.0910716  18.6977100  11.0114765  18.3556557
  59.3065786  45.8850908   7.0554817  58.8630104  46.0764027   7.8818476
  59.8900890  45.1545048   7.2603953  72.1974662  54.8931408  26.5203500
  73.0719459  55.2287483  26.3231564  71.6111329  55.6249619  26.3282943
  69.0452938  68.0699566  60.2715252  69.6263151  67.3298648  60.4473324
  68.3007125  67.9343990  60.8575786  32.9264688  38.4097409   4.5273018
  32.0417547  38.1293273   4.7615734  33.5012126  37.7949691   4.9833241
  20.4868579  35.8062315  18.8109565  19.5386589  35.8471751  18.9353490
  20.5980444  35.4170132  17.9435599  34.4925141  43.9986229  30.8252025
  33.9179277  43.4335995  30.3086495  34.2458558  44.8878145  30.5707741
  60.5004283  23.6982261  52.4782639  61.4124413  23.5876046  52.7470141
  60.2989360  24.6109306  52.6846616  33.7653208  17.9473019  20.6020164
  33.1687546  17.2600782  20.3052545  34.4026661  17.4905622  21.1510253
  63.6787701  38.0634260   4.3981269  62.8678799  38.1803489   4.8931202
  64.0590048  38.9405823   4.3506682  62.8720760  39.8229051   9.3814099
  62.2533083  39.5242333  10.0478578  63.1795406  39.0189815   8.9625943
  38.8556004  37.9720020  21.2330055  38.6288095  37.5629616  20.3978515
  39.7426128  37.6633215  21.4178324   3.6096057  37.9897118  31.1832452
   3.6937985  38.3796930  30.3131533   4.5037112  37.9700756  31.5244508
  58.3991909  32.8890252  17.8738403  58.3128881  31.9357657  17.8826284
  57.5463104  33.2094502  18.1673670  34.0757155  33.5569143  22.1114397
  34.2619967  34.2533803  22.7410960  33.1525230  33.6762357  21.8884754
  36.5093184  35.9436107  11.1748767  37.1460724  35.2324605  11.1038768
  35.8741975  35.6328964  11.8200970  24.5981793  11.0204919  29.2988849
  23.8119320  10.5575211  29.5881987  25.3082613  10.3923638  29.4310570
  51.4335346   6.0879999  25.5478787  52.3059702   6.4528781  25.6960535
  51.4476395   5.7961243  24.6363735  53.9440159  39.1401711  60.4110818
  54.3249278  40.0180289  60.4335251  54.6454386  38.5832939  60.0732558
  34.0754709   7.0449813  26.0135579  33.6530159   6.7837413  26.8317962
  35.0114564   6.9362338  26.1818957  71.9630452  31.2722741  56.8798055
  71.2015220  30.7605468  56.6069486  72.4876662  30.6627618  57.3989432
  39.3839097  29.8556948  27.9153848  38.8685727  29.1979456  27.4484539
  38.9772010  29.9089408  28.7802458   0.3964603  18.4445620  22.9033995
   0.8820284  18.4713161  23.7278628   0.2585733  19.3642485  22.6766920
  42.4893808  28.5180616   5.0825757  43.2109785  29.0073824   5.4776555
  41.7050934  28.8588405   5.5126905  54.5995073  65.1896051  43.6222987
  55.1355342  65.2365068  42.8306501  55.0735430  65.7182792  44.2641907
  24.0843511  22.9076362  18.9014041  24.7737050  22.5341034  18.3523178
  24.4042301  22.7957940  19.7966135  68.9709441  15.1666768  38.4703755
  68.6019770  15.9163602  38.0033970  68.2269589  14.5803101  38.6078167
  19.1893888  23.2307577   2.2339308  18.7488687  22.4749994   1.8453375
  18.9320540  23.2101727   3.1556615  13.1554544  66.4269400   4.1305134
  14.0959680  66.5946674   4.1899467  12.8850186  66.2567902   5.0328135
  26.1417532   1.9807088   9.6128470  26.9722605   1.8911451   9.1454411
  26.2424231   2.7805373  10.1289594  58.4009600  57.6022911  19.3918061
  58.8280487  58.1138849  18.7047124  58.8720179  57.8353596  20.1918149
  37.0499611  22.0437884   5.5491704  37.6657152  21.9392109   6.2745261
  36.1942244  22.1221685   5.9708393  11.8245761  54.6269420  37.9284244
  11.2685315  55.2382294  38.4115129  12.2584598  55.1679591  37.2686701
  46.8405565  11.7847978  48.6258261  46.7200311  12.3651563  49.3774181
  47.7779802  11.8286143  48.4372871  50.1797581  18.9936125   4.0039614
  50.8317327  19.1225493   4.6928272  49.5913792  19.7439802   4.0875739
  24.8481488  38.0613017  14.3173659  24.8661423  37.3774052  14.9868393
  25.7680964  38.2888532  14.1826439  29.0864277  35.5774665   7.0167470
  28.9613247  36.3121343   7.6174486  28.4036684  35.6899238   6.3553643
  34.2790731  -0.2949799  55.8008712  33.6350807   0.2831732  55.3919153
  35.0934013   0.2079974  55.7902109  13.4199914  13.6527978  48.1717031
  14.0429410  14.3020259  47.8450995  13.8083633  13.3375751  48.9878135
  22.7169609  13.9847004  29.3611670  23.4699130  14.5003557  29.0723825
  23.0945086  13.2933760  29.9050045  60.1665886  12.8171884  23.3657246
  59.3196829  13.1362067  23.0539398  60.6267150  13.6044751  23.6567478
  59.0798759  12.1488035  25.7394361  58.3613873  12.7723897  25.6338644
  59.4638014  12.0755839  24.8656702  42.5686312  16.1737084  14.3786597
  42.3942757  15.6132054  13.6225724  41.7360735  16.6151571  14.5466125
  18.2755494  42.1153784  16.3439977  17.7081323  41.3446045  16.3305509
  19.1619647  41.7592144  16.4044154  25.9276076   1.2936290  17.4617529
  25.8330400   0.3413518  17.4405098  25.0310547   1.6218884  17.5300992
  23.5356641  59.8743486  16.7309475  23.4218001  60.6209564  17.3190320
  23.9031029  60.2525568  15.9320867  34.3163848  22.3152447   5.4605860
  34.4449139  22.3060489   6.4090729  33.9035988  21.4736819   5.2666509
  43.8272079  68.0229200   9.9022382  43.3279070  67.2100152   9.9804586
  44.0037235  68.2835102  10.8062112  42.3022588  26.4217864  55.3706806
  42.8890403  27.1436797  55.1453178  42.3358806  25.8398543  54.6114330
  62.0502329  47.0932245   3.7299135  62.2057199  47.9237890   4.1796011
  61.2365675  47.2319508   3.2452098  21.7859340  54.1704416   4.3860364
  22.0641017  53.6677074   5.1516169  22.5447536  54.7106647   4.1656116
  68.2316303  14.6338069  18.2947469  68.3958960  14.9156570  19.1946411
  67.5812149  13.9363813  18.3771479  64.3536035  16.7822964  10.2747583
  63.4462491  16.8094285   9.9711078  64.8408953  16.4089711   9.5403177
  17.3019025   2.2092183  14.0322554  18.2023475   1.8920214  13.9628553
  17.1198837   2.2096761  14.9719906  15.6018623  17.1391402  55.9087728
  15.8788570  17.2050725  56.8226429  15.0697097  17.9212724  55.7627742
  44.9635220  36.5324593   5.9962338  45.1244545  36.8071961   6.8989253
  45.3363323  37.2339845   5.4622817   9.0567812  22.7445851  23.2833581
   9.7536262  22.2614108  23.7274032   9.2903050  22.7035962  22.3559861
  71.3215583  29.9974537  24.9632621  72.1608826  29.6249175  25.2334166
  71.2676197  30.8307052  25.4312539  32.3877287  36.0336447   6.9659215
  32.8432465  36.5908313   7.5970155  31.9030333  35.4082704   7.5046313
  73.2521338  23.7238622  37.8586793  73.5493697  23.7732148  36.9501376
  73.0535820  24.6298599  38.0952764  71.5580606  38.1511235   6.8255711
  71.5454960  38.2482219   5.8733916  71.9181538  37.2764802   6.9724047
  40.5112457  65.6864691   8.7412882  40.8991146  65.0564241   8.1339711
  41.1433887  65.7493305   9.4573003   5.9441146  12.6169025  57.3246570
   5.4215773  12.4018060  56.5520512   5.5591758  12.0933782  58.0274915
  22.3427089  10.1812850  30.7397084  21.6937622  10.6891690  30.2527290
  21.9132599   9.3425475  30.9080320  64.7480249  45.0162792  17.5629199
  64.9652624  44.1312551  17.2700489  63.7911129  45.0395203  17.5657094
  62.1907377  59.1562414  10.1000583  61.7170000  59.8499918   9.6412456
  61.5379953  58.4692430  10.2349436  26.5154147  24.0453005   8.5434198
  27.2310138  24.5726800   8.1884241  26.1124587  24.6044636   9.2076457
  58.8346986  51.2165168  54.4806599  58.4630494  50.4661015  54.9443262
  58.4416608  51.1779347  53.6087279  31.0223516  60.6917392  11.1341536
  31.0903867  60.1238768  11.9017053  31.7203888  60.3919737  10.5518150
  69.4660159  64.4327103   6.8031663  70.0204416  64.7826348   6.1057448
  68.8873478  65.1587246   7.0361423  41.1556673  22.8790498   3.7220451
  41.9437933  22.3644638   3.8960826  41.0377789  22.8233051   2.7737695
  56.8462849  34.7022891  13.0509520  57.5203562  34.9538636  12.4196243
  56.3973713  35.5211592  13.2610905  47.0944405   3.2976311  16.9185030
  47.8514528   3.8577759  16.7470407  46.4919949   3.4819278  16.1978567
  25.2897501  39.5494914  24.6299219  24.9980283  40.4567671  24.5405674
  24.7077632  39.1747880  25.2910757  43.2142973  12.0587122  18.9560175
  42.4393129  11.5445876  19.1825223  43.0291653  12.9338324  19.2967820
  18.0787240  67.9285434  58.6893817  17.7155487  68.8137105  58.6608494
  18.0887817  67.7036551  59.6197343  26.8464923  28.8012218  11.6550469
  26.6514993  29.7382379  11.6405785  26.2214828  28.4361577  12.2814023
  36.1440134  63.6962986  18.8290036  36.8211150  63.5607481  19.4918692
  36.4836264  63.2608128  18.0471802  49.0514755  20.2610302  11.5628004
  48.8127708  20.8103156  12.3094845  49.6074390  20.8213305  11.0213208
  42.7527046  42.8873587  10.1245940  43.6773825  42.6587105  10.0301373
  42.7136850  43.8199139   9.9123460  15.1866865  50.7368088  27.9608536
  15.1634228  49.8286819  28.2625055  15.9434032  51.1178446  28.4063005
  64.5485882  33.5724332  58.9237936  64.1212635  32.7362660  59.1093953
  65.4607896  33.4374035  59.1804746  24.7963556  12.4443065  20.1527434
  25.4397043  12.7970658  19.5380144  24.1822179  13.1643735  20.2961712
  40.9142637  34.8755360   6.2747848  41.4467955  35.6466699   6.4697117
  40.6399536  34.5508671   7.1324420   6.9959053  44.8591624  54.0245806
   7.7553209  45.1958476  53.5490136   7.2772511  44.8355209  54.9391942
  69.0655737  57.8499177  56.0567223  69.0775327  58.3845952  55.2628653
  69.2826061  56.9679120  55.7547372  34.3572688  41.6285801   7.4777484
  34.7465324  42.4925661   7.6127744  34.2223549  41.5718460   6.5318036
  33.2024813  17.5877392   6.5846777  32.6593947  16.8061280   6.4828384
  33.4888887  17.5630939   7.4976921  38.2730829  54.0391493  13.6093783
  37.9076659  54.3329811  12.7748942  38.4824955  53.1160021  13.4673607
  64.5010193   9.2056571  42.1310918  64.4405242  10.1540052  42.0161312
  63.6381563   8.9482318  42.4557917  52.5789165  33.6508870  15.0027847
  53.2906532  33.3167839  14.4568586  52.5744152  33.0764318  15.7684290
  37.4013925  29.1393805  30.1177025  37.3026919  28.3290839  29.6177936
  36.6063023  29.6369720  29.9267483  71.0590664  12.8185113  14.4044471
  70.9460751  12.9940923  13.4702969  70.2117506  12.4749883  14.6877909
  70.5470324  32.0971775   2.5281632  70.6525517  32.6560140   1.7582282
  70.9510183  32.5924110   3.2407454  65.3389422   5.4798587   2.1467604
  64.5990387   5.8105262   2.6561096  65.6071345   6.2217410   1.6046202
  10.6695533  62.1814823  17.8347397  10.1674521  62.6162291  18.5240304
  10.0401485  62.0520735  17.1252787  27.7501106  46.4653063  23.5949421
  28.5794926  46.4042473  24.0688896  27.7982736  47.3033190  23.1348920
  34.1187644  33.2660270  18.5594738  33.7218714  33.5977149  17.7540612
  34.9263668  32.8408027  18.2710350   2.7579224  32.3456383  21.9182134
   3.0174175  33.2268023  22.1873713   3.5763985  31.9247842  21.6551375
  38.6494589  51.3220263  13.3146584  38.9756513  50.5022717  13.6859274
  38.8468242  51.2570477  12.3802829  12.0230159  36.1728011  46.2633352
  11.3086041  36.4612733  45.6953292  11.6306432  35.4985868  46.8180542
   8.0188974  38.7356483  51.8728255   8.8061770  38.8544999  52.4041407
   7.6176580  39.6041309  51.8415939  71.5817324  29.8154958  48.1067276
  71.6943947  30.7101376  48.4278917  71.4561049  29.9138577  47.1629238
  13.0637940  27.6010429  49.2064684  12.5994810  28.4136306  49.4073444
  13.6170443  27.4457894  49.9720018   8.7767729  12.6284610  36.6540914
   8.2008585  12.5238811  35.8967142   9.6175321  12.8932201  36.2809162
  57.2864437  51.9123697   4.6757984  57.2203541  50.9784889   4.8751259
  56.8686199  52.0046759   3.8195670  25.2315569  60.3248549  14.5804906
  25.7749772  59.7813892  14.0099037  25.8501768  60.9186172  15.0059187
  53.0365144  16.5057098  57.2102397  52.3319610  16.3929330  56.5721821
  52.7093296  16.0847913  58.0052303  17.3107839  24.7793365  10.0355732
  18.0392992  24.1921854  10.2374434  16.7497635  24.7400117  10.8101320
  40.2277422  33.3292294  16.2307727  39.6258712  33.3971214  16.9719720
  40.7930231  32.5880575  16.4483762  53.1813030  60.6639245  51.2041514
  53.2932977  61.3080600  51.9032787  54.0536503  60.5722359  50.8209603
   8.2289513  21.1083661  45.4975467   9.1521081  21.2279807  45.2745967
   7.9412898  21.9706737  45.7973879  40.4714108  64.4076157  12.5316751
  39.7281408  64.7704601  13.0134642  40.2114916  63.5082436  12.3321748
  34.6606001  36.4676629  57.4759870  34.0500148  35.7524644  57.6546179
  34.1615661  37.0789348  56.9341933  34.7709211  23.6648427  61.0422737
  34.9846443  23.6348926  60.1097203  35.0032552  22.7957498  61.3692743
   5.3669461  27.1878444  46.2486928   4.4889816  26.8092881  46.2945466
   5.4379805  27.7243482  47.0382195  46.6262341  37.8840446   8.3173496
  46.7306232  36.9338107   8.2684571  47.3601675  38.2319999   7.8108907
  46.5846109  37.2921467   3.2912439  47.2880459  36.7497230   2.9346165
  46.9919538  38.1455517   3.4395665  34.2610868  18.1091653  60.8689484
  34.1526493  18.9984189  60.5317504  35.1957020  18.0390607  61.0634079
  27.9155239   1.0056149  49.1898053  27.9603275   1.7060815  48.5389798
  28.3356413   1.3736926  49.9671405  25.1152468  41.2823582  21.5090084
  24.6088791  41.8765831  22.0628309  26.0187268  41.3890696  21.8066168
  10.9707439  70.0624943   4.9418220  11.4971817  70.8597040   5.0015134
  11.5171039  69.3843794   5.3391713  31.9088316  54.2226410   3.1878084
  32.8172851  54.2437029   2.8869763  31.7847562  53.3308840   3.5127825
  68.8488722  13.8651729   1.2033836  68.0041409  14.2996204   1.0853870
  68.6362362  13.0449677   1.6486724  30.4103470  51.5337467   9.6030933
  29.8689675  50.9333229   9.0906137  30.1548076  52.4048996   9.2997479
   4.5786337  15.2406247  27.3313951   5.0643019  16.0573895  27.4465251
   5.2554039  14.5744164  27.2114587  65.4900137   6.2588914  15.3063273
  66.1289755   5.7568438  15.8122039  65.4517380   7.1088107  15.7449663
  65.1919094  12.7389272  15.4040027  65.3614727  12.1370538  14.6792781
  65.2987257  13.6100323  15.0218976  49.1366426   9.5843442  44.9840498
  50.0685707   9.5863278  45.2025414  48.7729470   8.8595469  45.4925966
  42.9642344  70.3326559  24.8501039  43.7419367  70.3775883  25.4063296
  42.5024939  69.5484638  25.1468754  37.1083204   5.8924420  26.4423656
  37.3929552   5.4593928  27.2471523  37.5210813   6.7554267  26.4758754
  44.5030355  54.8107958   2.9875529  43.9264679  54.2486763   3.5050684
  45.1483393  55.1351118   3.6157545   2.6557020   7.3576005  13.2408953
   2.3182921   7.7261288  12.4244559   3.4911064   6.9592603  12.9966486
  54.0311233  14.0124543  17.3554325  53.6749879  13.2176621  16.9583118
  53.9910928  14.6671613  16.6583073  43.1844839  10.8422671  54.0789508
  43.6559614  10.5354797  53.3044665  42.2736009  10.5960809  53.9179777
   8.8963183  32.3913919  55.4100304   8.4201535  33.1279670  55.0266849
   8.6062201  31.6306459  54.9066984  56.1956215  21.2901974  23.1871128
  56.2933588  20.7209826  22.4237823  55.4935265  20.8873224  23.6979795
  45.1513243  52.7581263  14.5008576  45.3404093  53.0798578  13.6194003
  45.5485106  51.8876553  14.5284295  73.5737558  26.4872800  57.2833945
  73.2463094  25.8226787  57.8894626  72.7848836  26.8825256  56.9123243
  45.5792236  42.2669601  10.4996419  46.0906553  41.5289354  10.8312869
  45.8821678  42.3828459   9.5990717  16.2530248  70.0384382  39.8638110
  17.1624200  70.0418499  40.1625090  15.7850377  69.5309380  40.5268793
  31.3473988  69.8017454  25.8438778  30.6573653  69.4156599  26.3833475
  31.8368697  70.3621435  26.4460444   9.4406828  32.9133807  57.9588639
   9.2040762  32.4930440  57.1320840   9.4030055  32.2084676  58.6053209
   6.3811004  49.2478275  38.4429526   5.4754532  49.5217466  38.5878563
   6.3684166  48.8224792  37.5855446  10.7573402  43.0170012   1.2691677
  11.0372233  43.2997942   2.1397576  10.3287363  43.7861681   0.8937748
   0.2998245  23.0492592  39.7256231  -0.3144753  23.1308413  38.9960909
   0.6845272  22.1793222  39.6186590  23.6286592  51.6698170  12.3034501
  22.7467251  51.4395380  12.5956774  23.5366440  52.5475740  11.9328988
  65.9085369  34.1945124  21.8003297  65.8688974  34.6130848  20.9404135
  66.7011261  34.5492458  22.2030687  55.3713512  62.6530933  45.0862694
  54.7314167  63.3635521  45.1305580  55.2616882  62.2863054  44.2089605
  22.7596831  70.0427628  43.4503078  22.9509139  70.8013821  44.0018082
  22.7097201  69.3083429  44.0621662  45.7055235  46.5469313   9.3599290
  45.3118086  47.3681593   9.6545547  46.2850523  46.8030119   8.6424327
  10.7059034  14.4654046  47.9529684  10.9384330  15.3478299  48.2419067
  11.4744648  13.9345704  48.1621688  21.1257141  56.9568280  45.4068761
  21.5888708  57.0085862  44.5707910  21.8176143  56.9989565  46.0669761
  64.0766096  32.7133298  23.2924438  64.2102480  31.7763758  23.1492853
  64.7788286  33.1339812  22.7962828  58.0398464  42.2739697   7.8179169
  57.5318575  42.9761219   7.4115187  57.6372766  42.1540308   8.6780238
  67.1915483  56.4623690  13.9176452  67.9763508  56.1080599  13.4995794
  67.1407127  57.3656654  13.6050642  11.4751248  11.9506486  26.1996031
  11.0339073  12.3877843  26.9279408  10.7800774  11.4653428  25.7550550
  40.3347635  42.9128075  18.6518836  39.7665310  42.7958918  19.4132471
  39.7391009  43.1579685  17.9438484  55.1584578  46.9658232  12.0201874
  54.3939447  46.4337397  12.2407305  55.8718014  46.3340712  11.9292998
  35.6837972  41.2452947  60.8330229  36.0765299  40.8987437  60.0318411
  34.7440704  41.1022340  60.7204096   2.6839626  34.5900011  18.9506960
   2.7611578  34.9308276  19.8418248   2.7277792  35.3664684  18.3926558
  71.8302520  25.0417482  49.3117635  70.8908161  25.0678168  49.1301041
  71.9466098  24.2663776  49.8608463  61.1735745   7.8205930  47.6375537
  61.3971623   8.2548391  48.4607618  61.5712734   8.3693372  46.9615750
  39.4576025  59.5625067   7.3222083  39.9880743  59.3246269   8.0826330
  38.6034846  59.7919941   7.6883382   7.8465426  28.8442540   5.1765168
   7.1086550  28.4712076   4.6942404   8.4338838  29.1754031   4.4971037
   1.9625080  36.2630844  11.2186420   2.8946483  36.0890174  11.0880864
   1.8265999  37.1333647  10.8439791   6.8550972   8.0749638  13.0861306
   6.2138228   7.3664553  13.1410110   7.6238779   7.7383788  13.5464776
  63.0689240  65.4013586   3.2719439  62.5535011  66.1518955   2.9765248
  62.4742985  64.9109554   3.8395330  33.8392353  38.7667203  11.2553382
  34.0422416  38.2020545  10.5095661  34.4417834  38.4819269  11.9424033
  56.1062002  61.7134476  23.0391145  56.7349958  61.3918018  23.6851716
  56.6368055  61.9158077  22.2685695  17.5178293  33.2683976  16.4221311
  17.1031622  32.9443867  15.6225693  16.8259195  33.2317670  17.0825458
  39.9002060  19.8260795  52.1864944  39.6622404  19.5406734  53.0686222
  40.8516487  19.7273313  52.1513121   8.3351330   1.6126330  52.5923061
   7.4377350   1.5650399  52.2627020   8.6253361   0.7012399  52.6293612
  48.8547754  63.1833172  13.1832218  48.3684683  62.6807070  13.8367641
  49.6846247  63.3934259  13.6115110  71.6746950  60.4294920  12.3343921
  71.9259405  59.8508596  11.6144669  72.0560551  61.2769032  12.1048355
  14.3036755  20.9380828  39.4981723  13.4801444  20.5433379  39.2114573
  14.6927532  21.2890016  38.6971049  48.0217123  68.4301233  10.8715892
  47.7897596  68.5025501  11.7974317  47.2633171  68.7831354  10.4063463
  69.2554092  50.9798288  25.7843256  68.8680220  51.8488598  25.8889294
  69.0042543  50.7104015  24.9008322   5.6307797  13.3180363  30.4035449
   6.4429049  12.8205807  30.3075242   4.9907402  12.8348954  29.8809028
  59.0134764  39.3208456   1.6018380  58.1904078  38.8936257   1.3646135
  58.8234901  39.7644949   2.4284649   4.1284021  50.3614246  54.7830080
   4.0041598  51.1899768  55.2459209   4.9907192  50.4417812  54.3753545
  26.7202950  45.5370283  18.4706438  25.9835172  46.1274433  18.3131588
  27.3933697  46.0932589  18.8628280  64.3196821  52.9431820   9.0330571
  65.2633095  52.9692411   9.1915506  64.1812325  52.1319485   8.5442162
   6.7173537  36.4300977  44.8271852   5.9965070  36.1257611  44.2758315
   6.3621577  37.1903144  45.2877670   9.6745956  52.0535183  34.6085286
   9.8375404  52.6082420  33.8456655   9.1567505  52.6023102  35.1975036
   4.1354182  30.8230114  14.4378483   3.5182902  30.1818800  14.7904611
   4.5580545  31.1985803  15.2102220   4.7899520  37.8299904   9.6471310
   4.3228951  37.8878570   8.8136196   4.4222802  38.5370755  10.1773000
  36.9863510  65.3814793   2.9615530  37.2154880  64.8233891   3.7047002
  37.4006820  64.9598694   2.2086851  71.1718102  24.7141372  45.2165394
  71.8615456  24.9759971  44.6066826  71.0099860  23.7927543  45.0138192
  40.3253603  35.4629517  14.5779216  39.3955398  35.5903792  14.3897104
  40.3547812  34.6706963  15.1142955  61.1167049  48.7480307  13.4974694
  61.6723299  47.9731512  13.5815632  61.7190695  49.4487047  13.2475817
   7.4880283  64.3546918  52.0315300   7.0521419  64.2049197  52.8704606
   8.0363862  65.1249460  52.1806752  61.2002377  66.3935569  54.8343395
  61.2436251  66.5382818  53.8891392  60.4738264  65.7809881  54.9497538
   7.6838926   6.2828811  26.6227412   7.7123312   6.8386872  27.4015236
   8.3543209   6.6465123  26.0443568  32.6431322  66.6776133   6.8869436
  32.4363422  65.9160185   7.4286473  33.0828118  67.2835207   7.4834245
  51.6252390   0.3969605  22.9793501  52.0259610   1.0410292  23.5631561
  51.7279044   0.7705291  22.1040559  56.3439218   0.6300528  18.2350421
  55.9954730  -0.2489774  18.0863285  55.6835786   1.2153752  17.8641260
  70.3620788  29.6132909  36.5602522  69.4792863  29.9683248  36.6644578
  70.6245490  29.8788749  35.6788855  18.4305351  58.9619974  57.6350756
  17.9950158  58.9298013  56.7833041  18.9718358  59.7505573  57.5976550
  53.2809782  54.0633059  13.9413571  52.7766085  53.5120249  14.5396316
  53.4450150  54.8660994  14.4361758  28.1277609  37.6749945   5.0405085
  27.8089523  38.5230517   5.3493637  27.9787254  37.6929212   4.0951526
  46.4332390  51.2068272   7.0350343  46.7973852  51.1917782   6.1499339
  47.0378256  51.7566347   7.5334477  18.7997469  17.7688895  53.4856438
  18.3082565  16.9575654  53.6137717  19.4793495  17.7461587  54.1593324
   6.8938315  39.4900203  19.9202967   6.0562265  39.6941710  19.5043969
   6.8982321  38.5356903  19.9942243  64.4566803  68.6093381  58.1178605
  64.3681388  68.6354950  59.0705975  63.5882430  68.3579925  57.8034191
   6.2917984  66.1966324  29.2518449   5.3803242  66.3733673  29.4846606
   6.2642277  65.9870291  28.3182836  47.1137524  15.7687068   4.6112299
  47.6188421  16.1196136   3.8777572  46.8613625  14.8894596   4.3293503
  58.4938335  51.4648104  34.9176121  58.4682560  50.5144978  34.8058987
  57.6281738  51.6892385  35.2589321  58.6764908  26.6475630   5.6271523
  58.2170010  25.8536458   5.3536725  58.5770226  27.2483087   4.8886108
  58.4628963   6.3553667  32.3569036  57.6041698   6.4889538  31.9556928
  58.3613729   5.5609322  32.8811169  43.6217292   5.0179635  56.7297660
  44.1385540   4.6072780  57.4229168  44.2480739   5.5656158  56.2564777
  44.0615400  25.9242307  58.4002011  44.9817547  26.0503064  58.6315847
  43.8666662  26.6394912  57.7946736  57.1482325  62.3853874  14.6936882
  57.6005983  62.9899549  14.1053867  56.2349701  62.4117374  14.4082260
  26.4170241  42.9867125  18.2392180  27.2419500  42.7897072  17.7954638
  26.3824081  43.9428854  18.2670069   7.9964789  10.4892169  51.0750972
   7.9768571  11.4056312  50.7993536   8.6362346  10.0778781  50.4939406
   5.9292177  30.6119950  10.1340508   5.0009350  30.3948338  10.0482178
   6.2929873  29.9030907  10.6644869  21.0288318  31.8456470  60.3076481
  21.5466245  32.0035134  61.0970787  21.4878210  31.1361037  59.8580745
  43.3383417  21.2368631   4.0187281  43.2190371  21.1489987   4.9643910
  43.2903385  20.3402901   3.6869356  53.7832785  70.4057932   3.2723659
  53.3663797  69.6696663   2.8245431  53.1495142  71.1195755   3.2009891
  35.1420760  58.1576300   6.7300254  34.8477483  57.5144720   6.0850817
  34.4146013  58.7756443   6.8011898  43.7998676  65.4826498  21.3383865
  44.0891218  65.8849812  22.1573472  42.9956675  65.0183487  21.5705824
  23.3321118  56.3615799  20.2265310  22.6317167  56.5404558  20.8539701
  24.1156507  56.7361736  20.6289935  55.3778934  59.9987745  25.7237864
  55.0591516  60.3044605  24.8745537  54.6705961  60.2070522  26.3341832
   2.6695767  53.6564636   0.5806126   3.5480201  53.5513163   0.2152182
   2.1649602  52.9365349   0.2020681  51.7705822  21.8379736   5.5655193
  52.4513483  21.6248250   4.9272704  51.5900660  21.0091257   6.0089797
  44.4465303  48.4711742   5.5028129  43.8653708  49.0073538   6.0422516
  44.0579605  47.5967646   5.5283141  73.2022619  33.2480383  24.0485001
  73.5597992  33.3756590  24.9271989  73.6261988  33.9220071  23.5172057
  32.4475607   3.3400594  46.7405980  32.1207365   3.1132995  45.8699684
  32.9065880   2.5539004  47.0363705  25.7336553  10.6422244  46.7934530
  26.1770281  11.4377223  47.0881312  26.2776645   9.9279271  47.1252089
  75.1350180  15.6423505  19.2201996  74.3846241  15.4701169  18.6514544
  74.8048607  15.4887326  20.1054287  74.0786663   2.4956973  41.6224003
  73.8333622   2.8065570  42.4938488  74.9874607   2.2103961  41.7169142
  31.6088661  22.0537816  58.0970450  31.0159477  21.6520702  57.4619829
  31.4760383  22.9952584  57.9865270  57.3234216  16.7129834  25.6220484
  58.2614533  16.7051919  25.8124876  56.9486467  17.2896703  26.2877893
  11.6435345  20.6866513  38.4563427  11.2357768  21.3840400  37.9429107
  10.9860738  20.4569541  39.1130142  50.4772552  12.5158034  41.1654632
  50.7425102  12.1102868  40.3399782  50.6417307  11.8432675  41.8264263
  60.7727329   2.6731427  10.0731301  60.7758633   3.3391602  10.7606232
  60.9429399   3.1603034   9.2669421  39.6059545  10.1837836  56.4881970
  39.4735559  11.0492145  56.8751483  38.7243255   9.8196183  56.4085256
  36.3868523  57.2637606  21.1640668  36.6993046  58.0496979  21.6122985
  36.4288521  57.4858332  20.2339315   4.9500569  16.5767203  40.6172853
   5.2953132  17.4067460  40.9460621   4.6320900  16.1234819  41.3981192
  47.2941446  54.0632200  15.6056976  46.5031433  53.6245728  15.2924323
  48.0032539  53.6710024  15.0962269  55.1840019  70.1709747  48.9391613
  55.0887871  70.7335758  48.1706238  55.8530045  69.5340014  48.6882925
  59.2916918  63.3406258  10.8582723  58.6948633  63.8218927  11.4313471
  60.1305819  63.7917566  10.9530199  69.0314627  69.4148731  17.8204656
  69.9078465  69.1228580  17.5696456  68.6878729  68.7039995  18.3616066
  61.5289036  17.8615983  45.0842047  62.0938627  18.6195596  44.9340487
  61.6374556  17.6624425  46.0141420  68.7253761  70.7537460  59.9681664
  68.2457495  70.7016945  60.7948971  69.2380953  69.9460268  59.9374580
  71.0840368  61.7889309  35.6602621  70.7154608  60.9439468  35.9178996
  71.9554234  61.8008852  36.0562181  44.9726518  37.4218188  56.4462789
  45.4896625  37.0901834  57.1804087  44.0678915  37.3909818  56.7572375
  74.8278713  36.9742036  15.1678252  74.5266390  37.1828771  14.2835474
  74.7566938  37.8002000  15.6462562   2.5463522  48.4141827  33.8429165
   3.2487381  47.7711344  33.7460852   2.7026451  49.0469742  33.1419301
  48.3951473  58.7195969  14.8836851  49.1377783  59.1618395  15.2949631
  47.8796053  58.3846331  15.6173372  24.7646666  60.5658436  10.7571888
  24.9361181  59.8175097  11.3288808  24.2512012  60.2031279  10.0353682
  17.9486879  63.1028281  53.6525761  17.6426681  62.8101455  52.7941327
  18.4616455  63.8897334  53.4684937   7.4338488  20.8589394  42.6511335
   7.8809170  20.6957181  43.4816265   7.6862339  21.7514642  42.4146318
  49.8790741  63.7490702   9.8675352  49.8188877  64.6477842  10.1914525
  50.7291412  63.7088251   9.4293660   9.8850163  63.3802711  54.1993832
   9.9686559  62.4294959  54.1268562   9.3026193  63.5131179  54.9473118
   2.2865093  32.8209615   4.6884561   1.5757263  33.3950210   4.4030154
   2.0350445  32.5491357   5.5711287  48.8701200  56.1179256  18.2384121
  49.7933578  56.1158752  18.4911215  48.4621286  55.4732752  18.8165164
  47.6427412  63.4473610  17.5435710  47.0485401  62.7187729  17.7233541
  47.1799469  64.2196512  17.8685689  61.7154495   1.9161589   0.5239893
  62.2993223   1.2234052   0.2150852  60.8822624   1.4732058   0.6846931
  40.7029804   4.6720968  50.8880119  41.4557584   4.6071373  51.4756679
  39.9461349   4.7167669  51.4723264  56.2855387  49.7941875  24.4665909
  55.8287668  49.2381048  25.0977516  57.0973873  50.0418425  24.9090862
  43.2706261  69.4906855   3.2722101  42.3798037  69.1662693   3.4042108
  43.7053633  68.8000679   2.7719259   1.4104907  26.9160453  52.9156404
   1.1816947  27.8276542  52.7343862   1.0507123  26.4271072  52.1755527
  51.5397358  65.3725958   5.4133666  51.1157322  64.6599245   4.9352926
  51.0368586  66.1520147   5.1770252  14.2089943   1.3766415  28.3915305
  13.4854321   1.7334731  27.8763962  14.5780233   0.6866057  27.8402567
  33.0139565  56.9396162  35.1528001  32.4970675  56.5223694  34.4636226
  33.2937384  57.7719212  34.7717214  12.9841514  32.0456382   7.0910616
  12.2833963  31.7605468   6.5046329  12.7262063  32.9267475   7.3618908
  41.5731049  64.6069002  53.9241123  41.7655563  63.6910534  53.7230778
  40.6629801  64.7256136  53.6524248  28.7851604  11.8815480  58.8548130
  27.8868278  11.5711509  58.9683152  28.7076696  12.6264297  58.2586734
  62.8585100  67.1231508  12.6736557  62.8081465  67.6632166  13.4623396
  62.6632357  66.2367105  12.9775047  65.8466387  58.6852598  17.3414326
  65.5155849  58.3371782  18.1693661  65.0636053  58.8174295  16.8069923
  27.9805616  31.8001397   7.5568265  28.8099865  31.9552167   8.0087543
  27.5909618  31.0580762   8.0191904  64.7049379  67.1985769  34.5457864
  63.7949467  67.4785757  34.4470143  64.9129295  67.3791361  35.4625034
  63.9060322   2.3561890  33.2753444  64.1262904   2.7591641  34.1151834
  63.9168040   1.4153035  33.4509969  46.5475368  67.1201324  33.2129931
  46.7194080  66.6367149  32.4049091  45.9416151  67.8139448  32.9527736
  51.4027468   5.2210934  28.5094953  51.0781304   5.0124486  27.6335263
  50.6432954   5.1046784  29.0803838  18.9394240  21.3986333  13.7331581
  19.7734455  21.4185651  13.2638574  19.0729574  20.7580598  14.4317782
  36.3549809  12.2133477  15.1383507  36.4167503  11.6406472  14.3738663
  37.0247940  12.8813012  14.9919784  59.2237761  46.1832707  35.6548905
  59.6320280  46.1197393  34.7914505  58.3358051  45.8502786  35.5250597
  13.1437000   5.4687654  37.0753961  13.6974415   5.2206908  37.8157072
  13.3759602   6.3801395  36.8973832  47.8165340   4.2860398   6.8924338
  46.9654655   4.2286468   7.3267400  47.6339436   4.7327557   6.0657907
  39.5111422  39.5773250  51.9817846  40.1088874  38.8299710  52.0016389
  39.2625968  39.7096020  52.8966396   5.8119218  52.9436043  35.8358007
   5.4372852  52.1409241  36.1985450   5.1366966  53.6075154  35.9755211
  11.6693437  20.4136920  10.9768748  11.6949725  19.4578850  11.0216701
  11.8771958  20.7007980  11.8660307  72.2836685   5.3976673  16.8433523
  71.5793467   5.7918102  16.3287485  72.2612047   4.4698724  16.6089940
  58.0612707  23.1192851  33.4939575  57.3807240  22.9666686  32.8383708
  57.9484081  22.4094105  34.1260743  32.2395849  12.7160358  18.9733326
  31.8962955  11.8450999  19.1729665  31.4663172  13.2799137  18.9552259
  48.2651520  19.9200475   7.4818093  47.7657843  20.7041097   7.7100980
  48.1287622  19.3259072   8.2197976  52.7187014  62.6107454  20.2310729
  53.0863905  62.7845860  21.0975695  53.0024815  61.7201710  20.0247383
  45.8219270  60.0090888  59.1905664  45.8921437  59.8470071  60.1313275
  44.8802714  60.0207308  59.0191587  29.9886656  18.2184780   9.1347128
  29.1557169  18.4703863   8.7359995  30.4064250  19.0492129   9.3618375
  57.1313095  63.0982113   2.4750128  57.2320271  63.6918497   1.7309174
  58.0199099  62.7953148   2.6617488  68.0697374  50.7720402  48.7572234
  67.7872400  49.8873106  48.9889150  68.0716018  50.7799152  47.8000574
  31.2209686  28.0983846  15.3584695  32.0576414  27.8358857  15.7422721
  31.0753807  28.9860789  15.6856298  21.6933751  33.7171769  14.2090225
  21.7139626  33.5956717  13.2597888  21.8705606  34.6493506  14.3350661
  11.2007062  57.6157454  52.6434224  11.7463176  57.9546598  53.3531242
  10.9943168  56.7190698  52.9072564  58.2605247  49.5806912  56.9565718
  57.5398187  49.0457180  57.2891672  59.0495305  49.1541329  57.2908630
   1.5302245  56.8934015  58.3970179   1.6794412  55.9848812  58.1351851
   1.3213127  56.8426207  59.3297612   2.5612243   3.4091269  51.5091859
   3.5053309   3.2578121  51.5539138   2.2140201   2.6296984  51.0753970
  38.4471130   0.8905555   5.3011745  38.5201454   0.6297209   4.3830988
  39.0561986   1.6234645   5.3911197  42.9351568  25.0428557   0.6579759
  43.6364460  25.5618691   0.2642071  42.2752523  25.6871557   0.9141599
   1.5531483  29.7998524   3.7793252   2.3078075  30.3869390   3.8246232
   1.8999697  28.9440727   4.0314928  68.3414284   2.2726615  13.2748532
  67.5064341   1.8808587  13.5307896  68.6637560   2.6920111  14.0726507
  65.8297186  61.8777302  20.4794865  65.4265766  61.0133961  20.3980427
  65.3425483  62.3037461  21.1847596   2.8323810  23.3244971  59.5850331
   2.2974603  22.6563028  59.1565408   3.1414001  23.8794258  58.8689377
  68.7128687   8.6929584   9.2726898  68.3936310   8.4765333  10.1487482
  68.7804413   7.8485435   8.8270098  24.0887976  10.5659270   3.2236826
  23.3876729   9.9148029   3.2500514  23.6876082  11.3335192   2.8161517
  42.6524814  66.7816322  16.0146022  43.0018219  66.4004909  16.8201602
  41.7828067  66.3923942  15.9229863  68.4020233  34.5331550  23.4632468
  69.2309046  34.8489165  23.8230801  68.5898972  33.6389613  23.1780243
  61.1155824  48.2177344  58.0132406  61.3499860  49.1175977  57.7862286
  61.9206123  47.8435758  58.3712404  13.4525860  11.9856715  14.0396225
  13.1266487  11.2495875  13.5217679  14.3151367  12.1750045  13.6703157
   1.3655412  24.9642920   1.5036182   1.5028465  24.7737837   2.4315654
   1.9075287  24.3225765   1.0446158  43.0720129   2.0633064  60.9192547
  42.9603805   2.3154102  60.0026234  44.0182527   2.0894180  61.0613110
   4.6662935  27.1129243  35.9874272   4.6017083  26.8663900  35.0647783
   5.5932482  27.3130576  36.1175442  31.1374824  39.4635958  57.8349917
  31.1025970  40.4129127  57.7174645  31.7064922  39.3369964  58.5942223
  61.4675479  66.3792375  38.3760314  61.7777161  65.6344703  38.8911514
  60.7259659  66.0342792  37.8787475  50.2889781  50.3729943  59.9139562
  50.8016448  51.1308196  59.6326985  50.9416561  49.7400215  60.2132695
  74.6451923  57.9847383  39.2395282  74.0185215  58.5254288  39.7203326
  74.1015202  57.3888397  38.7242055  61.7180996  50.6278053  56.8386771
  60.9844713  51.1724928  56.5534820  62.4182086  50.8238700  56.2160697
  59.8863029  13.2496166  11.8935859  59.2792416  13.4090471  12.6162839
  60.7537508  13.3834922  12.2754741  10.6893127  55.3705576  54.7423034
  10.8515184  56.2441614  55.0983029   9.8845737  55.0820783  55.1728867
  10.4747598  61.8588022  46.7703300   9.8054855  61.3541678  47.2325509
  10.0901191  62.7292970  46.6677611  60.2565293  34.7573821  33.1530600
  60.9066205  35.1126373  33.7592035  59.5816974  34.3819364  33.7186365
  72.2951965  54.9176029  60.6588924  71.5196113  54.5094970  60.2739925
  72.0675735  55.0431064  61.5801246   2.4488990  35.5546495  38.0370264
   2.2296731  34.6453125  38.2401972   2.5476186  35.9739505  38.8918214
  65.6650285  45.8061233  47.9932659  65.4108934  46.1918405  47.1548932
  64.9150376  45.9639827  48.5666971  48.5983467   7.7308011  28.1716299
  48.0095673   8.4847122  28.1371593  48.6480188   7.4241018  27.2662568
  73.2766418  67.5927285  51.0689055  72.3659496  67.7984408  50.8578222
  73.7464170  67.7107957  50.2433114  64.6282625  16.4661217  32.5690269
  64.0968800  15.7412612  32.8983355  64.5306873  16.4218044  31.6178441
  51.9813009   6.0723125  57.7158945  52.7700066   6.6146909  57.7136912
  51.5590934   6.2669765  58.5526018  35.4496463   4.2045437  25.1161342
  35.0769790   3.3787810  25.4251056  35.9476551   4.5368706  25.8629828
  58.1025839  28.4727836   3.5176960  57.4547052  29.1740584   3.4491354
  57.8119802  27.8155661   2.8853607  41.3807011  65.8814526   3.8072750
  42.2702646  65.8598661   4.1600433  41.0454464  66.7429733   4.0554982
  27.1233495  21.1269818  38.8720493  27.0123562  20.2765618  39.2971378
  26.4539083  21.1420356  38.1880479  43.7846931  12.4716293  37.1399837
  44.7011503  12.5087701  36.8661957  43.3622345  13.1838475  36.6598659
  66.6843395  63.3180669  57.1953275  67.3180465  63.0173901  57.8466659
  65.8363561  63.0357722  57.5380587  53.2350683  51.0990429   0.5959880
  52.7068663  51.8725300   0.3986286  54.1375637  51.3808060   0.4465218
  57.5282192  29.8271132  56.8087006  58.0709600  29.1378355  56.4258718
  58.1494904  30.5128551  57.0536804  54.5092563  65.3644470  47.8689318
  54.5176510  66.0533479  47.2044187  54.0341978  64.6417573  47.4587255
  20.2895467  59.8441485  60.3384895  19.6140973  59.1659239  60.3422422
  19.9488609  60.5246809  60.9190427  56.6993332  13.2613170  10.2528131
  56.9776440  13.8082135  10.9874415  55.7578993  13.4184551  10.1804125
  56.1808447  52.9408100  57.6562272  56.3546018  53.8595942  57.4515911
  56.3575916  52.4757281  56.8384918  10.7137859  16.3073993  16.9552875
   9.8114479  16.1804187  16.6622365  11.1832702  15.5419946  16.6236639
  21.2979317  61.2647724   2.3568048  21.3162613  61.4644289   1.4208385
  21.7928696  61.9761896   2.7631995   3.3107250  53.2847527  59.8311544
   2.4447601  53.4258643  59.4485073   3.6517160  54.1660670  59.9836129
  21.7544830  26.3464165  33.8843369  21.5442550  25.7553506  33.1613731
  22.6301468  26.0800934  34.1645527   2.1284454  36.8369268  42.4982004
   2.7845304  36.7963469  43.1940024   2.6239698  37.0779996  41.7155307
  42.1578487  47.5948231  15.3296828  41.2118801  47.7070920  15.4233599
  42.3711475  48.0360453  14.5074546  67.6401071  57.7557782  47.9163580
  68.5405521  57.7247742  47.5931447  67.1387653  57.2489456  47.2776001
  51.8768263  22.1015358   8.4749275  52.4648523  22.6208115   7.9264665
  51.4109659  21.5365171   7.8585172  10.7643064   2.6634942  53.0333065
  11.2112197   2.1854006  53.7318235   9.9467429   2.1838819  52.8999089
  41.5361532  12.4188720  43.0636435  42.3325237  12.3808299  43.5933380
  41.5729889  11.6326104  42.5189762   3.2120355  21.7967235  33.4590416
   2.4749693  22.1970044  32.9977994   3.0330213  20.8569728  33.4266167
  28.0692506  39.6093464  25.1921177  27.1431875  39.6301508  24.9508500
  28.1494665  38.8497019  25.7689500  54.6284533   7.9557925   5.3855002
  54.6608496   7.2790647   6.0616815  55.2200174   7.6402664   4.7023267
  36.9215178  15.9162545  11.7600715  37.0982504  15.3213561  11.0313118
  36.9498205  15.3580868  12.5371683  56.8303347   1.6782098  23.8903546
  56.3293600   1.5290323  23.0884790  56.5548992   0.9755132  24.4790673
  68.4336853   5.8773458   8.4829628  67.8302240   5.2177447   8.8250113
  68.6847830   5.5477375   7.6200962  23.6487365  27.0062041   3.7748682
  24.2163873  27.3632717   3.0918542  22.7750778  27.3280501   3.5526869
  28.6106285   2.1009408  52.1338545  28.1424316   2.3297368  52.9367702
  28.8435920   1.1794149  52.2467600  64.9152140  44.6370420  60.2659423
  65.4687337  44.3435630  59.5422601  65.5156307  45.0892678  60.8585848
   5.1420848  49.4174400  42.1328848   6.0652892  49.5132962  42.3668461
   4.9307887  50.2209571  41.6575461  26.9365438  11.0024844  54.8081838
  26.8183454  11.8972837  55.1269208  26.4921602  10.9895240  53.9604907
  35.8840084  31.6062689  17.3532975  36.2385511  31.3948703  16.4896762
  35.3873277  30.8278227  17.6054096  47.1411165   7.5131665  57.7906438
  46.9647106   8.3384000  58.2424205  46.2854465   7.0895301  57.7228980
  33.8467169  20.3982115  22.1667480  34.3632054  19.7795296  21.6503143
  34.2558002  21.2477708  22.0020437  26.2697379  61.9082883  52.8028702
  25.5334251  61.3286856  52.6075952  26.0859601  62.7049926  52.3051577
  67.1877368  17.3599778  59.8933149  66.7541142  16.6768371  60.4047060
  66.5516909  17.5930511  59.2170354  66.4262676  35.8328128   1.2505245
  67.0089865  36.1819720   0.5761678  65.6430864  35.5600834   0.7725286
  62.8927469  22.2465754  19.5351255  63.1411076  21.5912914  20.1871634
  62.0536327  22.5870371  19.8452902   0.3645770  27.4442831  30.7756214
   0.6177871  27.2484008  31.6776996  -0.5916007  27.4823675  30.7981377
  38.2431722  68.9085960   6.1966652  37.8274059  69.4341516   5.5131745
  37.5748825  68.2712793   6.4485568  67.7631330  35.2228737  14.6866620
  68.7045622  35.1193738  14.5479989  67.4417210  35.6071520  13.8710296
  53.7265539  65.8881950   7.5051761  54.4695902  66.0690355   6.9294828
  53.4397078  66.7510509   7.8042293   0.7641018  25.3760386  28.1435347
   1.1474264  26.1492109  27.7294111   0.1290119  25.7283449  28.7670493
  10.2713140   5.6170760  37.1945934  11.1080226   5.2497445  36.9096046
  10.5098399   6.4025127  37.6869683  58.4867620  29.3499279  22.9326653
  57.5730801  29.1589880  22.7206230  58.7079096  28.7252879  23.6234260
   1.3795440  29.8608664  55.5920695   1.0552184  30.5105746  56.2157064
   1.9414823  29.2878244  56.1136871  45.3167868  24.9198508  52.2039223
  45.4228926  25.8431029  52.4332285  46.1460352  24.6787691  51.7910624
   0.5316627   9.7952092  43.6197519   1.3849962  10.1211917  43.3337784
   0.3884876   9.0070510  43.0957842  21.5834078   4.4873487  29.8849015
  20.6350025   4.4321428  29.7678309  21.7553552   3.9902722  30.6846385
  28.4422445  38.6359310  15.8469570  29.2818832  39.0354133  16.0742319
  27.8945422  39.3705916  15.5703211  58.4341197  54.2723349  60.4978230
  58.9539198  54.3344823  59.6964626  57.6895313  54.8543921  60.3460785
  31.7197132  36.1041021   9.6458244  32.5808835  36.4613652   9.8625755
  31.7313004  35.2167726  10.0046313  69.4556551  46.4936820  38.4521656
  69.0102558  47.1607426  37.9297905  69.3260269  45.6808332  37.9635911
  33.2332659   7.9872346   5.1877791  33.9836168   8.5715270   5.0791073
  33.1237984   7.5759763   4.3303904  61.4428759  30.8259630   0.5270542
  60.9258127  30.7863736  -0.2775037  61.9935513  30.0436234   0.4966037
  47.7910503  24.8601352  46.4367550  47.2522100  24.2214118  46.9035666
  48.6820921  24.5171415  46.5048521  16.2176117   4.7605191  42.7369111
  16.8167385   5.3883039  42.3329704  16.1258300   5.0640403  43.6400621
  48.1273794  13.7665856   1.8929185  48.2917643  14.6628511   2.1860342
  48.1266642  13.8234127   0.9374071  52.8130388   2.8804675   8.0620492
  52.8313875   3.8373464   8.0453914  53.6096096   2.6175717   7.6009756
   2.7222173  60.0633601  44.5688086   2.3029439  60.2736977  45.4031949
   3.3031623  60.8049181  44.3990247  38.0773004   9.6733438  40.7282834
  37.2929605  10.2124416  40.6262021  37.9435810   8.9398538  40.1280003
  31.6949526   1.4607127  32.1981096  32.4239812   0.8923276  31.9497442
  30.9860698   1.2144835  31.6038966  65.8948783  14.8962239  58.3062210
  66.6375331  14.3058732  58.1789957  65.9000949  15.0890807  59.2437770
  25.1769909  15.2166949  29.3867593  25.3231462  15.8391486  30.0990968
  25.8958801  15.3786813  28.7758689  68.3066444  15.6846729  44.5784776
  68.6909895  15.7117656  43.7022500  68.9607172  16.1008838  45.1398938
  70.1649137   3.9672934  48.5827904  69.8070141   3.9248382  49.4695466
  69.9425407   3.1213461  48.1940000  20.3203654  33.4845448  16.5623343
  20.6898832  33.4878898  15.6793416  19.3729985  33.4821486  16.4255071
  57.9915714  40.6435204   5.3248084  57.7850962  41.1081266   4.5137954
  58.3585310  41.3156414   5.8991092   5.9696119  64.5334247  46.3556688
   6.3620489  65.4061106  46.3302248   6.3956325  64.1007117  47.0955973
  40.8965874  27.2344041  11.9040120  40.8838701  26.3042116  12.1294355
  41.4244699  27.6402926  12.5916362  59.7609477  65.6309584  58.2662307
  59.2012171  66.1268571  58.8637425  59.2492442  65.5622605  57.4602078
  63.9086966  61.7594460  45.6254463  64.1490988  61.3387183  46.4509313
  64.2297821  61.1622289  44.9498217  55.1425695  24.5982862  16.8765092
  56.0437298  24.6966434  16.5691555  54.6723413  24.2332983  16.1269104
  21.2547191   8.3280336  60.8384488  20.4162630   8.6835347  60.5437576
  21.4405521   7.6149856  60.2274956  50.2319145  26.8319607   4.5502788
  50.3625536  26.2976623   5.3336632  49.4693041  26.4446139   4.1206121
  10.2170532  46.1819664  56.6171481  10.3419511  45.3068808  56.2499194
   9.5139425  46.5640250  56.0918917  60.3045321   6.4721698  14.5610213
  60.8051062   6.6417301  15.3590858  60.0581503   7.3409820  14.2436981
   8.1891267  20.6373659  57.6508214   7.9930894  20.8564773  56.7398923
   8.8354366  19.9335900  57.5941270  58.1019688  13.2158637  34.5619822
  57.2949457  12.8801382  34.9521470  57.8865147  13.3429003  33.6380386
  32.3191580  38.2883369  60.0323947  33.2120403  38.2351981  59.6915515
  31.9668754  37.4054729  59.9198065  32.3611736  23.2235265  12.9912889
  31.9795322  23.9854813  13.4271872  32.2187614  23.3848858  12.0585966
  25.6001600   9.4025670  33.4697561  24.6463188   9.3334542  33.5102849
  25.8614954   8.7387715  32.8315454   9.0211074  25.9770957  55.7333594
   8.4002130  26.1165145  56.4484020   8.5460727  26.2474033  54.9475430
   4.9102514  53.5738257  52.0532774   5.0779884  52.6930252  51.7181848
   5.5334108  53.6792937  52.7721517  35.5946660  36.7516756   1.5863614
  35.3144050  37.5798702   1.1967729  34.7957182  36.2266016   1.6333631
  14.8671826  45.5936252  49.6967237  15.1209911  45.8923637  50.5699735
  15.6160053  45.0812446  49.3918293  63.1667356  24.1106418  53.2866638
  63.2967262  24.9158636  52.7857130  63.0440383  24.4068364  54.1885762
  50.9646368  47.0323563   2.4011055  50.8328295  47.3191643   1.4974463
  50.4541969  47.6496315   2.9251760  56.2228727   4.0907538  21.2832761
  55.9656477   3.3242631  21.7956829  56.7118073   4.6371359  21.8986154
  61.9368267  15.7850206   4.3574208  61.5808392  16.6228259   4.6533734
  62.5847912  15.5518484   5.0222546  16.8304222  66.5415600  48.2603543
  17.3580377  65.7636264  48.0796056  16.9240968  67.0820549  47.4759298
  58.1676535  64.6846703  51.4844870  57.9237704  65.6023362  51.3634848
  57.4189739  64.2954543  51.9363939  42.9364443  16.9358134  10.0919974
  42.7347612  16.7195821   9.1816133  42.0814943  17.0658636  10.5023408
  49.4309028  12.1119462  50.6061940  49.0592321  12.8469621  51.0938846
  49.9019178  11.6012918  51.2646871  57.7490664  22.6107430  21.6335893
  57.2640657  22.2652626  20.8841562  57.2697115  22.2900772  22.3975420
  63.6041387  55.3822820   5.6729442  63.6868640  56.0021286   6.3976365
  63.4034081  54.5465784   6.0942984  23.6247286  55.5242257   7.3887855
  22.8522094  56.0784321   7.2778696  23.6721452  55.3653185   8.3315116
  49.9752121  55.8125094  60.6401347  49.2657380  55.9952978  60.0241258
  49.5306234  55.5714515  61.4528230  40.4022360  53.9602804   0.8973461
  40.4955006  53.3899450   0.1342891  39.8384094  53.4698009   1.4954804
  35.1952156  13.6969434  36.2976651  35.7241615  13.4290372  37.0491128
  34.2908319  13.6189805  36.6013746  47.7837042  39.8256165  44.4880705
  47.8070407  40.4860559  43.7956052  47.9480414  38.9982709  44.0356057
  10.1836642   7.2197400  25.4840188  10.0116619   6.2954866  25.3040152
  10.1364764   7.6434766  24.6270161   2.7107820  45.2028418  36.5851736
   2.4578239  44.3717909  36.9871664   3.6227486  45.3280640  36.8476009
   1.6941154  50.8854294   0.1295372   0.8715904  51.3184834   0.3579002
   1.8467558  50.2684927   0.8453047  11.5273540  69.7429612  52.6970856
  10.8883302  69.5678833  53.3879035  11.8618886  68.8792017  52.4557595
  33.9909196  14.1919780   7.6911950  33.8398862  14.0587819   8.6269724
  33.1197834  14.3524909   7.3284459   0.6826103  20.2238870   3.6200246
   1.6083992  20.4010653   3.4534195   0.4994428  20.6663537   4.4488209
  52.2002506  33.5701942  10.6194806  52.6726818  32.9291034  11.1505580
  52.6401234  33.5479379   9.7696275  56.0246611  12.2038019  29.6508384
  55.9803724  12.8576243  30.3485394  55.3498030  11.5643466  29.8786449
  59.1433620  33.8278651  24.0882182  59.6037245  34.4877005  23.5696459
  59.5770597  33.8482594  24.9412847  67.0834236  63.2623843  30.4714828
  66.6645603  62.5771597  29.9506645  66.8388109  64.0783361  30.0348859
  16.7252409  33.1501031  26.3133240  16.8521738  34.0340424  25.9686923
  16.9619560  33.2173991  27.2383475  23.0439281  17.7280366  16.4730382
  22.7505994  17.5145340  17.3588181  23.9323831  17.3753107  16.4234102
  65.1262884  51.2167981  52.6382928  64.9980764  50.2885440  52.8335850
  66.0767679  51.3273636  52.6138835  66.5502834   2.4380165  20.7399440
  66.4917326   3.2220006  20.1938915  66.7283773   2.7714053  21.6193557
  69.8626757  31.5062356  13.5061383  70.7374430  31.7560101  13.8038385
  69.5023298  32.3062778  13.1236315  62.3270130  36.1242008  18.0009723
  62.7692890  36.0864973  17.1529150  61.4271259  35.8569288  17.8138852
  72.7819252   8.3028561  10.7618356  72.3843098   7.4596369  10.9788978
  72.0740557   8.9373696  10.8738530  41.7179903   7.7429305  35.6342392
  41.9818624   6.9680320  36.1303573  41.6436037   7.4351369  34.7309356
  13.5868438   2.1410333  53.3984547  14.0412339   2.8806459  52.9950504
  13.5286936   1.4869367  52.7020298  68.4037618  41.3938967  48.2229965
  67.8676776  41.4954892  49.0094607  68.0999164  42.0854345  47.6350467
  46.8164349  28.2343197  12.3509824  46.9699669  27.3309970  12.6278734
  47.3862743  28.7577081  12.9145241  31.2711080   5.6761800  60.1775005
  30.8263525   4.8819362  59.8815296  31.2322220   6.2669049  59.4253268
   4.1034143  70.1780370  35.8199721   4.1879146  70.5313161  36.7055707
   5.0052802  70.0452784  35.5280023  43.5926628  15.5790830  22.2715497
  43.3610964  15.8820808  23.1495047  42.7777910  15.6430221  21.7734265
  25.9801698  23.2797837  25.7103562  25.1734686  23.1589937  26.2112308
  25.7135463  23.7914991  24.9466205  67.9472427  51.3653556  38.6624794
  67.3295097  52.0648626  38.4495716  68.2378988  51.0354951  37.8122192
   7.3937297  31.1439395  22.2793865   8.0503196  30.8881998  22.9272437
   7.8611737  31.7281651  21.6823864  45.7291508  30.6835127   0.3010408
  45.7311916  29.8915648  -0.2365882  45.1499224  30.4740930   1.0337534
  54.7071743  22.5703740   2.3313096  54.2272663  21.7497277   2.4429578
  54.7961998  22.9183865   3.2185489  69.1626911  70.3346732  56.5802877
  69.7754030  70.1641777  57.2956519  68.4033565  69.7870496  56.7796644
  50.7832336  45.0671053  12.4595225  50.6252766  45.6155109  13.2279849
  49.9494696  44.6222591  12.3072684  23.6853044  46.9128636  55.2195429
  23.9828651  47.2787443  56.0525017  24.4642227  46.9192723  54.6632354
  36.8019565   2.9057037  41.0203533  36.1343892   2.4551092  40.5031018
  37.4486979   3.1951224  40.3767734  43.9419031  13.9542580  12.8554988
  44.0183735  13.4256232  13.6498094  44.5371008  14.6899998  12.9992235
  53.6526918  37.9932690   8.1426412  54.0852261  37.5781941   7.3964095
  54.0523481  38.8612318   8.1987292  57.7133274  50.9392595  27.6101422
  57.9908895  50.6533623  26.7398262  58.3910275  50.6070089  28.1988406
  39.2023711  69.2667106  31.4512806  39.4498901  68.4439519  31.0293417
  38.8407759  69.7997096  30.7431894  24.9631572  21.4998913  21.1393833
  25.1206279  20.5608940  21.0407782  25.7443094  21.8282986  21.5845609
  65.3824615  41.9175768  19.5315027  65.8712387  41.1740828  19.1785860
  64.5772409  41.9419670  19.0145361  73.8225126  35.8974791   8.5069185
  73.2281637  35.4152322   7.9320967  74.1827774  36.5896606   7.9525489
  18.8851611  61.6753844  57.8332253  18.0833404  61.9491509  57.3878386
  19.5876138  61.9066647  57.2255229  68.3524990  36.8311524  37.0424914
  69.2647219  36.5411997  37.0448875  68.4044981  37.7849197  36.9804025
  72.3058558  42.7236891  32.7009559  73.2213402  43.0024767  32.6809335
  71.9593096  43.0975246  33.5111308  46.2171364  55.7131720   4.5523864
  47.0603180  55.3023958   4.7435471  45.8153152  55.8460379   5.4109436
  63.6998558  17.4492407  12.9559433  63.9335251  17.3636854  12.0316541
  62.7472925  17.3564613  12.9717553  16.1871847   0.7632743  39.2338710
  16.9724926   0.2162133  39.2498617  16.3143095   1.3857685  39.9498134
  74.8424975  20.3721841  19.8991430  74.9706141  20.6258710  20.8131766
  74.0628926  20.8544667  19.6237350  38.1196061   1.7562564  12.6159704
  37.5923530   1.7046244  13.4131968  38.8637391   2.3082907  12.8562880
  21.7291498  36.5917516   7.8734571  22.4840832  36.4686561   7.2979969
  21.5442157  37.5298429   7.8285748   7.6831850   8.9290296  42.8751044
   7.3023447   8.2108031  42.3697930   8.3819398   9.2703639  42.3170142
   6.6949356  38.4146261   1.3678095   5.9646213  38.6046958   0.7789584
   7.2045124  39.2246938   1.3866282   5.3254398  16.8739854  35.3521257
   5.6010445  17.0386516  36.2538796   4.8123726  16.0674440  35.4019766
  18.4835323   8.4621822  60.5239830  18.2541927   7.5818740  60.2261684
  18.0499967   9.0461026  59.9016360  74.5372772  48.5193777   0.0167426
  74.2915106  48.1451988   0.8628044  73.9602661  49.2760038  -0.0872145
   5.5522888  61.7453078  38.3475046   5.2103441  61.7365292  39.2415004
   5.5510871  60.8257917  38.0815725  58.1700087  53.7015200  10.2047300
  58.9964104  53.8688850  10.6578147  57.9261398  54.5482254   9.8307699
  33.8187778  16.4237905  11.5743542  34.5313633  15.8641052  11.8829072
  33.1778991  16.4093363  12.2851956  50.0449277   5.0685798  39.7270923
  49.3989951   5.3462373  40.3766375  49.6013124   4.3847285  39.2253118
  25.4167056  36.1563373  30.3731322  24.9218965  35.7089043  31.0595727
  26.0467553  35.5035996  30.0678444  68.4154443  43.1852856  59.8878703
  68.2792644  42.2670999  60.1215820  67.7152805  43.3802745  59.2649897
  65.3348064  27.4147272  11.5942264  64.4710350  27.8124070  11.4847839
  65.1607275  26.5796328  12.0284498  15.1934131   2.7506648  20.6192856
  15.3563722   3.5172712  21.1688214  14.4536027   2.3095595  21.0368233
  46.3250145   5.9245645  37.6021390  46.1497720   5.9539043  38.5427051
  45.8237966   6.6562997  37.2421818  30.2821112  32.4254704   1.1022462
  29.7064257  32.9850769   1.6234560  30.8203483  33.0372667   0.6000111
  29.7902369  28.1075001  11.9562876  29.0162373  28.6051822  12.2198617
  29.5339990  27.1915007  12.0636153   2.7069681  29.0385559  34.2631679
   3.1893031  29.1723004  33.4472637   1.9861429  28.4565082  34.0226202
  30.4646461  60.2380851  59.8350274  30.0074546  60.5927924  60.5975147
  29.8757522  59.5646695  59.4945181   1.0970819  54.7093678   8.0204988
   1.4419163  54.9926996   8.8672847   0.6937588  55.4949570   7.6511496
  24.5551046  20.4870855  17.0127897  24.4305071  19.5766793  17.2808724
  25.5027660  20.6182967  17.0436268  71.6080666  40.8518457   0.6724123
  71.3361788  41.7538404   0.5029513  72.4341393  40.9361315   1.1485726
   7.0411222  56.8273023  60.5271844   7.2042243  56.0393289  60.0087947
   7.9115884  57.1891049  60.6933638   7.7918422  45.5521584  32.6343513
   7.9243839  44.6080208  32.7196169   8.6764324  45.9172153  32.6127362
  42.5414261   3.8856660  52.6888411  43.1474527   3.2817470  53.1180756
  42.7721580   4.7459685  53.0393737  40.7290348   0.9134565  24.8171239
  39.9900182   0.8190333  24.2161517  41.0187706   1.8182241  24.7001653
  56.9795942  62.6495409  47.6237440  57.7272749  62.6166916  47.0269823
  56.2357044  62.3676062  47.0914173   7.4653805  37.5532985   4.1275576
   7.0075405  37.8850436   3.3551866   6.7717541  37.1962428   4.6821925
  60.5964327  10.9834969  15.8541191  61.2410450  11.6890550  15.8003056
  59.9153137  11.3250315  16.4334881  54.0614065  37.4572288  53.9683788
  53.5991272  37.5402890  54.8024254  54.3370088  38.3492910  53.7574213
  70.6597408  26.7664504  25.3988123  70.3152948  26.9894552  26.2635994
  71.5618312  27.0863366  25.4105186  35.0250125  25.8577299  15.6174195
  35.6091905  26.5917540  15.8076262  34.2038751  26.0859919  16.0531485
  57.0113802  42.6480150  10.3996575  56.9005728  41.9830322  11.0791814
  57.2832680  43.4331417  10.8749318  -0.0107225   4.2733796  11.2918675
   0.9149758   4.4256194  11.1017728  -0.1724538   4.7600634  12.1000850
  10.8466883   4.7614929  33.9650411  10.9806438   4.0922686  34.6361799
  10.1770635   5.3384515  34.3324156  56.1361479  59.9690437  51.1051559
  56.2617457  59.2202854  51.6880989  56.9880306  60.4052258  51.0885859
   7.1854275  43.9323616  49.5639944   7.0022434  44.4448757  48.7765932
   6.3445938  43.8831854  50.0187635  10.5101243  17.4661286  22.2215581
  10.7883850  16.6945393  21.7281461   9.9823812  17.9694207  21.6015458
  68.9245315  34.0096256  19.5533533  68.7176128  33.2630893  20.1155824
  69.4134445  33.6309740  18.8227291  65.7059371  56.0514975  56.3537455
  65.5018311  56.1047697  57.2874165  66.2092936  55.2422523  56.2644053
  31.8650410  11.5715058  54.1408777  32.1320835  11.2354787  53.2853031
  31.0574565  11.0988267  54.3424177  60.1398134  59.8486137  48.9109564
  59.6699595  60.6665277  48.7482166  60.6644439  60.0250721  49.6918917
  35.5904729  36.0555765  14.4056721  36.1358590  35.2897379  14.5853395
  34.7570892  35.8621618  14.8349686  66.9964102   9.1673692  29.4794202
  66.8712619  10.1063092  29.3417025  66.1090306   8.8145573  29.5451117
  27.8009949  21.1421902  26.1047220  27.1681882  21.8484242  26.2351680
  28.1381626  21.2830861  25.2200198   7.0407838  57.2506762  57.3120975
   7.1914405  57.1385002  58.2506895   6.8268049  58.1783772  57.2130585
  63.1126749   5.5549735  59.3053102  63.8302004   6.1631697  59.1278601
  62.9254079   5.6707358  60.2368450  50.5607247  56.8547969  11.9461143
  50.2792353  55.9695058  12.1768880  49.9432914  57.1338348  11.2699890
   7.7322185  10.7075822  54.1954994   8.4312433  10.3098786  54.7145653
   7.6559395  10.1445627  53.4251595  72.8971658  27.6443720  49.3872261
  72.4687108  26.7893434  49.3474340  72.3059149  28.2307458  48.9151859
  57.5263667  55.5236483  51.6659403  57.5088465  56.4021301  51.2862158
  57.7347624  54.9485779  50.9296656  13.7047593  44.2719624  47.5558071
  12.8101258  44.5969531  47.6570218  14.2294733  44.8331365  48.1267624
  17.4666131  21.2155080  58.4026146  17.4943328  21.9295621  59.0394735
  16.9751155  21.5730524  57.6631403  32.8150105  63.2221317  33.6656761
  32.3424172  62.5875950  34.2044234  32.8858948  62.8026247  32.8082228
  61.1044121  49.5887947   1.2157807  61.5634870  50.0566483   0.5182185
  61.5741241  49.8287916   2.0145316  11.7867553  54.2000818  29.6826530
  11.6805518  54.2470741  30.6327820  11.4541638  53.3340025  29.4470191
  63.2728886  40.2168989  29.8520541  63.2842588  39.2861867  29.6287274
  63.8787758  40.6198549  29.2301559  13.9454202  15.2799256   8.8919580
  14.5804397  15.0073560   8.2296211  14.1768709  16.1881669   9.0862381
  63.8537585  49.1719818  26.1857796  64.1258478  48.3030891  26.4811230
  64.6481764  49.7031593  26.2403798  50.2143872   9.0945667  10.3549671
  50.3489268   9.6774673  11.1021996  49.6822536   8.3787543  10.7023549
  15.4216598  55.8786372  45.2833574  15.4198758  55.8934191  46.2404411
  16.0234986  55.1699224  45.0558834  27.0149953  11.5815517   1.7126484
  27.0468910  12.4822399   2.0350952  26.6055544  11.6502782   0.8501739
  70.5872327  65.0832891  22.9597139  69.7434580  64.8977041  23.3718204
  70.4734808  64.8126888  22.0486355  32.7369758  69.3159336  23.0267358
  32.4935695  70.1269285  23.4731340  33.0067869  69.5957063  22.1519995
  32.5141195   1.1076482  19.8366010  32.2088108   1.2431987  18.9395809
  32.7958754   1.9750054  20.1273537  65.2287602  52.8333187  58.0144787
  64.5217991  52.5904846  58.6123657  64.8502588  52.7297640  57.1414137
   9.8827974  16.8230374  10.1499569  10.3710393  16.9943555  10.9552550
   9.0819112  17.3392995  10.2410078  44.5055834   0.9335549  16.1454844
  45.4582087   0.8586343  16.0896027  44.2635349   0.3686078  16.8792939
  12.3589706  21.5726614  35.2620173  13.2789421  21.3107491  35.2261424
  12.2950137  22.1157384  36.0476446  66.7366951  44.2168665   6.1100328
  67.0835316  45.0634527   6.3915062  67.2343880  44.0046978   5.3204012
  74.1989005  44.7104931  25.8201218  73.4213346  45.2248335  25.6031394
  74.4783723  44.3350172  24.9851704  42.1876172  48.6139239   8.8167114
  41.7176107  49.4047655   8.5523386  41.9118587  47.9491700   8.1856079
  30.5783558  48.7642908   0.4794859  30.0671387  49.5016623   0.8129106
  30.4888058  48.8214397  -0.4718005  59.3072641  34.8070860  45.8879328
  58.8481629  33.9717889  45.7999802  59.1630745  35.2489138  45.0511360
  64.2324805  41.0975742   4.7521967  64.8680556  41.0235453   5.4640925
  64.6390843  41.7005539   4.1298467   2.0010886  56.5944433  34.5722795
   2.5389838  56.8772459  33.8327384   2.4582365  56.9303846  35.3432488
  10.0207257  37.0783091  44.2337227  10.4327559  36.6763806  43.4689236
   9.1689980  37.3787975  43.9167070  64.0416622  62.4848843  22.4333334
  63.2845306  61.9595337  22.6921582  63.7974488  63.3831263  22.6563835
  62.7423556  28.2420417   0.2879829  63.2410689  27.8151151   0.9845848
  61.8399711  27.9558536   0.4295130  73.3464031  50.8628798  30.0858545
  73.3038141  50.0782299  29.5392823  73.1658448  51.5844917  29.4834399
  10.0804698  27.2120190  27.9649591   9.2352355  27.1373463  27.5219750
  10.5382311  27.9069471  27.4919271  11.7628709   1.2576707  33.7614894
  11.8401257   1.4643128  32.8300571  12.6578776   1.3186057  34.0953779
  15.5373979  38.5918522  11.9747818  16.3822246  38.3403230  11.6016436
  15.5373824  38.2046461  12.8501701  68.6494773  65.2240133  39.3073964
  67.7084172  65.0934792  39.1907859  69.0544182  64.5761204  38.7307763
  69.4168710  58.9770412  23.9891171  68.8577330  58.2084465  23.8757300
  69.1182482  59.5914793  23.3186507  48.4111838  63.6358193  60.6713312
  48.2161645  63.8944414  59.7706022  49.2609577  63.1986740  60.6163557
  25.4444575  46.1109114  11.5168226  25.7181406  45.7842255  12.3739135
  24.5155644  45.8868122  11.4605272  43.6825843  42.7226183   1.8381853
  43.5977508  43.2359239   1.0347242  42.7904935  42.4370166   2.0352573
  13.2600045  52.5791168  15.7369041  13.6485350  52.3907471  16.5911829
  13.8196337  53.2604218  15.3642440  33.8555634  63.3405399  -0.1311381
  34.3225157  64.0630054   0.2886631  34.4091809  62.5752449   0.0239816
  73.4903022  19.7008763  49.5545881  72.5929161  19.4593583  49.7839301
  74.0162702  19.3991386  50.2952247  38.4650373  40.8701277  11.3389468
  37.8745937  41.1724710  12.0290184  38.2700086  39.9373817  11.2485147
  66.9017762  30.3860545  44.6026611  66.3593673  29.5994163  44.6594763
  66.3128650  31.0588956  44.2610502   6.4768708  35.3134894  23.7395835
   5.6734425  34.9101663  24.0683150   6.3763475  36.2443614  23.9385867
   0.7768564  67.6896858  35.0135183  -0.0929690  67.9672241  35.3009391
   0.7718571  67.8287220  34.0664840  25.4689643  69.8279217  51.9019007
  25.2250928  69.3146256  52.6721512  24.6359876  70.0333575  51.4774274
  60.4047195  -0.0099723  37.1890068  60.0416962   0.8019097  37.5429797
  59.6543042  -0.6009881  37.1272945   3.9105372  32.2142155  26.6123843
   4.6148447  31.6699632  26.9644833   3.2445006  31.5888341  26.3268590
   6.9107195  59.9626933  50.6027286   7.3936506  60.7625877  50.3949552
   7.5738521  59.2725192  50.5903845  73.5298916  61.1004400  45.0089407
  73.4244346  60.2727032  44.5399427  73.8402573  60.8455610  45.8778143
  65.5186466  65.1067366   6.4094848  65.6531695  64.8961867   5.4854698
  65.3611902  64.2601885   6.8275709  59.0597057  11.6837072  31.4431834
  59.0496719  10.7821774  31.7647028  59.7506690  11.6941035  30.7808447
  51.9240248  51.8272066  25.0590563  51.9824564  52.0503807  25.9880400
  52.8321779  51.8209791  24.7566438  53.2853281  55.1086998  22.5299144
  52.7552330  55.8854246  22.3512244  53.8802635  55.3803539  23.2288313
   7.2841521  14.9677488   0.6404228   7.4698944  15.3507969   1.4977522
   6.3626810  14.7128126   0.6865568  74.3834663  23.1649566  26.9410110
  74.9370746  23.8078713  27.3841929  73.5869326  23.6471820  26.7191505
  36.4771565  21.1744605  54.7761314  37.4168082  21.1614286  54.9581109
  36.0727139  21.3787852  55.6192850   5.9595792  62.9990724  54.3356430
   5.3903024  62.4040655  53.8476657   5.3686492  63.6710313  54.6755021
  31.7093706  34.3690562   0.0455230  32.3409891  34.9438691  -0.3867739
  31.5720367  34.7674727   0.9049612  41.4670753  64.2424202  19.0949631
  40.5216169  64.3893433  19.1224039  41.6299868  63.6011362  19.7866619
  68.3850473  52.5761032  33.2095575  67.6298982  53.0850267  32.9146433
  68.6717367  52.0995569  32.4304914  14.8464060  12.8575277  22.9614949
  14.4361281  12.0653546  22.6145577  14.8964798  12.7075505  23.9055443
  12.6948837   5.5605204  10.1319981  13.5462288   5.2968056   9.7828609
  12.0948521   4.8719008   9.8456579  20.0856326  15.0547059  13.2388437
  20.5954105  15.8165486  13.5144246  19.1737655  15.3237183  13.3500159
  40.6332600  70.1997280  60.1654148  40.9946835  70.7180643  59.4464397
  41.3270938  70.1881504  60.8247280  57.6685166  60.7623434  31.5316081
  57.0397281  60.0461149  31.6203117  57.1948862  61.5360641  31.8369985
  21.4122701  34.6818948  26.3123536  21.2599182  35.1823235  27.1139717
  21.3165450  35.3229308  25.6079793  10.1086966  54.7368921   8.2136841
  10.8258299  54.3295885   7.7278299  10.3720204  55.6524481   8.3066959
  22.3545051  46.1690235  21.5953732  23.0018544  46.1715174  22.3004746
  21.7091012  45.5156183  21.8650794  74.2682531  26.6344166  46.1470604
  73.8921936  27.4570036  46.4603662  74.0057888  26.5858364  45.2278280
   1.5443222  43.6179256  20.5657554   1.7178260  43.1165075  19.7690701
   0.5991479  43.5410929  20.6960392  72.3364607  15.0189622  38.4763122
  73.2690111  14.9839623  38.6892796  71.9936148  14.1721280  38.7618923
  18.6941779  33.4986281  52.8391981  18.3539200  33.6902475  53.7131214
  19.0175879  32.5997639  52.8998709  26.5351796  65.1102066  39.5626426
  26.3539696  66.0116148  39.8288417  27.2341156  64.8228788  40.1501513
  62.8187934   5.8952840  42.3871469  63.0199519   5.6554015  43.2917070
  62.7268688   6.8478568  42.4067545  18.6020477  14.2831871   1.9557018
  19.1216405  14.6412822   1.2359638  19.2426856  13.8554689   2.5239200
   7.2399938  26.9511604  31.4644837   7.3302418  26.2764740  32.1374512
   6.9769615  26.4720011  30.6787014   3.3801353  34.0058708  35.0867987
   2.9832819  34.8014808  34.7321963   2.9264402  33.8615155  35.9171939
  45.9497690  68.9662075  22.3395514  46.5526867  68.2899809  22.6484823
  46.5158892  69.6983480  22.0951891  34.7294680  14.2701180  30.2049446
  35.2524237  14.6512349  29.4996095  34.8921887  13.3289464  30.1420808
  23.9850243   0.4124244   9.6804392  24.8314994   0.8583720   9.7094822
  24.1225716  -0.3239553   9.0845698  66.4337700  12.0477366  10.3047383
  66.8834048  12.1362817   9.4643688  67.1393984  11.9773912  10.9476781
  69.2970196  10.6310494  26.4895225  69.5548121   9.9642785  27.1260667
  68.4764067  10.3049405  26.1200929  17.7385426  51.2462997  29.0465689
  18.3913505  50.8963966  29.6529055  17.3825693  52.0136547  29.4945383
  53.3747613  69.5982027  23.7675977  52.6697600  69.0730715  24.1463399
  53.8857639  68.9756727  23.2503295  29.8790669  63.8707829   7.3474842
  29.2741323  63.2802773   7.7964771  29.3125463  64.5014858   6.9030738
  27.9921012  69.4524697  44.7013550  27.2764586  69.0461925  44.2124503
  28.7730048  69.2702273  44.1786604   4.4088689  22.9411538  53.3573008
   3.9398328  23.7318356  53.6238670   3.7653033  22.4374421  52.8589773
  33.6678753   3.6033280  32.4608016  33.4783927   2.8034098  32.9511690
  32.9288534   3.6964639  31.8596339  49.9443237  11.4417680  21.3196421
  50.0301329  12.3032887  20.9114122  49.0906469  11.4655431  21.7519617
  72.4428311  43.4259272  29.8048306  72.0688167  43.1102896  30.6274581
  73.0898986  44.0791559  30.0709724  68.5857435  11.0911380  56.2398662
  68.2560023  10.2416335  56.5328642  68.3282610  11.6997825  56.9323121
  15.6538081  27.3175287  53.9008379  14.8271608  26.8349767  53.8954067
  15.6023967  27.8719401  54.6794367  15.7996678  57.0829868  53.5256052
  16.2843215  57.8626776  53.7965775  16.1456299  56.8755770  52.6575470
   9.3022257  57.5634050  14.5898736   8.6785328  58.0520678  14.0527987
   9.8383129  58.2375050  15.0075281  55.7747411  43.2430983   0.7962671
  55.0841582  43.6560106   0.2777764  55.9090519  42.3911524   0.3810817
  25.1723361  32.4369383   7.0335442  25.2644777  31.6034508   7.4951088
  25.4606533  32.2492218   6.1403096   2.5576016  50.4409647  58.3780336
   3.3800548  50.9142876  58.5035992   2.8122920  49.5184135  58.3615637
   8.4951276  58.0481005  29.0841460   8.6235058  58.3854342  29.9706888
   9.2329383  57.4544764  28.9445829  33.6277256   9.7718556   8.1687182
  34.3974838  10.3077348   8.3598739  33.9612565   8.8750966   8.1402242
  52.7758492  15.9330722  12.7173633  52.3625530  16.3395950  11.9556827
  52.1567599  15.2573177  12.9936189   1.2658477  54.7524595   2.6325795
   1.5750879  54.6095753   3.5271114   2.0232889  54.5525932   2.0825166
  11.7559314  53.3761930   3.8646978  11.7262542  53.7442780   2.9815975
  12.6590371  53.5129213   4.1509467  69.7292868  14.9695523  27.8085899
  69.2479721  14.5642789  27.0872545  69.4823853  14.4576199  28.5787845
  28.9329505  26.7661858  14.9687290  29.7345591  27.2719193  15.1024866
  28.4779835  26.8115926  15.8096671  63.2710635  50.4202414  45.2452755
  63.5124778  50.5678654  44.3308592  63.9637041  49.8551989  45.5876350
   2.8958705  20.0435376  14.5086062   2.2364174  20.6252146  14.8867655
   3.1771094  19.4930983  15.2394640  24.0958068   4.1978152  28.2073808
  23.4559689   4.2205079  28.9189458  23.6173477   4.5225890  27.4446011
  19.0980122  16.7804845  10.5663848  18.7657336  16.0542424  11.0940146
  20.0318328  16.5958436  10.4658031  58.5796698  19.8880445  58.5575851
  58.0498387  20.6810676  58.4761633  57.9605295  19.1711532  58.4198912
  60.5175507  19.2725253  24.3669367  60.0955367  20.0882745  24.6365452
  59.9979186  18.9686286  23.6227155  10.0910965  30.1801617  15.0045729
  10.0327782  29.3271668  14.5741725  11.0176376  30.4138596  14.9485457
  69.8367890  13.9556609  48.9032989  70.2542897  13.3418666  48.2989984
  70.5646416  14.4373571  49.2962794  51.7191902   2.8296754   1.9954510
  51.6187665   3.7775990   1.9083280  52.6657392   2.6911160   2.0282812
  42.3794186  70.0665522  53.8108778  42.9688060  70.8189535  53.8633013
  42.2399366  69.8076391  54.7217751  25.8779300  32.0932589   2.9149504
  25.0650345  32.3619474   2.4868889  25.6023253  31.4560972   3.5739631
  16.7255199   0.4925484  35.6748133  17.0501351   0.8971828  34.8703699
  16.8346977   1.1683983  36.3438063  46.3049745  30.8575116  59.1228404
  45.3708412  30.9337817  59.3172861  46.7365213  30.9821092  59.9681061
  23.0457128   9.2517169  47.6097393  23.9725856   9.4542392  47.4827576
  22.8354526   8.6397345  46.9044018  36.7633224  61.8443012   8.7601900
  36.6952586  60.9074450   8.9443034  35.9843659  62.2252703   9.1655570
   6.8614622  51.4645979   6.4941377   7.0151325  50.7028600   7.0530386
   7.4279066  51.3232729   5.7355852  67.4968966  48.5097610  57.7760430
  67.2787758  48.6940871  58.6896520  66.6536649  48.5132896  57.3230748
  27.4469200  15.6757386  27.3383760  26.9920506  14.8565324  27.1428442
  28.2387850  15.4050095  27.8030109  18.4603015   1.9391282  31.5851545
  17.7337859   2.1411021  30.9955645  18.3512578   2.5468905  32.3165679
  42.4737640  16.6263448  53.9139478  42.0511397  15.8525954  53.5412120
  41.9547834  16.8314754  54.6916454  69.7348261  26.8681812  42.7596283
  69.0631091  26.6040492  43.3883286  69.6306956  27.8165388  42.6821470
  21.4541745  62.7841091   9.6485746  22.1776700  63.4051180   9.7330290
  21.0374832  63.0133629   8.8178855  13.1750429  52.6645327   9.9440807
  13.8776946  52.5901079  10.5898142  12.5720716  53.3063936  10.3191411
  70.2985340  17.3420560  45.5365467  70.4974898  18.1818640  45.9505177
  70.8760762  17.3081434  44.7739697  12.0373416  59.5642328   9.5923513
  12.7454543  59.9574900  10.1024032  11.2820029  60.1289177   9.7561306
  70.5383193  41.6259432  54.3003178  69.6577632  41.9993019  54.2621231
  71.0020059  42.0304823  53.5671234  69.0503233  54.7056198  40.4136562
  68.5015148  53.9635658  40.1598787  69.5184141  54.4023418  41.1915684
  62.8459596  29.0574169   5.9714848  63.7678325  28.9737558   5.7278001
  62.6855123  30.0010228   5.9813511  69.5494842  44.0689516  30.8849311
  69.2951077  43.1945276  30.5901337  68.7238371  44.4916248  31.1213350
   1.6803904  46.2730905   7.2439880   2.4364419  46.5552828   7.7587528
   1.6062756  46.9270631   6.5489645  17.5722519   9.6838219  51.5890217
  17.9119430   9.9953111  52.4279594  17.0058385   8.9471467  51.8186140
  48.2508278  66.5993452  20.0579000  48.8907003  66.9570208  19.4423771
  47.4015570  66.8083286  19.6689367  13.0839610  44.9773836  13.0855978
  13.1159317  45.9313726  13.0140841  12.8983152  44.6766043  12.1960473
  17.8709233  70.2782440  36.4591241  17.5921750  70.0204468  37.3377991
  17.8884351  69.4595098  35.9635496   7.5027251  64.6713638  24.2835331
   7.2685379  64.3855381  25.1665330   7.0135319  65.4843807  24.1573262
  47.3361293   7.9102547  14.0985870  47.3540202   8.8289721  14.3666685
  47.4602834   7.4209769  14.9118674  59.4083492   1.7868932  39.1798186
  59.4929854   2.6986773  39.4585943  59.1284171   1.3206036  39.9675035
   2.7803141  39.6779394  16.4337373   3.0676755  40.1960897  15.6819546
   1.8379739  39.5705867  16.3045025   6.1123210  36.8286848  19.8276591
   5.8782548  36.5311289  18.9485085   6.1225510  36.0304856  20.3558683
   9.8180234  47.3411322  33.5452008   9.0883285  47.8240108  33.9332795
  10.4418242  47.2321320  34.2629910  73.5639742   9.3821938  12.9974484
  74.4750908   9.6606000  12.9047799  73.4802226   8.6354430  12.4045038
  68.0596137  35.3154278  40.3457594  67.5661152  36.1121321  40.1509380
  67.3971444  34.6252799  40.3783321   2.6124731  11.5722497  14.3909955
   3.3105818  11.6412385  13.7397540   1.8902747  12.0812447  14.0227854
  28.5852957  63.0427408  15.5588436  29.5083642  63.2916832  15.6058371
  28.4452748  62.8144741  14.6398652   3.1772637  63.9453650  19.2170000
   4.0922448  64.2261410  19.2026329   3.1127194  63.3030081  18.5102844
   2.4043313   8.9809592  15.5063844   2.5627366   9.8980840  15.2827287
   2.5585667   8.5052951  14.6901810   1.6620788  42.7490282  41.3229752
   0.7814820  42.6881933  40.9527302   1.7235720  43.6471176  41.6483688
  68.1550961  47.4834967  51.1963892  69.0974986  47.5893307  51.0663557
  67.7806854  47.5746489  50.3201818  69.0536082  50.7225227  36.1434054
  69.8491969  50.4473925  35.6878018  68.5410040  51.1786699  35.4760242
  14.5724821  52.6595974  18.4747469  14.1937292  52.6671696  19.3537927
  14.7753513  51.7388916  18.3092833  16.5425408  51.9323587  49.7670794
  17.1231687  52.3616028  50.3954506  17.0313680  51.1623907  49.4765091
   2.2643153  14.0322812   4.5949671   1.5734998  14.0979035   5.2542830
   2.0132176  13.2799752   4.0590289  25.9364367  43.6812830   1.0312372
  25.8450317  44.4459438   0.4627577  26.8587422  43.4362793   0.9566778
   8.4176463  25.4453254  23.6916184   8.6926627  24.5321584  23.6096287
   8.0930918  25.6767750  22.8213716  12.4729192  20.9409571   1.7845400
  12.8019953  20.5930686   2.6133427  12.4014175  21.8840003   1.9321549
  68.0758971  50.3967667   3.6483032  67.7350163  51.2552023   3.8995284
  68.7114715  50.1822472   4.3311349  51.3876534  61.7499352  31.6916418
  52.1222687  62.3583651  31.6117334  50.6259441  62.3116255  31.8349266
  47.1867525  47.8432369  17.5555289  46.9741142  48.4335136  18.2784319
  48.0568945  47.5065041  17.7692926   7.6231891  50.0681019  14.7972775
   7.2373372  50.1734686  15.6669021   7.5733417  49.1277695  14.6254611
   6.6413832  69.9633312   4.9445841   6.7395729  70.9148502   4.9792758
   6.4298040  69.7775745   4.0297282   4.6816525  39.9431729  18.4793818
   4.0589237  39.8602486  17.7571869   4.5056692  40.8083153  18.8492382
  51.6423879   8.5465490  45.9360700  52.1680527   9.3457948  45.9027140
  51.4775755   8.4070169  46.8685930  35.5611364  22.9621156  58.5618877
  35.2002624  22.5093110  57.7996826  36.3894144  23.3289082  58.2526159
   4.4805026  61.9052029  31.5357208   5.4102498  61.8458891  31.7554593
   4.4355676  61.6511726  30.6139398  33.1886335  40.9947406  60.2270788
  32.4009212  40.4606830  60.3296818  32.8863998  41.8941127  60.3536107
  63.3685513   3.2265578  57.8811138  63.2620653   3.9828359  58.4581192
  64.3121322   3.1716643  57.7298706  30.4525182   2.8436024  44.5266056
  30.5004064   3.6544879  44.0202475  29.5220981   2.7406295  44.7264719
  22.0291877  66.0740423  54.9545002  22.3129439  65.3294706  55.4849005
  22.4659085  66.8291426  55.3486252  16.0148931  67.2182989  22.5627232
  15.2719665  67.7553225  22.2872257  16.2986088  66.7740107  21.7637587
  56.1178636  66.6446209  26.6927242  55.3321969  66.1744308  26.4136505
  56.0393262  66.6981173  27.6451969  58.0967879  69.4686508  28.2866549
  57.7636409  70.0056028  29.0056300  58.9755428  69.8097229  28.1202459
   5.7114343  19.5756276  35.4090309   6.5191773  19.6588643  34.9022222
   5.4073850  18.6857064  35.2306533  54.7465408  41.7055178  38.2835388
  54.8588073  42.0704222  39.1613054  55.0001490  42.4161148  37.6945043
  20.3236127  32.1371746  10.4447663  19.5141912  32.6136589  10.2602828
  20.2890062  31.3739681   9.8680973  54.9256603  17.0170338  20.7915998
  54.1584388  16.4872105  21.0081530  55.6119767  16.6946919  21.3758039
  45.1132250  69.3033648  32.7070928  44.2925310  69.7890663  32.6246810
  45.7521915  69.8294258  32.2262430  11.5694761  51.3766956  28.9382839
  12.0032561  50.9612560  28.1929779  11.1771953  50.6501675  29.4225454
  57.5341082  68.2486105   4.6144667  58.0848026  68.9469337   4.9684650
  58.0734158  67.8374529   3.9389467  34.8864338  19.6115811  50.9581757
  35.7778934  19.8909409  50.7496262  34.4847623  19.4372590  50.1070023
  41.4258766  61.8811655  38.6296248  41.3266134  61.0861301  39.1533589
  40.9697008  62.5568819  39.1311646  23.5609078  50.0687218  22.2230244
  23.7344456  49.3581867  21.6055655  24.2400289  49.9765491  22.8912544
  32.8925419  56.1109066  26.0667825  33.6874509  55.5915308  26.1876035
  33.0942202  56.6900158  25.3318071  66.4597940  49.8288965  21.5780306
  65.9911716  49.1380978  22.0464587  66.3170361  49.6301174  20.6526446
  68.1931263  64.4581270  24.2242599  67.6762581  63.6713791  24.0507340
  67.8933948  64.7570944  25.0827527  17.0659316  35.9885979   2.9545298
  16.4650369  36.3279700   2.2912180  16.4949048  35.6365037   3.6373109
  56.9828883  35.9972794   8.5670197  56.2990896  36.2053521   9.2036951
  56.5184227  35.5685742   7.8481895  71.7932669   5.9213097  11.6098440
  71.7181412   5.0166018  11.3063741  72.5772492   5.9254105  12.1590114
   9.9803317  66.0013533   6.9584680  10.7740808  65.7240820   6.5009576
   9.4548494  66.4341736   6.2855893  20.2703214  66.3378239  33.9852977
  20.9510303  66.6158533  33.3724642  20.5020952  66.7642736  34.8103142
  41.3944165  26.6582139  51.1766195  41.6869108  27.4297841  51.6617584
  41.5582398  25.9255917  51.7704582  11.2763587  20.3502305   4.7260624
  10.7990757  21.1480553   4.9539107  12.1299712  20.6599839   4.4233525
  11.0185417  38.8409434  45.9710865  11.8978223  39.1688214  45.7824128
  10.8023866  38.2889281  45.2195661  34.4632707  37.0613892   9.4049644
  35.1764051  36.6010125   9.8473692  34.9027530  37.6557477   8.7968308
  47.3464552   0.0733168  36.7421412  46.5568677   0.4448970  36.3488078
  48.0086891   0.1348336  36.0537410  41.3800494   6.2808116  42.1827078
  41.2449864   6.2642987  43.1301880  42.2116844   6.7404826  42.0673037
  51.8898193  14.5778306   0.1143754  52.2825352  14.9360020  -0.6816896
  52.6332990  14.2569096   0.6247514  22.9786587  49.0022182   1.6609406
  22.1331763  49.4049883   1.4630379  22.8504729  48.5817051   2.5112179
  26.2832189  47.0497942  25.7619953  26.8669820  46.6470575  25.1191473
  26.4702773  46.5867472  26.5785909  22.7769859  24.1225645   6.3775749
  21.9984992  24.6476194   6.1918135  23.4831603  24.7630998   6.4627952
  61.1693994  10.3749211  22.9136658  60.4063717   9.8108609  23.0395985
  60.8339492  11.2628110  23.0375862  18.8708115  58.5335159  36.9754839
  18.7715781  58.8951778  36.0948110  18.8653159  57.5850058  36.8469071
  45.3029919  62.9655409  30.8337331  45.7454252  62.2219419  31.2430573
  45.9042788  63.6999035  30.9578037  62.7853131  57.8373957  26.0286736
  62.6727235  58.0958748  26.9434094  62.0334673  57.2742939  25.8446193
  33.1152487  28.6284733  17.3766530  32.7094769  29.3556547  17.8486550
  34.0178704  28.6104035  17.6947403  30.5336761  58.3151197  37.0054078
  30.1627874  57.9227972  37.7958250  29.7820973  58.4446049  36.4269638
  49.4406978  15.3446420  57.8511477  49.0608422  16.1532910  58.1947136
  49.8380510  15.6013329  57.0190096  50.8982436  15.2736886   4.3038666
  51.8371478  15.4430421   4.2263606  50.4831592  16.0741265   3.9825732
  13.0376279  61.8280077  16.8349719  12.2549653  61.9444704  17.3735881
  13.3715427  60.9653568  17.0810628  33.8371325  60.9462690  14.9643314
  34.2763400  61.7896128  14.8543286  34.3279934  60.3456306  14.4035053
  59.9971548  30.9886105   4.3552580  59.5154229  30.2558167   3.9716151
  60.4442970  31.3959248   3.6133742  11.6713476  57.1544790  24.0814877
  12.3563623  57.8228951  24.0958142  10.8860528  57.6097775  24.3852186
  44.3220512   9.1639312  11.9831049  43.5428587   9.3626006  11.4638543
  44.0414099   8.4707101  12.5805306   4.1214223  39.2737123   0.1796360
   3.5308381  38.8228580  -0.4238300   3.7896367  39.0521976   1.0497398
  60.1111785   1.2990363   5.6710744  59.9570075   0.4659207   5.2256733
  61.0069338   1.5365775   5.4314297  52.1823656  65.3236866  34.4167972
  51.4251983  65.7056952  33.9729524  51.8264138  64.5762062  34.8972154
  70.1736212  64.6508360  20.3529406  69.3893719  64.1416979  20.1480818
  70.7843399  64.4452000  19.6451485  68.4531954  10.9884961   0.8996330
  68.8093213  10.4814751   0.1700201  67.8598336  10.3834565   1.3446909
   7.2248311  35.9236499   0.7563562   6.4794321  35.7238027   0.1900740
   7.0555039  36.8117782   1.0706682  11.3265756  27.6054890   8.7086481
  11.9276539  28.2507832   8.3364546  10.4552296  27.9345639   8.4879684
  53.0665242  64.0649509  38.7697387  52.2582090  64.2269659  38.2833123
  53.1879580  64.8516703  39.3013024  44.8722223   9.4702084  23.9011002
  45.6596605   9.0967639  24.2969680  44.4610778   9.9670251  24.6084642
   0.6038889  46.9691764  53.8017385   0.9990820  47.8132354  53.5835086
   0.5499467  46.9699107  54.7574173  70.6904646  53.9332819  44.4266558
  70.9026274  53.7053394  45.3317833  70.6063974  54.8867607  44.4331884
   9.7651056  13.2031281   7.9365438  10.5737881  12.7037843   7.8229135
  10.0578121  14.1017754   8.0881894  21.1772398   4.9838860  15.6107354
  20.7476191   5.3992350  14.8629797  21.4148859   4.1116031  15.2962756
  23.6210847  63.0037022  14.6196496  23.7471843  63.0417919  15.5677426
  23.7272310  63.9089775  14.3273509  69.7017097  67.6788282  14.7945058
  70.2513790  67.0101833  14.3858373  69.4573259  68.2606745  14.0748084
  48.2290784  11.4513810  23.4715223  48.4220234  10.6050237  23.8748670
  47.5778142  11.8491490  24.0493321  16.8078041  60.7714605   2.5967029
  17.5742865  60.3268719   2.9587510  16.0915411  60.1472950   2.7133909
  32.2737241  67.1432686  18.1963801  31.3607645  67.3747587  18.3671129
  32.5208545  66.5842390  18.9330232  64.6088183  22.3595428  41.8068695
  64.9959087  21.5905738  42.2252941  64.2131602  22.0213890  41.0035372
  13.1916320  31.1656547  30.8334184  12.5163877  31.6685581  31.2887907
  13.9719629  31.7183208  30.8767128  59.6348166  64.9460363  36.6736531
  59.0712750  64.3095732  37.1136165  59.1471791  65.1953459  35.8886170
  27.9158585  49.3850783  58.3464663  28.2700793  50.2563074  58.1683670
  27.8551669  48.9706603  57.4857654   3.8058063  28.0577898  19.8370588
   3.1523168  28.6910224  19.5400763   3.3612362  27.2117925  19.7834134
  33.6548138  44.7691965  27.7206349  33.7490559  44.0475702  28.3424115
  33.3160067  45.4946375  28.2452059  67.5206119  39.7208929  30.6916714
  66.7501139  39.2284417  30.4087281  67.6296657  39.4863105  31.6132522
  36.6770120   8.1922552   1.6622562  36.0829718   8.9015552   1.9077034
  37.0307417   8.4589073   0.8137293  37.4466189  57.2068410  51.2684631
  38.1969448  57.7525406  51.0329723  37.7651914  56.3089244  51.1763191
  -0.0729767  48.6983936  32.2508526  -0.1443235  49.6529190  32.2459936
   0.8026799  48.5254233  32.5965929   6.1274487  28.2355833  24.2816162
   6.0654998  29.1453075  23.9904213   5.6726134  27.7356434  23.6038136
  44.1148235  62.2836988   9.0645820  44.1796692  61.3992815   9.4249058
  44.9382707  62.7042030   9.3122578   4.2465940  16.0795486   4.0984350
   3.4823668  15.5059528   4.1548043   4.7214484  15.9268546   4.9153987
   3.6190593   3.9327976   5.8264506   4.4929054   4.3001482   5.9594095
   3.4954154   3.9463386   4.8773664  35.4208998  64.5580676  53.4307062
  35.1211755  64.7026757  54.3281948  35.5565838  63.6122945  53.3729588
   6.8927610  40.5662394  37.1379972   6.9446027  39.6204329  37.0001841
   7.2986525  40.9445333  36.3580132  31.2427163  16.1919224  10.2103925
  32.0456052  16.6053534  10.5276847  30.7722902  16.8948674   9.7622877
  33.1344889  69.3853882  36.3355951  32.7797513  70.2039865  36.6824250
  33.2000391  69.5334390  35.3921895   6.5218210  67.4664307  23.9929414
   7.0364368  67.8918505  23.3070683   5.6176227  67.5232697  23.6840272
  73.2643144  58.9012194  43.6029816  72.5113785  58.4031248  43.2848263
  73.7127447  59.1910744  42.8085470  14.6900487  37.8477955  14.3307519
  14.4398928  37.9507422  15.2489328  14.4535410  36.9450426  14.1178417
  29.3116665  30.4927349  14.6190000  29.6894288  30.8536506  13.8169622
  29.8747802  30.8233738  15.3188658  65.9353129  49.0811280  45.3960650
  65.4419390  48.3114174  45.1125877  65.8330886  49.0940276  46.3477032
  58.8573444  31.6539097  20.7369900  58.7758755  32.1849322  19.9447727
  58.9761138  30.7602882  20.4151726  66.1355221  54.7200823  53.7818289
  66.3200682  54.2626858  54.6021700  66.9833773  55.0680828  53.5056543
  68.6564823  56.6470329  19.0401483  68.5144921  55.8705466  18.4987247
  67.7810915  56.8950157  19.3375158  33.4969827   8.5123836  48.6376779
  34.3039008   9.0179931  48.5403531  33.7911900   7.6395665  48.8981955
   2.4971457  44.0653467  45.2847338   2.8035390  44.8748636  44.8760319
   3.1743580  43.8495064  45.9258509  43.1781904  11.3365395   4.2794588
  42.3024682  11.0817178   3.9889339  43.3021072  12.2163518   3.9233589
  10.6886566  32.2134495  31.8284726  10.1791835  32.2688723  31.0200191
  10.0322413  32.1274710  32.5198174   5.5073851  47.9831076  15.2363670
   4.6494749  47.6742744  15.5276477   5.3247261  48.8072824  14.7851419
  52.3409626   2.8049480  42.3906653  52.0401106   1.8965064  42.3693280
  51.5623624   3.3096443  42.6258140  65.0053239  33.7490487  25.9215164
  65.1442522  34.5422459  25.4040575  64.3408155  33.2598925  25.4363489
  70.2255159  58.8579226  15.6389391  70.2344286  57.9745150  16.0073745
  69.2994034  59.0431833  15.4832959   5.4374212  21.4210534  28.8860321
   5.4301178  22.1436024  29.5138097   6.3656574  21.2297535  28.7518167
  67.8244316  39.3384171  33.5424781  68.7269008  39.1076803  33.7628007
  67.4588525  39.6809626  34.3581033  11.5961802  33.2196450  35.8824134
  11.5059912  33.7889838  35.1182485  11.1563480  33.6941290  36.5878534
  40.5829557   9.5160018  45.1148682  40.1984783   9.6623717  45.9791510
  41.4031460  10.0092183  45.1309424   8.5567617  17.2137094  28.8229370
   8.4001380  17.0749021  29.7569776   9.4768739  17.4722528  28.7701964
  69.3369615  47.8799772  30.7662654  69.5176530  47.2072315  30.1097631
  70.1025098  48.4538841  30.7380748  72.8732630  39.6142530   8.8527560
  72.6608659  39.1558957   8.0397195  72.5611007  40.5081606   8.7123370
  62.5660169  42.1120214  35.1934195  62.8526580  41.6689730  34.3948102
  62.8091097  41.5135288  35.8997774  65.3001559  36.5219259   5.8459646
  66.0785496  36.5931058   5.2934533  64.6759689  37.1369433   5.4607666
  20.2528071  31.2431693  13.2078350  20.4227042  31.7764878  12.4313438
  20.8670354  31.5727353  13.8638377  46.9527807   3.6674105  53.1675826
  46.7144164   4.0778218  52.3363327  46.1611660   3.2043778  53.4417718
  74.5889801  23.3562589   7.7032244  73.6549572  23.3409262   7.4944228
  74.6232538  23.2600451   8.6549598  74.0772315   9.7675811  58.1627615
  74.2900034  10.4212676  57.4966871  74.6210118  10.0051604  58.9138224
  11.9314913   4.3155463  18.9490247  11.7534677   5.1867898  18.5947990
  12.7307943   4.4251569  19.4641292  11.5292716  39.5577860  40.9224892
  10.9413612  38.8261652  41.1104345  11.2453961  40.2520323  41.5171909
  27.5554705  27.5721145  19.7536206  27.4173403  28.4261918  19.3441045
  26.8200660  27.0395112  19.4507229  12.5971655  53.5164979  55.9560757
  13.4229140  53.3281604  55.5100935  12.1614091  54.1563526  55.3931074
  49.7502527   8.2876645  42.0762520  48.8800156   7.9938327  42.3456650
  49.9409983   9.0294181  42.6504021  19.0248032   2.3718225  35.0561075
  19.3022295   3.1857740  34.6356945  19.2408486   2.4940144  35.9805660
   1.1362757  38.7750435  12.5088131   0.9542362  39.5268583  13.0726099
   1.9325492  38.3891463  12.8738666  19.1706419  47.5120354   4.1637081
  18.3106637  47.1313524   4.3418908  19.6863461  46.7854977   3.8138139
  69.2662048  41.7015171   5.1289791  70.2152958  41.7577457   5.0180900
  68.9339423  42.5242233   4.7698331  54.3551020  56.1798051  58.5652577
  54.2928128  56.8584469  57.8930997  53.9219765  56.5594509  59.3297858
  47.6539100   6.1890899  44.6202629  46.9697692   5.6848680  45.0606530
  47.6631819   5.8495675  43.7253480  29.6080494  54.5403337  13.6057889
  29.5472050  53.6645651  13.2242656  30.1618528  55.0289249  12.9968441
  28.2640190  62.0117095  45.9869390  28.3914767  61.2606529  46.5665071
  27.5179668  61.7676428  45.4391532  12.3857450  36.4320540  24.1374445
  12.2896922  37.2799158  23.7037015  11.5768194  36.3261318  24.6380973
  51.3695613   5.1667722  10.4413629  51.3674489   4.2099984  10.4128587
  50.7380716   5.4277547   9.7710329  61.7840250  11.5648852  59.2892555
  62.2294815  12.4074851  59.2007785  60.9774311  11.6661559  58.7839030
  11.5540993  23.4921265  37.5405598  11.9366527  24.3006015  37.8815150
  10.6103778  23.6089563  37.6499820  74.2305343  29.7328520  47.0075274
  74.6574660  30.5844450  46.9139814  73.5950061  29.7036886  46.2923431
  50.2044738   2.8879176  52.8718399  49.8843580   3.7630974  52.6531612
  49.8763896   2.3297893  52.1667986  71.3949921  67.2824478  33.4279346
  71.5545812  67.5292921  34.3388867  71.7402035  66.3924885  33.3569407
  12.2348130  67.4456978  34.7848153  12.0603085  66.8564653  34.0509343
  12.6105690  68.2275343  34.3801236  14.9955510  43.0974981  55.4376112
  14.7369818  43.9875397  55.6767743  14.8684995  43.0577120  54.4897156
  71.8808409  16.4759885  43.4484523  72.0220443  15.6572162  43.9237445
  72.1438952  16.2794315  42.5493412  17.5222361  13.1168890   4.6661213
  16.9712090  12.9812407   3.8952777  18.3199453  13.5191655   4.3225145
  41.1412065  54.4422665  58.5277097  40.6613724  54.5156279  59.3527005
  41.2765579  55.3476337  58.2480292  16.0219777  56.5406990   3.5655507
  16.0125375  56.6765785   4.5130101  16.6232789  55.8075237   3.4347168
  26.0650802  24.4430065  12.4837828  25.1316524  24.3026876  12.3248720
  26.2136078  24.0936899  13.3625031  73.1912742   3.2480806  44.1169930
  72.7760911   2.9345047  44.9204397  73.0114233   4.1881636  44.1056108
  68.9766594  11.3090907  45.9649317  68.5895892  10.6516086  46.5429669
  69.7269126  11.6464101  46.4543872   3.3575301  46.5827325  55.2196013
   2.9058747  45.7501486  55.3576027   3.6603574  46.5434483  54.3124168
  19.7578728  23.5803795  23.2920504  19.4899249  24.3884635  23.7295842
  20.7136798  23.5857940  23.3434081  53.1055295   3.5374352  15.3283703
  52.2094786   3.4361717  15.0073266  53.1401312   4.4334650  15.6632805
  32.3667940  34.5716249  56.4062705  31.4453443  34.8304330  56.3928168
  32.4504002  34.0240394  57.1869068  22.6437330  22.6561570  22.2211719
  23.5226154  22.5168443  21.8684816  22.3508024  21.7841220  22.4857044
  25.9578800   7.8584200   1.0164526  25.8080935   8.8010406   0.9439130
  26.7214203   7.6939511   0.4631097  56.2221741  59.3755102  29.3471289
  56.6536057  58.9460421  28.6084414  55.6276631  58.7115288  29.6962976
  55.2345776  31.4843488   5.1719415  55.4923093  31.4522696   4.2506510
  54.9629664  30.5894566   5.3759652  21.4062619  39.1682410  19.6822774
  21.4244628  38.2158208  19.7760522  21.2610602  39.4936538  20.5706787
  19.6156720  19.9396642  31.0015178  20.3258819  20.5360444  30.7645106
  19.7979496  19.1412480  30.5060077   7.4461043  54.8846531  29.6428180
   8.1912631  55.0408363  29.0626645   7.7846843  54.2910576  30.3130674
  11.7991602  70.3550673  17.7182579  11.9019842  70.7394266  18.5888481
  11.1466062  69.6648693  17.8367090  70.4847583  25.4166770  54.5915556
  70.8092582  25.8592653  55.3758049  69.5706111  25.6919050  54.5221472
  11.8306100  41.8504381  21.6458559  11.3624668  41.0670042  21.3572216
  12.2582066  42.1789360  20.8549833  71.4562025  20.5887580   9.6186489
  71.1243835  19.7961473  10.0404274  71.0476613  21.3065267  10.1025236
  52.3376643  67.3899508  29.1153169  52.3707211  67.0853424  28.2084799
  52.7250731  68.2648325  29.0883732  14.7401381  35.1526189   8.9522743
  13.9606452  35.6287265   8.6660194  15.4692364  35.6189418   8.5433865
  71.0977622   8.2502566  58.1965365  70.2639910   8.7200271  58.2158541
  71.5149113   8.5360299  57.3837941  33.5213017  64.2834234  12.1427989
  33.7075090  65.1445103  11.7685127  32.5698805  64.2680788  12.2466886
  54.9099769  29.3661605  56.1406400  55.2002033  28.7625419  55.4567926
  55.7204153  29.7115670  56.5149577  26.4088082  19.2257118  19.8290372
  26.7037749  19.1842246  20.7387114  26.1259890  18.3336127  19.6280313
   8.7587756  59.7895050   1.3072820   9.1962957  58.9927864   1.0072120
   9.2727768  60.0750494   2.0625958  13.9914453  13.2952571  53.8071060
  14.6870136  12.8509951  54.2919207  14.2990911  13.3038628  52.9007292
  25.9250665  53.7377977  31.6102195  25.2229500  53.1213045  31.4023685
  25.5559659  54.5978022  31.4092517  61.1411965  15.4482698  43.6263323
  60.9110296  15.9221554  42.8271532  61.4881158  16.1210382  44.2122173
  71.7726779  35.0815272   6.6340482  71.2021365  34.7328019   7.3189610
  72.0008725  34.3196082   6.1014736   6.5287030  23.7521982   1.3535494
   6.5941924  23.6295462   2.3005971   6.0211295  22.9999089   1.0491408
  19.0479922  24.3795800  18.5081434  19.2967498  25.2478218  18.8251710
  18.1661010  24.4971275  18.1550407  47.0821142  12.2906506   6.1689001
  48.0292463  12.3228753   6.0342270  46.7125273  12.6269054   5.3524631
  21.2739182   1.2794602   7.7272260  21.0359550   1.9919983   7.1340185
  22.0642877   1.5896246   8.1692064  58.3975925  12.0393239  40.5093270
  58.4577729  12.2072183  39.5688896  57.8758933  12.7662002  40.8494907
  63.2795953  13.6281681  29.2590213  63.6746442  14.4460344  28.9569259
  63.1167888  13.1305182  28.4577274  19.5015208  44.1105804  60.2004856
  20.3788982  43.7681017  60.3712164  19.2264549  43.6735389  59.3945292
   0.7191215  46.4117622  22.2339368   0.1591809  45.9905243  21.5818191
   1.5602899  45.9620571  22.1537185   7.5882387  50.8818293  42.6808929
   7.6446986  51.0092974  41.7338991   7.0502329  51.6110802  42.9890680
  73.0191737  59.4693375  40.7572746  73.4145874  60.2739477  41.0926580
  72.0964861  59.6905088  40.6309319  22.6467896  23.9725232  35.7772398
  21.9890666  24.6195817  36.0320902  22.2598696  23.1304812  36.0170054
  37.8276523   9.9015533  43.7421923  38.6377450   9.7418414  44.2264157
  37.7471896   9.1496478  43.1553404  22.5186130  54.5592550  51.5566181
  23.3003883  55.0563696  51.3159185  22.8575344  53.7424818  51.9230144
   3.1655735  34.3047047  14.2862594   4.0416598  34.0598798  14.5841944
   3.2675704  35.1942420  13.9478016  73.8846593  14.4081736  10.7412469
  74.0161196  13.4643567  10.8315790  74.1638896  14.6043825   9.8469508
  30.9653711  21.6039300  26.3877201  31.2475681  21.1458778  27.1794176
  30.1827240  21.1315918  26.1038303  62.5433051   8.6258096  34.0592432
  61.9847667   8.1472063  33.4467030  62.4118161   9.5467538  33.8338447
  12.9437534  15.1723225  40.3797579  12.9405836  16.1213048  40.5048800
  13.8621548  14.9209149  40.4775476  57.3689977   8.8575204   6.6434628
  57.6147024   8.4715636   7.4842358  56.4867965   9.2004855   6.7860353
  11.3430846  18.7406576  34.9256206  12.0931101  18.1507003  35.0007439
  11.7284143  19.6166539  34.9060845  57.3344870  31.2553702  47.8025286
  58.1175592  31.3999568  48.3336823  57.2722973  30.3036224  47.7216594
  51.1136059  13.9163362  45.9183293  51.9638365  14.1534291  46.2886362
  50.5294885  14.6257888  46.1861293  15.1667857  66.6121721   0.6150238
  15.2494431  66.0285711   1.3692176  15.3073645  67.4884272   0.9736915
  44.4979992  39.5045386  54.7264855  44.5019706  40.2254306  55.3561883
  44.7977354  38.7465297  55.2282970  62.9555130  67.9921627  22.1866059
  62.3226690  68.6923933  22.3460269  63.7942839  68.3592415  22.4657893
  38.4478184  12.5714790  42.6952534  38.1395634  11.6838657  42.8778784
  39.3834062  12.4689780  42.5208955  37.4179415  46.6908277   0.1725693
  36.9672517  47.4820496   0.4676599  36.9492070  45.9744121   0.6006641
  22.9448843  31.9375682  35.4477048  22.9829526  32.1586013  34.5171523
  22.7693057  30.9967399  35.4634190  15.1835120  45.9468269  23.1276631
  14.8349166  45.1545048  22.7190828  16.0521805  46.0538435  22.7401161
  39.2042685  69.7061872  26.9960546  39.1703010  69.5920658  26.0462880
  38.5918880  69.0546179  27.3376346  57.9780924  37.9679799  19.7543967
  58.0976355  38.6346078  20.4308200  58.4382868  38.3163643  18.9907980
  35.3537568   5.4293834  60.3721465  34.9585088   6.2994157  60.4273891
  34.8842188   4.9110709  61.0256902   5.4472142  42.4174213  19.5892859
   6.1938584  42.5990629  19.0185308   5.5832118  42.9835558  20.3490448
  15.3769851  40.7885933  10.2050698  15.6894994  39.9774599  10.6058574
  15.8444238  41.4816856  10.6712782  70.8997953  51.2204123  16.9106281
  70.6927010  52.1477604  17.0262563  70.8855581  50.8594847  17.7970600
  13.7407172  41.6806221  17.7954841  12.8979015  41.9943571  18.1233001
  13.7513149  40.7489872  18.0149817  29.4001222  65.8120346  33.2843518
  29.4823265  64.8717022  33.1254792  29.9475360  66.2173271  32.6118135
  22.9998112  28.3836770  25.7853556  22.6748395  29.1735196  26.2175274
  23.9302874  28.5554385  25.6406355  22.9290096  23.1788380  13.2062912
  22.1613971  23.7253411  13.0379355  22.6758075  22.3087247  12.8980434
  58.7672066  32.8310966  28.4052491  58.3861971  33.4194398  29.0571046
  58.2215249  32.9494429  27.6277781  74.1560856  40.1372719  24.5804310
  75.0237696  40.5368710  24.6410871  74.3128638  39.2026615  24.7151661
  24.3240023  31.9647455  21.2376833  24.7397375  32.8111196  21.0732269
  25.0474977  31.3380265  21.2352848  36.5760469   0.5641754  14.7067940
  35.6244326   0.5524877  14.6042061  36.7277861   0.1936338  15.5762231
  13.7765038  19.8876441  26.8585896  14.0963411  19.4292855  27.6356626
  13.6569500  20.7926321  27.1465755  31.1523072  66.7813114  51.3164513
  31.1309229  67.7028349  51.5744536  30.9572701  66.7903570  50.3793757
  18.6279845  43.5897112  28.2966328  17.9137754  43.5628939  27.6599097
  18.2384646  43.2623672  29.1074038  67.0478260  39.8470926   8.0154854
  66.8372345  39.0253091   8.4588289  68.0039185  39.8567843   7.9704803
  62.4450087  67.8867102  43.2792616  62.0521784  67.5470638  42.4751711
  63.3417392  68.1116676  43.0312681  20.0362873  64.3217564   0.2830545
  20.7440495  63.7795162  -0.0651981  19.4249308  63.6965370   0.6723829
  61.8763911  34.8941636  23.3532143  62.0186591  35.7053971  23.8409567
  62.7200806  34.4432974  23.3869720  30.9496700  21.0839152   7.0295465
  30.6360829  20.2308297   7.3297769  31.6066324  20.8772087   6.3647854
  21.8388196  13.0088721  38.5087543  21.4369961  12.3144113  37.9867439
  21.8531557  12.6605998  39.4002323  53.7388134  39.4435525   4.9775687
  53.6112595  39.5469546   5.9205794  53.7913895  40.3389740   4.6433783
   8.4864956  33.4738159   1.2025446   9.3777519  33.5868621   1.5328687
   8.2084298  34.3561530   0.9567911   8.5504469  10.1701127  47.9997032
   8.3122643   9.5233070  47.3355143   8.2671674  11.0070048  47.6314740
  20.6205821  44.5042467   6.3863569  20.1755142  44.0665483   5.6607074
  20.2790046  45.3983212   6.3725090   5.1613969  66.4091969  10.6398380
   5.0481528  67.3473024  10.7926810   4.2869666  66.0972071  10.4068863
  35.8895397  57.8279352  18.1990159  36.7895341  57.5808382  17.9864526
  35.3490329  57.2546530  17.6554751  72.0009327  29.4461870   2.6954645
  72.4424039  29.0416455   3.4422451  71.4330822  30.1113486   3.0844867
   2.6056245  60.3367329  11.8958783   3.3430231  60.4717016  11.3006818
   3.0120036  60.1464844  12.7413917  24.5761108  26.2085438   6.2399828
  23.9506936  26.7442226   6.7279702  24.3485951  26.3518071   5.3213185
  18.6167172  10.8812554   2.0454095  17.7726904  11.2961800   2.2234201
  19.2342130  11.3406499   2.6145196  66.7507523  25.7620406  25.2283216
  66.7133105  25.9984708  24.3015361  67.2354293  26.4781594  25.6387997
  14.5385969  21.2323713  21.7546082  14.2479599  21.8191957  21.0564685
  14.9525797  21.8098092  22.3960233   2.0367259  50.0677919   9.7129720
   2.1746202  49.6654844  10.5705082   1.1169348  50.3327274   9.7178227
  50.1920652  12.5385642   3.7490532  50.3868294  13.4589267   3.9257741
  49.4323111  12.5619519   3.1672803  62.2315895  48.7463236   6.9969714
  61.9637155  48.6598396   7.9118460  62.7806937  47.9792738   6.8346459
  50.4346315   8.8234694  21.0551906  50.4171220   9.7803052  21.0748863
  50.6709639   8.5698254  21.9474030  41.3582197  15.5319817  44.7748327
  40.6352381  16.1579926  44.8153448  41.8672315  15.8030541  44.0108585
  66.4413738  61.2204504  12.1982265  65.7967424  61.5120220  12.8429520
  67.0907736  61.9232559  12.1740985  16.1052358  50.1689863  18.0621004
  16.0834777  50.6174707  18.9074516  16.4894617  49.3136692  18.2545614
  57.9203606  63.3574152  21.2013149  57.5071239  64.1616774  21.5153670
  57.5262833  63.2052803  20.3423667  13.3228767  36.7975283   2.2654271
  13.3327496  35.9765315   1.7733938  14.1581142  37.2140837   2.0530772
  32.8309035  57.9085445  28.9892077  33.4597802  57.7318287  29.6888614
  33.3712578  58.0546618  28.2127428  38.7414050  55.7063246  11.4817464
  38.2507205  55.4715490  10.6941295  39.6031189  55.3095531  11.3542533
  22.7716136  56.2928820  29.6968865  23.2956386  56.6969919  29.0052748
  23.3829904  56.1777782  30.4243517  22.0491076  21.1232519  19.3787968
  22.1711230  21.8879938  19.9413931  22.6704955  21.2515664  18.6621082
   2.7298244  40.7365953  42.6144760   2.3402890  41.5814887  42.3894208
   3.5977610  40.9557019  42.9534643  19.7521666   1.0879929  13.1480849
  19.6334747   0.1400073  13.0891812  19.2084054   1.4416488  12.4441803
  65.7482618  29.2989635  33.8698506  65.0334930  28.9703298  33.3245659
  66.0539090  28.5309482  34.3525147  55.4243585   8.1071244  56.3865383
  55.4235770   9.0510474  56.2276565  55.6152125   7.7205526  55.5319231
   0.4580840   1.8376146  45.8048980   0.1626142   1.2076031  46.4621751
  -0.3132883   1.9953571  45.2605324  71.5301642  16.8702710  27.7963495
  70.8668613  16.1804664  27.7756214  71.5198844  17.2390532  26.9131017
  32.1491575  51.9581366  26.5714335  32.2888541  52.2087479  27.4846220
  32.9782844  51.5629387  26.3019991  23.0948448  34.2242718  18.5125959
  23.2135201  34.9937057  17.9557121  23.4350586  34.4917655  19.3663728
  17.6426339  52.4956083   1.8099253  17.5798500  51.7003012   2.3388638
  16.8505025  52.4890471   1.2726018   0.2694966  62.7064562  39.4693923
   0.9984311  62.2554445  39.8953915   0.2034501  63.5430002  39.9298978
   8.3648765  42.6321316  24.7475243   8.3827031  41.6889000  24.9094653
   8.7197006  42.7301979  23.8639426  15.9818504  14.5030053  13.7976325
  15.4727588  14.6433289  14.5959854  15.6723783  13.6621220  13.4609163
  34.2601303  17.7394231   9.1727579  35.1427356  17.6938374   8.8051164
  34.2269621  17.0220979   9.8056692  27.2551036  39.3936396  12.5660849
  28.0740499  39.3021679  12.0790637  27.4853325  39.9328804  13.3226871
  73.0793014  66.7671108  30.5635667  72.9323664  67.6780081  30.3087950
  72.2130710  66.4456367  30.8136272  63.5833271  55.1354133  37.6010709
  63.7065133  56.0703860  37.4371009  64.2498120  54.9166118  38.2523446
  16.0689995   0.3250964  12.0654595  15.9556547   0.9988292  12.7358866
  15.6270573   0.6786378  11.2934971  21.6481185  67.5979185  18.1780887
  22.2183442  68.3107662  17.8901339  20.7612753  67.9233456  18.0236971
  25.0464439  61.4064550   2.2828020  24.4239235  61.7317152   2.9331127
  25.7641053  61.0409212   2.8000823   4.1069242  67.8607225  19.1479003
   3.8593403  67.1084785  19.6855485   5.0022644  67.6706171  18.8677990
  28.6767793  55.9520006   4.6733820  28.2101345  55.4148149   5.3136230
  28.2410312  56.8033886   4.7120452  65.0154614  52.4033451  36.3437295
  65.2767819  52.6270628  35.4504800  64.6642697  53.2186127  36.7018318
  58.8216194  27.7079736  55.5138712  59.7037681  27.6118766  55.1549684
  58.2464709  27.3611365  54.8318582  23.7347744  65.0026396  52.9922002
  24.5834888  64.8554161  52.5747787  23.7179047  65.9419039  53.1758558
  49.8398542  66.3182497  11.1077535  50.7365513  66.6524458  11.1294997
  49.2935705  67.1019316  11.0473239  40.4070263  60.6850460  56.2935488
  40.5392222  61.3397315  56.9792186  41.2554590  60.6231311  55.8547311
  11.1879524   8.4141313  51.5581738  10.8872708   7.7913867  50.8963494
  11.0864457   9.2712079  51.1442285  55.9670242  37.2117721  59.5523617
  56.2645527  36.4925300  60.1094924  56.0848173  36.8876086  58.6594604
   2.8005111  59.5449972   1.1617108   2.9998338  58.9459610   0.4422298
   2.5991762  58.9720631   1.9016045  16.4857900  32.3245192  19.5282662
  17.2112870  31.7006159  19.5533764  16.5848553  32.8394103  20.3290820
  24.0315465  16.1914094  48.0475998  24.9081104  15.8534558  48.2310534
  23.6914608  16.4522965  48.9034700  74.1775820  61.8546534  17.4494970
  73.8486393  62.3661757  18.1886685  73.6618243  61.0484934  17.4676967
  58.2249204   2.3965342  53.2356644  57.7341739   2.5823863  54.0362024
  57.9735318   1.5028079  53.0026579  45.5788556  14.1473897  26.1670661
  44.6429185  14.1404660  26.3675761  45.7504407  13.2824261  25.7947254
  32.4286703   7.6304801  37.5838327  33.2414780   7.5839503  37.0804334
  31.8218122   8.1048377  37.0155549  51.0669485  27.1189462  56.5643345
  51.5787633  27.9274236  56.5390601  50.3810651  27.2897540  57.2097947
  50.7839899  47.5375262  50.8767288  50.1518063  47.6981548  51.5772824
  50.2582531  47.5295511  50.0768738  10.9146249  57.0901775   9.6651202
  11.1636901  56.9406462  10.5771720  11.0041261  58.0354929   9.5442957
  69.6286694   0.3010876  11.8936121  68.9218966   0.8812125  12.1767282
  70.4303948   0.7785638  12.1068788  70.5296200  25.8060741   8.0481058
  69.9145210  25.3913713   7.4432039  70.4448926  26.7429209   7.8709906
  73.2866999   0.2426301  60.6891068  73.4283014   0.6214701  61.5566672
  73.7342902  -0.6028737  60.7210020  32.0361408  30.5879794  53.4446775
  32.6051315  31.3381539  53.6170666  31.1580785  30.8971559  53.6674999
  30.0127713   7.2724135  15.3320324  30.1357780   8.0704530  14.8179948
  30.0880036   6.5626796  14.6941829  25.3760552  65.5800343  28.8410902
  25.0814342  64.6696758  28.8672519  26.3207054  65.5303526  28.9873743
   8.8103139  17.8470147  15.2368140   8.7598890  17.0704520  14.6794629
   7.9517883  17.8962553  15.6572199   1.9207124  64.0939236  24.9969769
   1.8429340  63.2380104  25.4183960   1.1262470  64.5611668  25.2553153
  30.3849983  59.5410585  29.3732119  31.2190604  59.0815592  29.4703245
  30.0993419  59.3334484  28.4835291   4.9752790  54.0884686  39.0033460
   4.4350684  54.7824478  38.6254668   5.8290291  54.4983721  39.1423416
  14.3343457   1.0965859  24.0181904  14.9490222   1.7636739  24.3238049
  14.8750361   0.3194772  23.8768034  41.0156536  49.9001789  20.4444623
  41.8131685  50.3400230  20.1499391  40.7676601  49.3374300  19.7109461
   1.4498587  49.7315407  15.4172587   1.3475066  50.0269699  16.3219571
   1.5939195  50.5352306  14.9177015  51.5242595  20.5102836  53.8997429
  51.2587377  21.2315951  53.3292644  50.7489674  20.3266107  54.4302313
  50.6223766  11.9172318  25.0243068  50.3042904  11.0247929  24.8879075
  50.2820484  12.4095948  24.2773199  46.6203525  36.5392076  58.6597854
  46.9866445  36.7093860  59.5276000  46.8766596  35.6379520  58.4641542
  39.7154737  40.1585627  18.6327279  40.0980663  40.8586645  18.1038499
  40.0515079  40.3142405  19.5153809  23.3697691  16.4625294   6.1256117
  23.5352490  17.2561391   6.6345680  23.5585455  15.7458146   6.7313457
  70.3206411  65.8983898   1.3552617  70.7813009  65.2470016   0.8263755
  70.9961852  66.5321207   1.5966220  17.4620712  66.9334364  16.4098704
  17.4795938  67.1928883  17.3310697  17.6569116  65.9963465  16.4212179
  36.5568089  57.7117682  11.3520646  37.2843814  57.0911551  11.3933825
  36.8346310  58.4435606  11.9029963  53.7395966  28.0649853  53.0516624
  53.6119163  29.0096903  53.1380367  52.8615629  27.6951885  53.1440878
  57.1654145   0.0312503   2.3734130  56.2183372   0.1006539   2.4936602
  57.5358263   0.3716595   3.1877509  55.5082623   9.3586810  15.9945679
  54.7611419   8.8732274  15.6447470  55.6472293   8.9888127  16.8664157
  34.6889496  53.9751482  20.9094954  34.6323276  53.0261803  20.7977700
  34.7701859  54.3167305  20.0190163   9.9063762  30.2936946  51.4659594
  10.3213295  29.6979343  50.8421688   9.0359982  30.4540740  51.1013292
  29.5056725  59.2258072  26.7286682  28.5851145  58.9953804  26.6033316
  29.9899793  58.5005903  26.3340259  17.6954556  39.9753022  22.1312094
  17.9785442  39.0614820  22.1632552  17.9714501  40.2813864  21.2672830
  18.7896895  57.8884649   6.0129517  19.7434711  57.8297567   6.0685104
  18.5422373  58.4607506   6.7392331  16.8582928  18.5450923  14.9559820
  16.3225389  17.8110075  14.6554494  16.4712369  18.7965834  15.7945347
  59.2531972  49.3943039  43.2484799  59.9116258  48.7232307  43.0685811
  58.5183529  49.1677442  42.6784747  49.5017723   6.8859588  56.3126298
  49.9185230   6.4123689  57.0325347  48.6476637   7.1446334  56.6587790
  17.5787449  60.3009319  31.0758996  18.0380058  60.8188391  31.7370248
  16.7535973  60.7660532  30.9379697   2.6833290  57.3433876  17.9959369
   3.1145436  58.0840015  18.4222937   2.9755616  57.3877954  17.0855188
  46.5886132  10.1667817  15.5204129  46.4618675   9.7538789  16.3746226
  45.8419172  10.7583840  15.4271936   5.4337966  69.7646666   7.4083138
   5.7489073  69.8787832   6.5117013   6.0535175  69.1516590   7.8037870
  11.3477337  51.1142159  25.8252168  10.7881618  50.3592682  26.0073280
  11.1941957  51.3086700  24.9006391  17.8255928  50.7974911   6.6006047
  17.8107250  51.2320948   7.4533242  18.1985223  51.4486694   6.0063642
  72.9906253  58.6321545  27.2045350  73.5953784  59.3740988  27.2096419
  72.9816560  58.3242273  28.1108093  39.4134104  59.0017605  50.3571796
  38.6894834  59.3954659  49.8701906  39.8861038  59.7470379  50.7277966
   9.5795423  59.1405344   6.5817064   9.4227028  58.8478804   7.4794734
  10.4622173  59.5103216   6.6010845  44.3753508   9.9175866   7.8118503
  44.7991303   9.7853978   6.9638121  43.5801426   9.3866236   7.7675766
  70.9059319  47.1056700  14.3144763  70.5235162  46.7182922  15.1018310
  70.8911681  48.0483437  14.4799244  23.3418107  64.2757463  36.3833618
  24.1588712  63.8814354  36.6885805  23.5695481  64.6816158  35.5469179
  12.5984116   8.5909520  53.8896285  12.2494312   8.5787116  52.9983967
  13.2831736   9.2594777  53.8695555  42.8495923  24.9692853  10.8413291
  42.5017778  25.7254727  10.3686380  42.2541562  24.8552544  11.5820634
  59.7995043  58.9708567  17.2058225  59.0051174  59.4226980  16.9211829
  59.8292494  58.1782293  16.6700149  54.9363613  67.9753113   9.7954285
  54.3699503  67.9444456   9.0244198  55.6965971  68.4842491   9.5139050
  49.7829411  18.3530627  41.5684359  49.8692092  18.5773955  42.4949687
  50.6275946  18.5894166  41.1851244  67.2865359   0.1150019  32.6051617
  66.6876141   0.0555547  33.3494663  67.2166888   1.0240205  32.3135376
  66.6039043  62.0493126  41.9783878  67.1680176  62.6048946  42.5162935
  66.4597136  61.2672615  42.5111437  73.7077856  47.9965162   9.4346529
  73.9585114  47.1386290   9.0920097  73.5288143  48.5227060   8.6553448
  46.1843697   6.1611207  40.6069660  45.7073895   6.5782483  41.3244104
  46.9565836   5.7783301  41.0233641  23.9316583  37.1235204  35.6689811
  24.4514132  36.5371060  36.2187123  24.5519543  37.7923512  35.3789282
  25.3592944  53.3270264   2.8575748  24.9515533  54.0018320   3.4003580
  25.5167222  53.7580824   2.0175514  18.7004367   9.2972882  13.5493159
  18.7807963   9.5170434  14.4774783  18.4217790   8.3815701  13.5432410
   7.1453241  10.9731896  17.5947118   7.7923099  10.4603894  18.0791485
   6.3465015  10.9066232  18.1178594  63.3474445  60.5725288  30.5627680
  63.1246006  60.2183294  31.4236498  62.8437531  61.3840628  30.4999733
  20.0891881  61.2726167  27.2744470  19.6109681  60.5698207  27.7144628
  20.4398741  61.8065289  27.9873209  62.2434616  64.5988941  14.3054485
  63.1658816  64.4396782  14.5055091  61.9675600  65.2504349  14.9501252
  50.2287436  38.9346337   4.6592703  50.5191469  39.5561314   5.3268319
  50.8943558  38.9911079   3.9737049  43.0107514  15.7573636  58.6729431
  42.5677708  14.9296792  58.8598824  43.8663045  15.6714471  59.0935135
  44.9694387  11.5535195  27.8121710  45.0502793  11.2220891  28.7065125
  44.7705690  12.4837716  27.9185438  46.0959005  63.7044764  20.7218027
  45.6823683  62.8417635  20.6910658  45.3872156  64.3013620  20.9620643
  72.8901955  63.9195061  45.8757401  73.1671543  63.0357265  45.6339598
  71.9340381  63.8762426  45.8868265  70.5287310  38.4473801  -0.2093096
  70.9025481  37.7627492   0.3454626  70.7467466  39.2645383   0.2389703
  11.6235507  46.7654228   8.7865114  12.0967388  46.0746384   9.2503500
  11.0983086  46.3002825   8.1353581  45.0682544   8.5353528  55.1670073
  45.5036547   9.3876849  55.1532822  44.2665275   8.6839973  55.6683760
   3.0502728  67.1445608  29.0473437   2.2622177  67.0353508  28.5151076
   2.7214682  67.3374414  29.9253607  21.6474843  69.7413492  11.8644261
  22.1080565  70.4937792  11.4930034  20.7805681  70.0786781  12.0900404
  21.2096415  15.2483304  32.8170300  21.8088979  15.0135835  33.5255623
  21.1788008  14.4694455  32.2614932   1.3892087  14.4086467  54.0657698
   2.2237214  13.9587604  54.1977720   1.0615786  14.0664636  53.2340245
  14.5921898  58.4046507   2.2634420  14.5553350  57.8348875   1.4951691
  15.1519454  57.9360199   2.8825453  48.1431437  61.9254732  10.3856802
  48.6718369  61.1705923  10.6442630  48.7767649  62.6337624  10.2713025
  41.3744756   1.5478216  47.3310344  40.8581992   0.7458292  47.4116426
  40.8843889   2.1995579  47.8323202  46.6774797  60.8459377  31.9759178
  46.3137436  59.9605656  31.9826412  47.5042248  60.7616234  31.5009260
  58.4193018   8.9939959  30.3472328  58.3602694   9.0839989  31.2983632
  58.7695578   8.1136258  30.2112412  48.8994876  15.4746373  41.3208580
  48.8126627  16.4222653  41.4242840  49.6787516  15.2486737  41.8287182
  38.4569184  69.3295673  48.1227200  38.6870663  70.2488235  48.2577567
  38.0792884  69.3038658  47.2435348   8.2805403  12.9833137  49.9475329
   8.6891349  13.7541019  50.3414529   7.5262674  13.3294688  49.4705837
  70.4501682  60.1154470  26.1364150  70.1426837  59.7139549  25.3237104
  70.5710077  59.3794680  26.7363811  59.3102737  24.5018541  54.9679439
  59.4698383  25.2751695  54.4268774  59.1403945  23.8004695  54.3391125
   7.2698549   9.1767628  36.5558410   6.3393263   9.3486293  36.7000866
   7.3643784   8.2349665  36.6983771  24.8529840  69.0767860  23.7083435
  25.2694035  68.2916784  23.3527684  25.5216455  69.7575617  23.6330390
  73.5142346  20.5873023  60.5637817  73.2973381  21.3305818  61.1265611
  74.3081304  20.2178203  60.9503615  41.4703131  55.1581717  14.9455130
  40.6282377  54.8143673  15.2437294  42.0710802  54.4165230  15.0181103
  65.6009928  28.6585267  60.1554298  65.0477187  28.6347611  59.3746901
  65.3690831  27.8648217  60.6375885  36.3939825   9.4167121  18.8334835
  36.4487175   8.9674838  19.6769452  37.2380940   9.8587544  18.7423301
  24.5308354   9.8394997  20.4405880  24.6399885  10.7894357  20.4846311
  25.2151898   9.5474370  19.8384321  33.9412832  59.7500610   4.2864552
  34.8333430  59.5732975   3.9877692  33.6626291  60.5083370   3.7730297
  69.8943257  66.4025545  29.5758653  70.3629049  65.7756805  29.0247798
  69.7006869  67.1363449  28.9925265  29.7381210  63.0764294  32.8506827
  28.9126801  62.5928450  32.8827596  30.2326393  62.7564621  33.6052060
  36.0323715  49.1209936  27.2486377  36.5615058  48.3238220  27.2208548
  36.4584708  49.6684313  27.9081655  60.7445971  10.6182988  27.2453499
  60.5813233   9.7351105  26.9143629  60.1096550  11.1675675  26.7855835
   9.4155103  65.6643248  11.6526973   9.2501283  65.0917053  10.9037030
   9.1938627  65.1306152  12.4157560  57.0178461  60.3370762  18.8847089
  57.0429850  61.2787104  19.0548038  57.2619152  60.2536011  17.9629207
  15.5171903  44.4708978  45.2904945  15.3094324  44.2492210  46.1981969
  14.7141012  44.8654281  44.9504571   9.7258985  39.7129130  29.7706747
  10.1396251  40.4391813  30.2371478   9.4616580  40.0874853  28.9303756
   5.9714335  43.9280701  21.9079518   6.8129456  44.1904831  21.5348196
   6.1603284  43.7618637  22.8314924  47.1864351  24.5093690  54.7677337
  47.6040491  23.8699399  54.1907047  46.3233122  24.6540652  54.3800395
  22.5400758  35.5595326  33.6138678  22.8998423  35.9608674  34.4048977
  22.0471621  36.2629175  33.1913543  40.9570217  57.1994162  19.0935445
  41.1698914  56.2715864  18.9932775  41.7384291  57.6589918  18.7862647
  62.7658602  16.1363135  47.3234468  63.2783552  16.5144120  46.6088681
  62.4170252  15.3211652  46.9627838  45.9035301  58.3660936  12.8589821
  46.4280272  58.8600445  13.4891772  46.2167215  57.4652719  12.9405951
  22.3933458  46.3078451  18.6692715  22.5527740  46.4499569  19.6023405
  21.8304157  47.0368528  18.4087169  72.9455751  69.3147659   0.4335630
  72.7869101  70.1977110   0.0996992  72.1570056  69.1021633   0.9327514
  10.2581561  49.0977669  20.3389335  10.0407052  49.0323162  19.4090617
  11.1184812  48.6848068  20.4133630  61.5188384  57.8541994  33.1048203
  62.3783588  58.2714844  33.1625438  60.9019291  58.5836887  33.0456257
  27.1305546  22.1087228  59.5973234  26.7393907  21.2912189  59.2892418
  26.4886984  22.4647342  60.2117378  66.6221380  46.4465666  15.9995532
  66.6267872  47.3912096  16.1540210  65.9022141  46.1192369  16.5388048
   5.3832972  35.6406951  38.4826636   5.1002324  35.6294346  39.3969822
   4.5750579  35.7566261  37.9831243  24.1724852  67.1396950  49.5088701
  23.5620274  67.2468189  50.2383201  24.4754576  68.0273441  49.3177705
  17.7123201  46.7228746  22.4799013  18.2664907  46.2398624  21.8668556
  18.1548154  47.5643730  22.5908685  58.7511291   9.4940578  23.1931143
  58.5084518   8.8437711  23.8522582  58.0066445  10.0949966  23.1640678
  40.1990275  60.3889397  52.7174400  39.9908022  60.0958255  53.6045467
  40.7826941  61.1371020  52.8432094  72.5511081  33.4092569  36.4653683
  72.4534973  33.7571144  35.5789733  73.1436053  32.6640272  36.3663077
   6.6853818  41.8530618  46.2238913   5.8360871  42.2935115  46.1933212
   6.6989835  41.4179431  47.0763688   9.4928378  49.7719288  44.2437553
  10.1491690  50.3733158  44.5955944   8.9869988  50.3027439  43.6284542
  11.0360062  59.9100399  15.7206488  11.6658187  60.4074287  16.2423515
  11.5031290  59.7079134  14.9099863   4.3297073  49.4015884  29.8528266
   4.3969366  48.7230968  29.1809893   3.8501865  48.9836884  30.5681252
  64.6802016  32.2897969  56.4352806  64.5671316  32.3857652  57.3809214
  63.7999280  32.4013959  56.0762607  70.0460714  23.4937787  37.5248766
  70.7640117  23.0651140  37.9907537  70.4759767  23.9974236  36.8336797
  53.1943289  14.8346169  20.7208657  52.5567118  14.3077405  21.2026143
  53.4300128  14.2947038  19.9664283  72.1984497   1.3419135  12.9694939
  72.7302710   1.7265828  12.2727692  72.8279606   0.8830436  13.5257185
   7.8037708  63.2647589  56.0673316   7.1894948  63.2381156  55.3337209
   7.8763645  62.3538020  56.3521462  12.9732394  40.2932119   8.9035600
  13.8087344  40.5538654   9.2911673  12.6464140  41.0880423   8.4820628
  36.0382581  67.3599339  11.8920004  36.5570617  67.4188662  11.0897517
  35.1974821  67.0014524  11.6077209  54.1326670  53.6261025  52.3722850
  53.9051752  53.1269911  53.1567376  54.9390916  54.0856269  52.6062684
  53.5739374  60.1034737  22.8330851  53.9827728  60.4968596  22.0621538
  52.6338577  60.2022266  22.6823211  39.1139555  23.0121183  14.5173240
  38.5652137  23.7635684  14.7419047  38.6033797  22.5281763  13.8682163
   7.8460840   1.0988791  16.3719499   8.0689577   0.5197747  15.6431210
   7.8496842   0.5286153  17.1407270  25.7337046  69.3383551  13.6802685
  26.4252615  69.7014904  13.1269908  26.0639691  69.4383955  14.5731008
  70.6815620  38.2947122  50.9686427  70.6167766  38.6109172  50.0675063
  71.0511704  37.4154435  50.8879500  61.7349887  44.3238401  21.4250302
  62.1692216  44.5857859  20.6132054  60.9123194  44.8131752  21.4252853
  59.4343773  20.9496053  36.7155242  58.9551274  20.7528241  35.9106445
  59.6367875  21.8829758  36.6516447   8.2367581  53.8749170  36.3970804
   7.3012918  54.0777206  36.3993764   8.3451575  53.2364941  37.1019936
  24.9295878  36.0354781  27.7637029  25.0869942  35.1021791  27.6208520
  25.0185442  36.1513329  28.7096930  12.0107257  65.9130335  21.8027639
  12.4138904  65.3060484  22.4234581  11.8265116  66.6971779  22.3198795
   3.1879586  41.2927246  21.0976624   4.0915760  41.5401220  20.9014487
   2.7412811  41.3266182  20.2517533  60.8481788  56.5893698  51.4463520
  61.1138737  57.1488285  52.1761799  60.8442175  55.7046938  51.8118191
  68.9439026   4.2105372  14.9693906  68.9890400   4.3458255  15.9159064
  69.1333596   5.0709374  14.5951617   5.8531892  56.5927982   9.3825519
   5.8542621  57.0925951   8.5661972   5.8907247  55.6779909   9.1033632
  29.6692896  51.0170364  26.2442374  30.5692649  51.3156128  26.3751054
  29.3721914  50.7618856  27.1176577  74.2147251  53.4756194  58.9123674
  74.6243854  54.2549335  58.5367619  73.6189814  53.8162242  59.5796828
  42.7381849  60.3300476  -0.1774163  43.2012367  60.9589243   0.3760560
  42.3017502  59.7432756   0.4402053  23.2019924  28.5944398   7.2746837
  23.9744143  28.9966233   7.6719761  22.5886676  29.3196614   7.1558982
  64.4413630   1.0590203  19.5585787  64.9176375   1.1468776  18.7329423
  65.1249090   0.9387143  20.2177620  74.0199368  53.0104351  41.4823818
  73.4629856  52.4675655  42.0403481  73.4057131  53.5347939  40.9685659
  16.2872060  41.6552268  58.6699696  16.7720207  42.0744191  59.3809261
  15.6883606  42.3328887  58.3563035  10.3194718   3.6604579  28.3280253
  10.2630524   4.5424254  27.9603529   9.4497160   3.4969170  28.6927342
  11.2480211  63.3318377  24.4103003  10.5406642  63.9047194  24.7064161
  11.8992996  63.9273930  24.0396476  51.1763219  59.8837283  59.7478194
  51.4419655  59.5493153  60.6044590  50.9689765  60.8050326  59.9041478
   2.3378055  53.8464013  37.1982937   1.5303438  54.3362728  37.0425277
   3.0185668  54.3636444  36.7678790  54.0005147  67.1188879  36.7266774
  53.6271512  66.2915182  37.0304728  54.7509205  66.8608046  36.1914039
   7.2750243  25.5824672  44.6891861   7.3737796  26.1367141  45.4633253
   6.9404849  24.7527991  45.0297182  27.9057535   6.8235360  60.6876851
  28.2651361   7.7083741  60.6233828  28.0387243   6.5769445  61.6029678
  41.4955429  14.4751008   6.6586119  42.3581127  14.8707326   6.5334100
  41.6797344  13.6094220   7.0231938  27.2185183  56.7173576  14.9572444
  26.5180945  57.2087002  15.3864551  28.0181766  57.0071030  15.3963625
  74.7906034  39.0991998  17.1859848  74.6674664  38.3259559  17.7365887
  74.1563463  39.7339630  17.5191915  66.0375944   7.5695641  38.8654470
  65.4452912   8.3010037  39.0398240  66.0309521   7.4778922  37.9126692
  27.3120999  62.4744892  27.8766155  27.4067974  61.5226460  27.9120922
  28.2052493  62.8000355  27.7646446  15.1970375  61.3440752   7.6897210
  14.6689749  61.4446115   6.8977141  15.0722384  62.1646118   8.1665564
  66.2751309  18.2790311   2.5329840  66.8530957  18.4340031   3.2800931
  65.3918043  18.3454259   2.8956899  49.5821266  69.0322736  39.2020254
  49.7982602  69.2114690  40.1171260  50.3565340  69.3119076  38.7138348
  18.9745355  66.2552071  12.9849088  19.7129273  66.2316561  12.3762608
  19.2402327  66.8798923  13.6597455  11.6937820  18.8371308   6.9781774
  12.3660985  19.2375500   7.5294340  11.5655843  19.4621499   6.2646347
  31.6949868  52.8365374  29.3168902  31.8108606  53.0032492  30.2523112
  31.4375210  53.6835003  28.9527464  66.0876763  64.9932528  39.1136265
  65.8173132  64.9265146  38.1978297  65.9366023  65.9105253  39.3417215
  24.1895270  48.8355160  24.7990108  24.6097970  49.6836424  24.6565819
  24.8939419  48.2690144  25.1138186  40.6732503   8.4942563  12.8073359
  41.2479154   7.8002484  12.4843204  39.9180464   8.0307610  13.1693721
  18.5037637  62.5820398  11.7419291  19.1074026  63.1074095  12.2671330
  18.5077941  63.0012655  10.8814251  23.2670116  69.4952679  17.0652127
  22.9834557  69.1669607  16.2119603  23.6245489  70.3638458  16.8808818
  64.5591608  16.0236581  40.9330606  64.2256633  16.1943372  40.0522184
  63.7741343  15.9394677  41.4742422   4.2940506   6.7036496  47.8682249
   4.9236830   7.4230920  47.8212993   3.9761051   6.7221175  48.7708872
  73.3827587  25.1718866  43.3448427  73.9267631  24.3998157  43.1892984
  73.8860937  25.8977710  42.9760938  27.2887015  51.9082117  29.3283176
  26.6132379  51.3454294  29.7068119  26.8013120  52.5775337  28.8480163
  38.3637670   2.6776965  24.8569703  38.0984715   3.5903724  24.7435045
  39.1710798   2.7248366  25.3690815  15.9754193  54.8159027  31.5834975
  16.2747622  55.7246304  31.6125202  15.9423089  54.5452213  32.5010300
  35.1916957  50.6571865  20.5721021  34.3774247  50.4465342  20.1151347
  35.0289655  50.4036474  21.4806557  33.2056234   0.3935893  48.2117796
  33.8551579   0.7072432  47.5825310  33.4765474  -0.5030744  48.4088278
  15.4083455  67.7150536   8.4930533  16.3252926  67.4497175   8.5640150
  14.9720132  67.2646141   9.2162085   4.9031071  44.3658765  15.6539059
   4.4339947  44.6941312  14.8868203   5.7640032  44.1150792  15.3189743
  56.5834466  11.6626199  15.5129051  56.4224068  10.7191212  15.5234277
  57.2806541  11.7937787  16.1555004  49.3840233   5.6078799  36.5126300
  49.1797582   6.4925893  36.8156075  48.5819832   5.1096804  36.6699791
  41.9595520  57.5955656  57.4441706  41.9638137  57.5230673  56.4897295
  41.8128793  58.5262659  57.6130255  11.7126894  42.6760054  34.5752430
  11.5751469  43.0007744  35.4650974  12.0739973  43.4244156  34.1003036
  46.5060711  34.4518638   5.2748114  45.8730650  35.1486802   5.4479623
  47.0427418  34.4136524   6.0664934  25.5534673  63.4068394  37.7871227
  25.4933167  62.4801588  38.0192447  25.8404207  63.8373423  38.5924554
  16.3008150   6.8015681  59.5263665  15.8121952   7.5815354  59.7893002
  15.8373197   6.0761653  59.9449325  26.3015032  60.9255314  18.4362447
  25.5462217  61.1518002  17.8934884  25.9411383  60.8219957  19.3169546
  70.5586306  11.7786534  33.2339692  70.6616703  12.4061711  32.5185394
  69.9111906  12.1802552  33.8134241  62.2484167  36.1800157  55.6897729
  62.6928540  36.2281047  56.5361743  62.7543040  36.7597161  55.1203357
  50.4962674  16.8392499   0.4441298  50.6609837  15.9146912   0.2589297
  49.9147002  17.1247514  -0.2604957  74.8382489   7.3212226   1.8711653
  75.0749985   6.7431004   2.5963908  73.9190022   7.1205886   1.6951934
  47.7027945  66.7443708  28.3852105  48.3588175  67.1062544  28.9809494
  47.0160870  67.4103764  28.3520012  23.3577275  58.3572388   9.4638228
  23.7965846  58.0207205  10.2450979  22.7438140  59.0116596   9.7971052
  38.3045864  69.6398067   3.6408633  39.1880655  69.2734098   3.6788779
  37.8918386  69.1935682   2.9014432  28.8405943  47.7067995  16.2895644
  27.9307055  47.5629187  16.0295045  29.3556118  47.2737074  15.6088150
  24.5096540  57.8141689   4.0054449  24.0780735  58.5482788   4.4425428
  24.3522167  57.9643250   3.0732977  72.9425832  24.6511708  53.6492639
  72.7978726  25.5509721  53.3566134  72.1614953  24.4366323  54.1592698
  24.2220035  10.9452374  13.1613147  24.6592086  10.5484994  12.4078679
  23.8040935  11.7311414  12.8092682  61.6581821  61.1459017   5.6869042
  61.7941713  60.2075291   5.8180332  62.4197388  61.4299345   5.1813424
  40.3609371  60.9364653  24.3745780  39.8731780  60.2092552  24.7612214
  40.7350826  61.3993502  25.1242304  69.3628355   5.3026925  56.4476757
  68.8620873   4.5171748  56.2275769  69.7195753   5.6015121  55.6112098
  71.0191890  27.4905883  56.1052783  71.5409323  27.9142438  55.4237120
  70.2897759  28.0915986  56.2568628  18.1265167   7.6422961   3.5891011
  17.9274325   6.7153485   3.4573042  18.8903574   7.6435502   4.1659674
  16.7848810  39.7694789  56.5230684  16.5656980  40.2949868  57.2925048
  16.0942062  39.1081582  56.4800279  34.3745897   2.6537259   9.8806649
  34.8342911   3.4367354  10.1836574  35.0355212   2.1612199   9.3940079
  63.8759390  10.7823117  18.4093761  63.2506434  11.4868672  18.5792232
  64.1206113  10.4645379  19.2785060  32.3207188  50.4799747   8.0577952
  31.8165970  51.0266161   8.6605197  32.8959036  49.9660492   8.6246097
  45.6214714  66.7265034  36.1331964  46.2481260  66.0054827  36.0726523
  45.9716177  67.3979568  35.5477262  44.0060011   1.1627419  21.1437893
  44.9069229   0.9068711  20.9460497  44.0642098   2.0919736  21.3659954
  47.7550379   8.3476432   2.5315532  48.1156865   8.2043107   1.6565561
  46.9426552   7.8415187   2.5416368   5.8432215  62.3622990   2.3900580
   5.2059519  61.9700670   2.9869440   6.6745007  62.3147345   2.8622276
  31.1580387  18.3960660  47.9078627  30.9276483  19.3250974  47.9141045
  31.1127672  18.1442578  46.9854879  17.2806963  35.4926788  51.3691406
  16.4128956  35.0887977  51.3635402  17.8419527  34.8483955  51.8005567
  26.1057675  21.4700635  49.6236610  25.2797296  21.6937001  50.0524712
  26.3340708  20.6103356  49.9771786  61.5288893  21.2523682  55.2445507
  61.1413018  21.8706353  55.8640242  62.3901335  21.6200574  55.0463343
   6.5891981  50.5101728  31.7788911   5.8168447  50.7288790  31.2574792
   6.5821755  49.5542622  31.8280292   8.1043154  48.0601406  12.9890144
   9.0228724  48.1915140  12.7540123   7.8639203  47.2365713  12.5645447
   9.1946801  42.9794513  47.4524408   8.6150225  42.9851829  48.2141464
   8.6048874  42.8951703  46.7032604  54.9827234  14.5648606  37.3312736
  54.4116203  14.4520409  38.0911064  55.7935778  14.9232800  37.6922154
   8.8323931  10.6620724  22.5836897   7.9651789  10.9824403  22.8317642
   8.6573271   9.9379380  21.9826770  57.1961895  20.0055726  29.8183823
  57.7358452  20.7765134  29.6432996  56.5288822  20.3144772  30.4311728
  62.9698387   4.8203929  14.7408044  63.5841266   5.5491574  14.6525729
  62.1146742   5.2028258  14.5441616  23.1636786  65.6692839   0.4821261
  22.3638272  65.2976561   0.8540908  23.8409305  65.0206470   0.6740446
  34.3172227  63.8467959  21.7321687  35.1501791  64.2775229  21.5401058
  34.1047244  64.1229943  22.6236777  23.4627819  53.9585114  18.7260664
  23.1713057  54.6556330  19.3136859  24.0416908  54.3971920  18.1026435
  35.6109238  52.8511286  23.7525821  36.2558842  52.2291183  23.4158921
  35.4843569  53.4752750  23.0379820  67.1540943  37.4504311  50.0107956
  66.3972012  36.9175847  49.7670507  66.8231741  38.3486016  50.0154972
  17.5524267  27.1411239  56.7389326  18.2964643  27.7424441  56.7714112
  17.9475292  26.2696277  56.7639064   3.0259422   5.2016051  18.7770605
   2.3692755   5.7314523  19.2290390   2.9053835   5.4098113  17.8505898
  72.5150700   7.4542247  51.0968863  73.1420632   6.7351876  51.1749690
  71.9743176   7.2196447  50.3427057  64.2922373  65.5289098   0.8559723
  64.3682249  66.4744589   0.7279463  63.9460571  65.4344198   1.7433662
  67.4020111  60.3427839   9.2629546  67.4192691  60.7004118  10.1506674
  67.5939458  61.0920858   8.6990929  64.4529907  10.0629933  10.2381444
  63.7383572  10.2783711  10.8374298  65.0562922  10.8027299  10.3091538
  12.1285764  16.5703233  25.0654745  12.7263991  17.2935136  24.8761821
  11.3271037  16.7917283  24.5912862  49.6330468   9.9932511  17.4672806
  49.8271076  10.8282407  17.8931510  49.4285837   9.3982632  18.1886816
  60.3917392  41.7377721  55.1838415  60.2137359  42.6749622  55.2627235
  60.5406447  41.4457332  56.0831596  67.6017636  59.3905449  26.8578291
  67.6364565  58.4341669  26.8386054  68.4336590  59.6525097  27.2522354
  39.8954725  63.6569262  34.8794031  40.0631475  64.5817184  35.0607181
  40.1685572  63.5378504  33.9697456   8.5596474  18.5971700  51.9373112
   7.8716811  19.2209254  51.7052328   8.5182699  17.9293166  51.2528436
  57.9184484  54.8378468  13.8010120  57.4219561  54.6128035  14.5878291
  57.2740269  55.2385855  13.2176101   1.2930397   8.9268668   5.1576763
   0.9103350   9.6470864   4.6566203   0.5393509   8.4443124   5.4972738
   7.0615538  24.3538486  53.0406164   6.2633356  23.9666759  52.6812052
   7.3602256  24.9597608  52.3624586   9.9775839  59.6644211  21.3697195
  10.1540720  59.5884848  20.4320002  10.7562256  60.0921249  21.7261195
  70.6829329   5.3097831  39.3187385  69.9521442   5.5456554  39.8901801
  70.3589507   4.5664941  38.8100224  14.1664537  35.5976783  57.0170181
  13.3373531  35.1525222  57.1921136  14.4583138  35.2393876  56.1787604
  56.8589139  63.8997602  32.9927492  56.1277830  64.4527054  33.2683063
  57.2409475  64.3620682  32.2467208  74.3998953   6.8896733  58.4908586
  74.1378160   7.7829658  58.2682039  75.1752921   6.9977866  59.0415888
  25.7571264  68.5577157  29.9666100  25.3021192  67.7452210  30.1880865
  25.2465847  69.2432407  30.3974633  42.5333405  57.7474403  15.5792880
  41.8350410  57.1056604  15.4499388  42.9969358  57.7689743  14.7421217
  72.3557111  57.3285590  59.3176075  71.5913173  57.7240287  59.7365854
  72.2986360  56.3999759  59.5427587  20.9446902  39.3274815  22.3341250
  21.0554264  38.6623605  23.0135250  21.3031117  40.1265271  22.7205110
  31.5827727  63.4471130   5.2321517  31.1166048  63.5701513   6.0590625
  31.2267041  62.6334429   4.8752391   3.4232688  63.1007385   9.5626402
   4.3320477  62.9032326   9.7892314   3.2054430  62.4709415   8.8755172
  20.8774328  59.5266962  20.7639503  20.0309730  59.9365377  20.5857110
  21.3414860  60.1625681  21.3085175  66.6775767  18.8060601  23.9204407
  67.5225273  18.6060460  24.3232918  66.2314955  19.3593152  24.5616555
  45.1240015  26.4518714   7.6664603  45.3927708  26.9268966   6.8801093
  45.8350372  26.5993094   8.2900983  15.3780989  27.2089513  17.1610165
  15.5048374  26.6300710  17.9127240  15.8600287  26.7869218  16.4497745
   4.4317463  52.6776218  29.3542480   4.8666912  53.5301971  29.3414688
   4.1315940  52.5753784  30.2574015  60.6089011   8.2499440  17.0478213
  60.8440272   9.1006835  16.6774249  61.2800447   8.0830987  17.7096069
  12.5847808   7.4820597  33.9318442  11.8672434   6.8543179  34.0173650
  12.2634951   8.1289466  33.3037162  72.2765032   2.1665843   8.6778826
  72.3464886   1.5494283   7.9495615  72.3568312   1.6225751   9.4613576
   4.0731100  10.8127530  33.7725735   3.8012652   9.8980363  33.6975694
   4.3443350  10.9079202  34.6855974   5.2476029   4.2255957  20.1428390
   4.4474939   4.7252972  19.9804962   5.0578980   3.7197669  20.9330177
  14.6967801  38.2222711  56.3029095  13.8410696  38.4120904  55.9182518
  14.6257433  37.3188363  56.6111164  40.5708469  23.8540575   8.6685676
  41.2072934  24.1913673   8.0381794  41.0134889  23.1132957   9.0827770
  42.6308250  58.1145096   8.1199497  42.5951004  58.6599493   7.3341691
  41.9437122  58.4653902   8.6865079  48.5650810  31.6961347  60.6157592
  48.3767208  32.5553285  60.9933082  49.5095762  31.7045556  60.4605642
  13.4901893  64.2393017  23.1255317  13.8515878  64.0694618  22.2556019
  14.2407167  64.1662931  23.7151194  43.9540072  29.1458093  56.6852867
  44.1352340  29.7887527  57.3708602  44.1035332  29.6195375  55.8670830
  34.7306953   5.8001502  22.6509333  34.7021697   6.5568192  23.2364845
  34.8310969   5.0487216  23.2353210  62.1345075  13.1297885  34.7336798
  62.9380318  13.1611549  35.2529054  62.0433529  14.0144693  34.3797546
  41.3098001  27.6746821  14.6787131  40.6621218  27.1540308  15.1537609
  42.0052719  27.8324223  15.3171980  30.6197500  45.8787918  28.9914298
  30.8750629  46.4761782  28.2884550  31.3698220  45.8741999  29.5860767
   1.0102876  48.9050017  39.8157029   0.1885971  49.3351375  39.5789867
   1.2138590  49.2412101  40.6884890  11.4774919  54.8994255  25.4853177
  11.8613899  54.9105787  26.3620901  11.8100929  55.6941175  25.0680947
  52.1802706  19.5858203  41.1261063  53.0976378  19.8294698  41.2498157
  51.7231343  20.4200517  41.0197382  39.7245455  70.3150368   8.2317722
  39.1692019  70.0100374   7.5142747  40.6136942  70.0878572   7.9596692
  66.1111146  62.2564411   1.7193794  65.3710627  62.0402861   1.1520772
  66.8803191  61.9594049   1.2332467  19.1958938   9.0037759  30.9958982
  18.9039723   9.8417027  30.6368685  18.8257549   8.3480151  30.4049611
   7.0728687  18.4586938   5.7344252   6.5935282  17.6345856   5.8199394
   7.8463415  18.3442910   6.2865883  27.6717257  66.4401293  26.4786291
  27.2428012  65.6823778  26.0810471  28.6067247  66.2431526  26.4219737
  51.9781486   2.4952634  24.7830510  52.5881425   3.1923325  25.0243664
  51.8326417   2.0121129  25.5964565  28.0725813  53.8778162   6.5837789
  27.1161747  53.8703012   6.5455776  28.3428669  53.2145309   5.9487706
   8.8551100   8.4580337  59.4950952   9.7737416   8.7141095  59.4128095
   8.6584362   8.0048381  58.6752372  17.7654874  60.4870701  17.0303321
  17.6182568  60.2035713  17.9326534  18.4484601  59.9013472  16.7036664
   9.2645868  22.7706014  53.3911042   8.4900554  23.3314763  53.4329163
   9.0372857  22.0082723  53.9234774  70.1233339  52.6795387   0.8761292
  69.6603394  53.2064581   0.2248054  70.9946012  52.5478554   0.5022516
  59.9473020  53.1227027  51.2823891  60.3923686  53.7633525  51.8371104
  60.6240841  52.4808608  51.0673713  25.8379936  66.6643572  13.4694386
  25.7842207  67.6188898  13.4225333  26.6793370  66.4517212  13.0655062
  31.7840338  36.7146707  15.5407667  32.1749115  37.1529865  14.7849059
  30.8774519  36.5514231  15.2805912  25.1387191  36.2632608  16.3338244
  24.8561954  35.3791857  16.0996902  24.6477270  36.4687991  17.1293819
   1.1678728  21.5403056   6.0126340   1.5630256  22.1726155   5.4124081
   0.6830817  22.0763969   6.6401809  51.9739715   2.2088416  10.8481431
  52.5456158   2.3502477  10.0935173  52.3234168   1.4236338  11.2695277
  59.7535721   3.6918099  44.2190409  59.7134391   4.2432292  43.4376621
  60.5147187   4.0148051  44.7012901  58.5245506  14.3376572  46.5650845
  58.8449494  14.1784890  45.6772566  57.5952665  14.1111024  46.5285683
  40.7539026  12.3693116  25.8860779  40.0360826  12.0169576  25.3599453
  40.4487828  12.2917970  26.7900276  41.4532852  59.4155645   2.2410403
  41.9365644  59.3035698   3.0596533  41.3378239  58.5258436   1.9074208
  28.0043554  70.2724028  12.3995626  28.6110997  70.4743958  13.1118047
  28.4742832  69.6391964  11.8569314  21.5691924  59.8277283  24.8604155
  20.8031321  59.3492413  25.1773286  21.4282560  60.7275343  25.1548839
   2.3554763  21.8633996  51.7998629   2.3313197  21.6752301  50.8616512
   1.7755278  22.6171933  51.9079738  30.5402184  60.3918648  39.9640775
  30.4220533  61.3053131  39.7035408  29.6514845  60.0396347  40.0121880
  58.9295522  10.3116067  11.1014342  58.9351455  11.0734399  11.6809344
  58.9997951  10.6800492  10.2207804  11.4335493   7.2544749  20.8706546
  11.4483122   6.3300975  21.1187267  12.3318390   7.4441750  20.5998850
  27.1608530  67.3958329  37.3659568  27.0755538  67.6412180  36.4446836
  26.2798114  67.1251634  37.6242881   7.8245239  67.3241142  41.9044833
   6.9696943  67.6923183  41.6810434   7.6962988  66.3765982  41.8596940
   6.6928737  59.5244387  55.5575614   7.0479791  60.3469232  55.8946805
   6.1282031  59.7873882  54.8307638  64.5836997  19.8722661  28.1754327
  64.6208727  19.8700094  27.2189569  64.9867701  20.7026601  28.4288335
  62.4845533  56.3018301  49.3864625  63.3002882  56.1153391  49.8512511
  61.8224768  56.3532785  50.0758391  23.7462543  63.6837605  50.1805298
  24.4065295  64.0014056  49.5645981  23.2220887  64.4569257  50.3895753
  64.8107143   7.6570331  59.0028401  63.9937254   8.1456100  58.9025751
  65.1058443   7.4973308  58.1063883  73.1199094  10.3985749  51.6414433
  73.2532807   9.4516622  51.6839283  72.4740096  10.5184804  50.9452622
   1.3061368  25.8306885  23.8467455   1.7774522  25.0097990  23.7044930
   0.3853302  25.5733252  23.8926959  27.7106667  21.7206693   3.9252910
  28.6396790  21.9306326   3.8299960  27.2654176  22.5646567   3.8500029
  39.6814466  19.5320833   8.6788821  40.0526333  18.7373674   8.2956374
  39.5579767  19.3170512   9.6034086  43.8321014  -0.0422539  40.5300360
  44.3719240   0.1463519  41.2976639  44.1643014   0.5471669  39.8529391
  31.9260359  47.5996208  26.7425585  32.6517391  47.0630360  26.4237118
  32.3419404  48.2601500  27.2965908  28.8179183  46.9440556  12.8419232
  28.4999561  46.0485983  12.7266598  29.5460320  46.8622541  13.4578693
  67.8072472  30.0106298  59.0758141  68.4164246  29.5467864  59.6502586
  66.9513901  29.6337281  59.2799864  25.9867430  55.3575373   0.7536728
  26.3637662  56.2035751   0.9951393  26.5858030  55.0078487   0.0940678
  73.4794632  11.3134702  32.2445774  74.3849388  11.5996583  32.3647761
  73.0895678  11.3799031  33.1162405   6.2386092  59.2507450  25.2772307
   6.5359458  58.5038893  25.7968736   6.5585288  59.0700965  24.3933487
  35.7870988  61.7043904  52.8770023  36.7214696  61.6089085  52.6924323
  35.3680639  61.0243038  52.3496287  36.0839081  32.8793240   6.7975396
  35.5138993  32.7367592   6.0418952  36.9295478  33.1181908   6.4179778
   6.1485630  14.4632173  15.6905782   5.6238854  13.6807621  15.8600128
   5.5127335  15.1222360  15.4119253  61.1015229  66.1744836  52.1777009
  60.3182249  66.2582138  51.6339492  61.2760787  65.2336744  52.2030025
  23.5650396  59.9705076   5.4590482  24.4428945  60.3124571   5.2897203
  23.0606675  60.7339954   5.7399893  11.0955298  45.7775974  14.8619056
  11.6993403  45.6857157  14.1248834  11.5915477  46.2667465  15.5183578
  32.7175808  56.9600487  14.0063655  32.4848032  56.0611153  14.2386723
  32.6293039  57.4493265  14.8243189  74.4325467   8.5519754  47.2219532
  75.0306626   7.8794299  46.8961101  73.5725041   8.2853423  46.8971949
   8.0540713   1.8146049  60.8834175   8.5514268   2.6322065  60.8635330
   8.6179742   1.1804043  60.4406552  32.4790096  31.3907099  16.1569798
  32.2647023  31.2109685  17.0724010  32.0748091  32.2398543  15.9786379
  64.9549037  56.3901711  25.4054713  64.5141887  55.6944370  24.9176598
  64.2474651  56.9698668  25.6878066   5.6776935  51.6543961  17.6076043
   6.4067835  52.2667980  17.5094867   5.1505870  52.0212984  18.3173764
   9.1839989  10.2732288  41.2411432   9.3591293  10.4187451  40.3114205
   9.9498066  10.6334506  41.6883676  60.0393443  70.6018403  36.1273651
  60.5778651  70.9077075  35.3975229  60.6004886  69.9846676  36.5968852
  34.3652900   5.9576808  48.6859112  33.8369926   5.9188043  47.8886490
  34.2603811   5.0940429  49.0851026   1.6808793  17.4203992   3.1028154
   2.5149769  17.0302081   3.3640906   1.6607998  18.2655954   3.5516715
   6.8721255   4.5155011  56.1221321   6.4238199   4.7331463  55.3048908
   6.7510661   3.5707866  56.2174760  19.9604690  40.4757547   7.5929874
  19.4559026  40.9718990   6.9484085  20.6693578  40.0779486   7.0875567
  37.7208201  52.1761683  58.7418835  37.6560466  52.1831134  59.6968644
  37.0687728  51.5336135  58.4622618  22.9037762  29.4766903   1.9554907
  22.0573139  29.0945983   2.1873111  23.0441451  29.2138457   1.0458528
  71.5044924   0.3282677  49.7551971  71.0612365   0.8515106  49.0873866
  70.8518215   0.2201258  50.4469757  32.2043538  44.3120337   2.5609308
  31.7955685  45.0009918   2.0370390  33.1212878  44.5773792   2.6320189
  69.8567566  25.9692121  39.2450237  70.4954973  25.9311891  39.9569201
  69.6648842  25.0527620  39.0461898  18.4009240  63.9869312  29.4705992
  18.4530775  64.4912055  30.2825241  19.3103103  63.8968757  29.1857510
  51.1887745  56.9478968  50.2478330  51.4541416  56.9955233  49.3293863
  51.9655637  56.6259435  50.7051926  62.3513981   6.4599286  51.1707543
  61.4808710   6.0678016  51.2389540  62.9030820   5.7593309  50.8228486
  56.8293349  17.4081261   0.3375346  57.2555200  17.7831490   1.1082197
  57.3837296  16.6667111   0.0942595  32.8543901  54.8761415  10.5484819
  32.8993988  54.0618467  11.0496092  32.7505875  54.5928955   9.6400613
  66.6886576   8.7151586  56.2460928  65.8803936   8.8628589  55.7550471
  67.3512908   8.5551034  55.5741333  41.9292021  66.5388393  32.1632290
  42.1408749  67.3743248  31.7468309  42.0139837  66.7103863  33.1011081
   2.2106656  10.1099216  37.5758200   1.8745121   9.8037778  38.4181457
   1.8379053  10.9855567  37.4731307  45.0168753  44.8770618   3.0227602
  45.5428743  44.3589497   3.6319560  44.6317816  44.2316341   2.4300045
  55.2358436  30.5766487  19.1214705  54.8923075  30.7341743  20.0009036
  54.8424852  29.7453618  18.8560212  -0.2875415  58.1911002  32.9796534
   0.0759562  58.6849700  32.2446709   0.4770359  57.9214011  33.4884887
  22.1215773  12.0149887   5.0901443  22.1987677  11.0611498   5.1116979
  21.7123175  12.2410977   5.9253764  48.6916880  68.8956812  49.3801539
  48.8927130  69.1364363  50.2845078  47.9395489  69.4406370  49.1487580
   8.4833485  41.0431480  27.7141571   8.6896944  41.9763660  27.7666545
   7.9237503  40.9646749  26.9415498   3.3481678   2.9159652  37.0194822
   4.1145261   3.4850584  37.0906072   3.4358224   2.5024043  36.1606960
  70.1855799  13.5724794  60.1561791  70.1839610  14.3509542  60.7131429
  69.6874960  12.9224120  60.6517128  12.8690290  44.2097759  10.2638793
  13.6791015  44.0487194   9.7800672  12.1998703  43.7280035   9.7777158
  59.6084472  21.4073478  31.8812876  59.2343243  22.1095191  32.4134712
  59.6070065  20.6431829  32.4577289   9.4748025  66.3421968  50.8976870
   9.9765973  66.6157273  50.1298230  10.1150422  65.9045485  51.4587491
  46.5330124  60.3117943   8.7843323  47.2493744  60.7617474   9.2322135
  45.9485483  60.0316525   9.4887137   7.1136564  24.4519639  33.0394769
   8.0048448  24.2103767  33.2917714   6.6771168  23.6165619  32.8728342
  58.1217257   1.1198933   7.7885747  58.7433211   0.9061320   8.4843904
  58.6597625   1.1901362   7.0000231  64.7037697  51.1896849   4.1304758
  65.4848605  51.6071415   4.4936016  64.0306008  51.3188839   4.7985944
  15.9806379  58.7888698  10.3961194  16.6552910  58.8326828  11.0737288
  15.9984144  57.8791587  10.0988996  29.5341420  46.3542080   1.7005526
  29.0616512  46.5043068   2.5193664  29.5967031  47.2203398   1.2978917
  14.1663679   1.1307584  42.5099294  13.5448178   1.0448180  43.2327836
  14.9103674   0.5865132  42.7677958  63.2000498  58.8709668  12.7863341
  63.0408125  58.9611009  11.8467837  63.6461286  58.0286053  12.8739290
  43.8992433  66.3801435  39.4483357  44.0389936  65.5481556  38.9961248
  44.2254560  66.2283781  40.3353458   6.0517820  13.3263026  48.0641716
   6.6191300  14.0545760  47.8112452   5.1863416  13.7218200  48.1681471
  23.0028033  59.1988564  27.5658846  22.0767260  58.9880371  27.6849055
  23.0123806  59.8462152  26.8608522  48.3076516  12.1815808  10.3343666
  47.6779786  11.6844209   9.8122770  48.8715450  12.6069386   9.6883553
   0.6215672   7.9275115  32.9991579   1.0260443   8.0547507  33.8573194
   0.5060867   6.9800551  32.9269147  66.4571567  14.9464332  54.8129194
  66.6379233  14.0448676  54.5469599  67.2027858  15.4476462  54.4826846
  73.7044399  59.7194099   7.7968484  73.4065096  60.6124401   7.6237541
  74.1101530  59.4390297   6.9764733  37.6573118   8.2748519  56.8721854
  37.3345741   8.8816033  57.5384643  36.9931921   7.5866281  56.8331348
  28.8285383   4.4551240  50.7194202  28.6351808   3.6164127  51.1382358
  28.1273206   4.5698582  50.0780444  37.0747026  14.3693553  41.2250178
  37.3745140  13.6459600  41.7755144  37.6214298  14.3163262  40.4411130
   6.2981018  16.8530427  60.8382071   6.0873874  16.2189399  60.1528299
   6.8815311  17.4810802  60.4122830  18.3762908  44.4606495   4.0611342
  17.6676559  44.1742134   4.6373475  17.9308796  44.8125553   3.2904190
  66.8153163  13.4531366  38.9039140  65.8776565  13.6432134  38.9338713
  66.8641015  12.5008594  38.8201242   4.5113607  28.8899528  55.5009769
   4.4276234  29.1245757  54.5767628   5.2105852  29.4552766  55.8291965
  38.0377984  36.4352083  18.9438391  38.9080334  36.0585403  19.0744042
  38.0559492  36.7757797  18.0494606  74.3609565  51.9453573  25.8483386
  73.9823441  51.3488436  25.2025390  74.5574190  52.7407885  25.3534389
  50.4788208  48.5424471  18.0264509  51.0027552  48.9235067  18.7310922
  50.0033808  47.8237867  18.4432447  38.5796516  67.7188924  42.4028568
  38.4857277  68.3839873  41.7209034  37.8290562  67.8598526  42.9798918
  34.7761360   1.0648330  12.0691776  34.6122018   1.4316542  11.2003863
  35.7235912   1.1369736  12.1847439   5.4073923  36.5360762  41.1132746
   5.1701896  37.0037130  41.9140761   6.3599937  36.6151169  41.0629945
  41.3984661  67.8054646  52.6718848  41.8626003  68.6418560  52.7073978
  40.6081872  67.9477814  53.1928818  57.3485223  44.0470536   5.5436611
  57.8422729  44.8256524   5.8010095  57.3964373  44.0381844   4.5877019
  63.3047323  67.6389268  51.5669398  64.0931468  67.1258334  51.7440580
  62.5825576  67.0317319  51.7282092  40.9703588  50.9426117   8.3245170
  40.7377863  51.1222172   9.2354959  41.0821438  51.8078947   7.9307932
  52.7008977  12.0799266  36.2536459  52.6146560  11.1557685  36.0197144
  51.8791268  12.4775420  35.9658461   9.5972669  62.1683884  28.4652781
   9.4171721  62.8426504  29.1203856   8.7566096  61.7292118  28.3362317
  53.0241171  18.5711510  15.0664365  52.7599326  18.5753186  14.1464245
  53.2473866  19.4825204  15.2556407  63.8771629  20.2283049  21.3691449
  64.6060991  19.6096647  21.3225937  63.8688421  20.5205011  22.2806168
  71.6634985  27.0342551  52.1983313  71.9573446  27.4906360  51.4099150
  71.4439293  27.7346479  52.8127151  11.5983033  36.2837267  10.1703918
  12.1144211  35.8997107   9.4615996  12.0996821  37.0523691  10.4424906
   2.0172628  29.3217193  45.9930222   1.2066706  29.0176641  46.4013403
   2.6826771  29.2145215  46.6727011  66.5329426  18.1815040  41.1083078
  66.3168668  18.7262475  40.3514719  65.9424168  17.4312878  41.0398436
  51.0461187  30.6057763   2.5652274  50.3230810  31.1541462   2.2606945
  51.4185190  30.2345371   1.7653954  67.6525526  68.4416846  50.5325692
  67.9114322  68.8217262  49.6930568  67.0948724  69.1074327  50.9350674
  37.3672915  55.3268003   9.0172362  36.9208837  54.5102453   8.7931871
  37.6699567  55.6725025   8.1775254  45.0139761  56.6993952   6.9191378
  45.5017900  57.1285868   7.6220340  44.1376400  57.0813465   6.9679385
  21.7177033  43.3603668   9.7753876  20.8149576  43.0615854   9.6657950
  22.2279811  42.5549412   9.8598671  39.2195344  31.3590717   9.1800100
  38.3863068  30.9758615   8.9059418  39.6619105  30.6556582   9.6551353
  50.5673127  57.9466775  57.7487602  49.7560076  58.1441024  57.2807391
  50.5835824  58.5713008  58.4738894  37.0431566  44.2155600  15.8817756
  36.3940763  43.6643553  16.3189292  36.5845466  44.5658779  15.1181090
  69.3644886  66.3831166  54.0941798  68.6465768  67.0104674  54.0089445
  69.8626928  66.6906813  54.8514311  55.0954342  47.2761583   4.0706515
  55.0579500  46.5547228   4.6986318  56.0258627  47.3663616   3.8647392
  28.3737350  49.9224377   8.5982126  27.8825712  49.6563244   7.8209263
  27.9453754  49.4636774   9.3209022  18.8886154  18.3280170  26.8286467
  18.3927488  17.5912845  26.4714742  18.2376575  19.0196180  26.9477034
  25.0569868  52.6399136  16.5053284  25.8108974  52.4614668  15.9431815
  24.8630810  53.5658073  16.3591969  34.2223668  28.3173847   0.9410132
  35.1252317  28.4826040   0.6694064  34.0434647  27.4241805   0.6470613
  25.2934003  25.7790446  19.6477592  24.6793556  25.7268763  20.3801918
  24.7712159  25.5453897  18.8803220   1.9784093  32.6866865  37.8279328
   1.2634176  32.4498725  38.4186435   2.7344501  32.2033787  38.1611753
  49.4149605  21.3642819  19.4243705  48.7483565  21.0165246  18.8319755
  48.9603082  21.4719231  20.2597976   4.9926552  12.9165326  37.5204449
   4.8089226  13.5825645  36.8579655   5.6636032  13.3113633  38.0773740
  11.1052573  42.3480320  18.6283994  10.7468057  43.2013130  18.3841515
  10.3624022  41.8744278  19.0026915  31.5577984  17.3896968  16.2279773
  32.2811174  17.8996980  15.8633709  31.4208245  16.6832137  15.5968261
   2.1273981  61.1665630   7.8627032   1.9530955  60.5549860   8.5781199
   2.5510776  60.6336212   7.1898764  50.2563953  30.9438729  14.9540472
  50.2682590  31.5304637  15.7103562  50.0010061  31.5036297  14.2207789
  25.6514105   4.7655927  60.9861032  26.5770038   4.6107279  61.1745757
  25.6550058   5.4359685  60.3028629   1.9608180  69.7356585  38.7075048
   2.2670333  69.0119294  38.1609898   1.2591760  70.1405838  38.1976371
  47.2551680  51.6606903   4.2960018  46.5101767  51.6483736   3.6951122
  47.9143763  52.1918917   3.8493487  71.8919345   1.5624295  54.0481179
  72.1588226   2.0105015  53.2454758  71.8433233   2.2567736  54.7052001
  57.5913074   9.6528112  49.5970373  57.8950258  10.3076182  50.2257018
  58.0329241   8.8453351  49.8600619  38.7712431  31.3484693  25.8548307
  39.2114067  30.9357667  26.5979099  38.5828543  30.6255531  25.2563882
  18.2286823  55.5396366   8.5876727  18.6030746  56.4185429   8.6475879
  18.9780724  54.9717999   8.4082133  37.8734009  63.4838608  56.5665941
  38.4387235  63.0873469  57.2294803  36.9874219  63.2283738  56.8234988
   7.2529253  16.9046126  24.8546081   7.0154818  16.0912095  24.4093828
   6.7026576  16.9184600  25.6377082  25.8900809  12.6648927  23.1805515
  25.5822897  12.3957181  22.3150802  25.1021457  12.6701629  23.7240243
   3.2870218  44.9863720  13.8205397   2.6383799  44.4780350  13.3336174
   2.7742952  45.6510305  14.2805052  37.5631166  21.1088681  12.9749668
  37.5702453  20.1721931  13.1719995  36.6445136  21.3643789  13.0593157
  37.7779802   4.7465526  59.1723797  37.3723348   4.6209870  58.3145239
  37.0472320   4.9539338  59.7548156  45.0536776  46.4906168  16.8643212
  45.3086948  45.9501505  16.1165929  45.8297443  47.0176029  17.0547020
   3.7319295  65.3384879  34.5202832   4.5502536  65.1334051  34.9725156
   3.0823343  64.7668651  34.9295573   7.2525883  61.1344337   7.2057700
   7.3136699  61.9908476   6.7826223   8.1485081  60.7976151   7.1952015
  40.0707153  41.9174130  15.3989732  39.9631492  42.8629811  15.5017555
  40.0432328  41.7746671  14.4528747  28.2819080  38.0911183   2.3743862
  28.9743018  37.5537252   1.9896372  28.5768485  38.9921474   2.2425340
  36.3689399  54.5208931  18.7425852  37.0223141  55.1085854  19.1219914
  36.8447781  53.7062693  18.5807121  30.9917903  50.2457952  17.1879625
  31.1740208  49.3610859  16.8712389  30.5015278  50.6584930  16.4769387
  17.5350964  52.3976803   9.0296876  18.0470669  53.2063246   9.0151691
  17.9897475  51.8376160   9.6588552  23.0964994  16.9199371  18.9972615
  22.7353191  17.6298928  19.5280564  22.7988338  16.1206913  19.4318104
  27.0297050  63.5214424  22.0407724  26.1976814  63.7157297  22.4723053
  27.1075034  62.5686026  22.0884848  69.8976978  36.1498356  33.1949997
  69.2574697  35.7414794  32.6122594  69.6306753  37.0680118  33.2383680
  41.8315570  65.1109651  42.4239509  42.2499721  65.8822492  42.8064172
  42.2580413  64.3693999  42.8533988  65.8870276   4.3275963  57.6606606
  66.0397883   3.7967454  56.8789350  66.7634269   4.5255862  57.9907470
  64.6009608  18.9668571  38.2930093  65.4578944  19.3929778  38.3108525
  64.4106134  18.8506089  37.3621564  70.3031107  16.7384683  55.8056032
  70.7240125  15.9795056  55.4018091  70.2261063  16.5055762  56.7308401
  64.3541340  69.6434549  48.7433510  64.8947410  68.8564471  48.6755781
  64.1125040  69.8465994  47.8397041  33.3316366  11.9027837  12.9540825
  33.5894421  11.0606034  12.5792539  32.4324158  12.0336373  12.6532328
   8.0548477  63.0045748  38.2072306   8.3615375  62.8864908  39.1062474
   7.3030257  62.4169827  38.1315184  36.4337730  67.9149294  14.7391844
  36.1566424  67.6774216  13.8542998  35.6239581  67.9241133  15.2494264
   7.2482065   7.3244746   6.7490464   6.5761379   6.7285426   7.0798373
   8.0655007   6.9948848   7.1227163  35.4399776  45.6990767  13.9728630
  34.8599958  45.0716782  14.4044006  35.3059959  45.5451059  13.0376768
  11.9858682  45.5860853   4.4119871  11.2159228  46.0689354   4.1115302
  12.6486349  45.7507658   3.7412772  39.7570229  43.6085701  11.4185762
  40.0860119  43.6633778  10.5213606  39.7943830  42.6759481  11.6308320
  44.2528725  63.3643913  25.2581668  45.1351357  63.0315590  25.0936365
  44.2223215  64.2013359  24.7946787  63.2902793  55.2191428  40.4550486
  63.0494742  56.0622385  40.0710755  62.6150398  54.6143463  40.1476293
  58.3800793  14.7363245   0.1858407  58.8307762  14.7207427  -0.6584692
  58.9711714  14.2757404   0.7814083  30.2624869  70.3136301   6.4462990
  30.2515936  71.2314606   6.7177761  30.4462695  69.8281527   7.2505176
  48.9176464  56.1558914   8.5791475  48.6367369  56.6776848   9.3308485
  49.8301935  55.9366512   8.7673599  47.1161871  64.7781971  38.6212974
  47.5080113  65.4892948  38.1143050  47.1351342  65.0903562  39.5259671
  29.5224667  58.2277441  33.4765506  30.3957748  58.6181355  33.5105872
  29.1768003  58.3364964  34.3625069   5.8335146  12.2288428  51.5359663
   6.5408095  11.5886127  51.4580577   5.0937041  11.7278443  51.8793498
  15.1172411  59.4692373  13.2299721  15.9942627  59.3811798  12.8567278
  15.2424359  60.0078106  14.0113163  30.5443176  16.7630349  36.4754038
  30.9741005  17.0417176  35.6667905  31.2582573  16.6692124  37.1060519
  11.1695346  12.6491796  51.8469923  11.0079702  11.8541299  52.3549556
  10.9814938  13.3641921  52.4549650  29.5379734  68.2641029  11.2646008
  30.3395414  68.5199165  11.7209780  29.3880248  67.3578072  11.5336168
  18.2543814  62.3072577   0.6955608  18.1672359  61.7859602  -0.1024914
  18.0859470  61.6879845   1.4057454  72.9129811  28.2764159  33.5374718
  72.0801445  27.8103028  33.6106425  72.8051611  28.8407336  32.7718668
  26.7735171  31.6535592  23.4310913  26.6240644  32.5790811  23.6242414
  27.2619963  31.6565180  22.6079178  61.8494785  47.1762848  20.5636573
  62.2451102  48.0476475  20.5428767  60.9072470  47.3417568  20.5960536
  32.9636797   1.6425406  54.3093919  32.9221996   2.5867568  54.1578399
  32.4356922   1.2637316  53.6065643  43.3519629   2.3572667   8.8244617
  43.0589930   1.5314277   9.2096788  43.3698705   2.1890576   7.8823274
  14.8478377  63.6586905  18.1583214  15.6859756  63.3286142  17.8345871
  14.2014933  63.3191967  17.5392807   3.4354618  29.8836327  10.4206824
   2.7943021  29.2919207  10.8144116   3.1655183  30.7555103  10.7091129
  22.2089577  33.4226108  11.6138005  22.6050019  34.0986276  11.0639071
  21.4639926  33.1048942  11.1035907  34.9004245  65.6747866   0.6532427
  35.8130097  65.8407021   0.4168246  34.6061754  66.4901066   1.0593298
  59.0973954  70.0183180   6.4834051  59.5183448  70.8648589   6.6330700
  59.3526797  69.4871929   7.2377043  18.9792800  42.5249767   9.4233429
  19.3483329  41.6460705   9.3364465  18.3495367  42.4505043  10.1403570
  26.3917136  47.4912024  15.2159452  26.1233640  48.1654358  14.5917428
  26.0307050  46.6788626  14.8609757  23.8006980  66.6314247  41.3122122
  23.5531975  67.3735574  40.7606583  24.4664502  66.9835809  41.9029682
  16.1561760   7.5113164  52.8239196  16.9068512   6.9547235  53.0310964
  15.4775938   7.2377454  53.4411042   5.9764417  26.6840373  26.9142299
   5.7063850  27.5591098  27.1927076   6.4405283  26.8277322  26.0894852
  62.0991246   7.3443682  36.8086314  61.3370458   7.0116504  36.3345361
  62.2549669   8.2110770  36.4334488  55.8468046   1.1679994  43.2853251
  55.5356856   1.8162118  42.6534562  56.3215621   1.6802393  43.9398830
  21.3688445  51.1713266  19.7999382  22.3172092  51.2798214  19.8711038
  21.1727238  50.4123020  20.3491688   0.1985745  21.1839898  22.8106332
   0.3467707  21.5015252  23.7013865  -0.1027389  21.9542439  22.3288083
  50.0389806  26.4844258   0.8333545  50.4439322  27.0662434   0.1901348
  49.8321930  25.6900246   0.3410210  14.9179399  25.5434632   8.8939327
  15.8100164  25.3202796   9.1596788  14.6271718  26.1828160   9.5442522
  16.9825109  12.3713838  21.3703518  17.5215849  13.0408536  21.7915898
  16.1070236  12.5055038  21.7333441  67.0021200  27.1786475  22.8816676
  67.5779819  27.7531004  23.3862662  66.3603973  27.7693009  22.4872565
  54.2270342  13.9973004  23.9863300  53.8778440  13.9034589  24.8726106
  54.2942158  14.9429543  23.8542485  46.9862509  56.6962814  16.3800025
  47.0703650  55.8852816  15.8785653  47.6932049  56.6541338  17.0239580
  32.7752686  64.2699146  27.2297454  33.2114959  65.1168966  27.1372676
  31.8633103  64.4434452  26.9963956  24.0969928  55.3147994  58.1113761
  23.3184179  55.8377944  58.3024969  24.2016395  55.3791343  57.1620913
  41.6312885  69.3821812  14.7383845  41.3695288  69.8418188  13.9406073
  40.8124018  69.0409327  15.0978363  16.3820379  61.6523889  21.7460709
  15.9866922  60.8299020  21.4571886  16.7858808  61.4413527  22.5878577
  61.3580382  24.6821833  22.1888375  61.5150666  25.6007957  22.4073029
  62.0427012  24.2042637  22.6568747  31.2236770   7.2210323  45.2069764
  30.3539404   7.5404607  45.4472988  31.5877756   7.9114925  44.6529632
   6.7267042  39.3607283  11.3017821   7.5086302  39.0234017  10.8647072
   6.6432554  38.8249111  12.0905590   6.8156103  32.6306470  27.9918861
   6.2833885  31.9108231  28.3307433   6.2065415  33.3655484  27.9198170
  59.1322093  58.6961487  54.4115697  58.3410101  58.3577612  53.9923721
  59.1864185  58.2202557  55.2403157  72.1336099   7.2762405  33.5744553
  72.2102757   7.5756751  34.4803767  71.4307662   7.8103267  33.2043319
  37.4333072  52.2313976  16.9950724  36.9272184  51.5945148  16.4906108
  37.3747849  51.9219208  17.8989697  45.8860350  61.3737917   6.3164967
  46.0455894  60.8902359   7.1270210  45.4470873  62.1762133   6.5987700
  62.8181235  36.8465646  29.6872854  63.1110064  36.1204655  29.1366220
  61.8849722  36.9335397  29.4926143  29.5699739  51.5781021  12.3709249
  29.7897840  51.7200089  11.4501774  29.2755651  50.6681156  12.4093854
  71.4506435  61.6176748  14.8893523  70.9278250  60.9244490  15.2922535
  71.6089439  61.3102531  13.9967918  34.2645621  41.4650249  12.1915627
  34.2176747  40.5345774  11.9717872  33.7034845  41.8925333  11.5445209
   0.3253639  26.6641164   4.4294393   0.1710880  26.7440987   3.4881467
   1.2539709  26.8692589   4.5382300  41.7180824  53.5995960   7.5041652
  41.2257957  54.4203186   7.4869800  42.5057411  53.8032675   8.0084884
  71.7519968  38.3539081  11.1114597  71.8557206  38.9415121  10.3629982
  72.6393345  38.0495381  11.3017833  16.2699807  69.8792839  13.2709694
  15.5297732  70.4299688  13.0158699  15.9144282  69.2954206  13.9409816
  13.3975875  29.4978404  16.9084501  12.6860225  28.9899445  17.2982562
  14.1278219  28.8816977  16.8505013  27.5614977  33.8749981   5.4057622
  27.9561067  33.3714795   6.1177915  26.7010069  34.1283512   5.7398289
  40.4205608  55.9333324   7.1864063  41.0384655  56.2963820   6.5518814
  39.8268533  56.6576910   7.3840111  72.2035055  61.6165093  53.5088753
  71.8539028  62.0987299  52.7595626  72.8609161  62.2019080  53.8848471
  32.3487695  20.6602346  36.4096289  31.4723047  20.6898938  36.7932539
  32.2808775  20.0138961  35.7068710  41.5894870   4.2359145  16.6866577
  41.8156830   3.3310254  16.4716291  42.1445946   4.7643121  16.1131728
  27.5206382  63.4554628  50.1536756  28.4211589  63.6172918  49.8724179
  27.0652753  63.1862405  49.3559306  41.1266359   7.3389493  32.6578145
  41.2623676   6.3953458  32.5716572  41.3527569   7.6929723  31.7977195
  68.4210519  65.6924036  58.1643345  67.7565984  65.2136949  58.6598850
  67.9599838  66.4591816  57.8241925  37.9460096  52.1945381  10.3958929
  38.7440586  52.6139641  10.7174993  37.2857738  52.3956203  11.0591316
  70.4956452   2.3896821   6.1010319  70.4000298   1.5293391   5.6924993
  70.0475231   2.3062833   6.9427341  32.8900369  20.9881173  60.3993292
  33.6046728  21.4583551  60.8287543  32.5806793  21.5894042  59.7218463
  26.0498414  12.5317509  17.2659218  26.4422700  13.4040482  17.2294354
  26.4794991  12.0461781  16.5617585  70.0661608  23.5461723  59.8930633
  69.6546789  23.3010446  59.0643137  69.5320662  23.1173621  60.5617156
  46.7091131  70.6875610  45.8705711  46.7343712  69.9126482  46.4319086
  47.2845650  70.4708004  45.1370192  51.9246580  26.3068544  60.6503967
  52.2492900  25.6836520  61.3003715  52.5288608  27.0471965  60.7057489
  66.1122080  15.3857099  47.8009002  67.0469376  15.5835019  47.8591387
  65.7292100  16.1587201  47.3861664  51.0444895  19.3394215  24.2312336
  51.5039531  19.6493848  23.4508157  50.5005161  18.6168797  23.9177704
  24.6460652  48.0647945  20.6824017  25.0098872  47.2394753  21.0028887
  24.3937612  47.8800535  19.7777212  52.8400282  67.6451543  31.7435937
  52.7056627  67.4512485  30.8159213  53.4284501  66.9550398  32.0497542
  64.9322300  56.0776738  59.2486117  65.1305847  56.7826727  59.8649423
  64.3872838  55.4693654  59.7478383  27.6811012   8.8367616  22.9901509
  27.8792080   8.9340984  22.0587473  27.9154810   9.6815263  23.3744292
  31.7165184  65.6429958   9.3226093  31.2312818  65.5688238  10.1443624
  31.4317822  64.8882294   8.8073611  11.6362111  20.3475085  31.2818341
  12.3679273  19.9770656  31.7753916  10.9905927  20.5801931  31.9491153
  68.7887077  22.5426164  50.3134005  69.6548061  22.2363153  50.5822568
  68.9588527  23.1166998  49.5666008  17.3587053  44.1865060  49.1120749
  18.1962888  44.2199567  48.6499362  17.5641744  44.4747552  50.0014155
  22.7863439   1.7431008  20.1880150  22.1942695   1.0347735  19.9351292
  22.9172167   2.2446619  19.3833189   4.8468368  67.2953132  47.5438695
   4.3985097  66.6479686  46.9996457   4.6298759  67.0447806  48.4418636
  60.6201887  70.2933264  22.0126414  60.1435328  70.2607918  22.8420806
  59.9440384  70.1870012  21.3435006  19.6859392  17.6296435  58.5383924
  19.6513303  17.9922782  59.4235631  20.1509746  16.7989360  58.6379003
  74.7801411  74.7801411  74.7801411 109.4712190 109.4712190 109.4712190
