
39132  0.0000000e+00
  54.7951508  27.5026083  22.7941012  54.0309620  27.9278684  23.2993412
  55.6547737  27.6689053  23.2975912  54.7099686  26.4962864  22.7814078
  54.8895788  28.0089927  21.4029551  55.6930399  27.4955964  20.8747768
  53.5393047  27.8064823  20.6186795  53.6398268  28.2504678  19.6282876
  53.2905865  26.7580533  20.4542542  52.3752356  28.5130262  21.2598324
  51.8495274  29.7427225  20.7498884  52.1633816  30.2081943  19.8272657
  50.8346987  30.4806471  21.3974738  50.3782606  31.3103604  20.8782005
  50.4226494  29.9683738  22.6466894  49.6838617  30.5207109  23.2083941
  50.9115267  28.7783718  23.2241225  50.6004095  28.5181117  24.2250586
  51.8883228  28.0405760  22.5125480  52.2844172  27.1478987  22.9736710
  55.4774380  29.4810295  21.4488482  55.4628086  30.0943327  22.5075984
  55.9420061  29.9297047  20.3019667  55.6999016  29.3516183  19.5099401
  56.4604187  31.2762713  20.0836134  56.8664026  31.5269709  21.0636282
  57.4474478  31.4853835  18.9515376  56.9900846  31.1882424  18.0078053
  57.6686001  32.9987669  18.8541949  58.3915377  33.1810141  18.0590558
  56.8131733  33.6257434  18.6026955  58.0403900  33.4402800  19.7788239
  58.7585688  30.7868981  19.2215955  58.6385059  29.7066951  19.1388416
  59.4891310  31.1289477  18.4885323  59.4608116  31.1581588  20.5457139
  60.3943396  30.6285691  20.7358646  59.7764111  32.1904254  20.6971312
  58.7590122  30.9068465  21.3409615  55.2095032  32.1338010  19.9012482
  54.4266224  31.9709539  18.9162421  54.9291182  33.0313420  20.8874536
  55.6023073  33.0906057  21.6380525  53.8595772  34.0494442  20.7138324
  53.1272936  33.5821605  20.0554156  53.2600260  34.4539618  22.0800853
  54.0772629  34.8536682  22.6804638  52.2117376  35.5302238  21.9970107
  51.3729906  35.1149607  21.4382911  52.0037222  35.7937717  23.0340147
  52.5322151  36.4275217  21.4676213  52.6749039  33.2784033  22.8827739
  53.4220743  32.4922252  22.9912257  52.2648621  33.6641836  23.8161254
  51.8756199  32.8145528  22.3047686  54.4700003  35.2973247  19.9499738
  55.5443668  35.7800364  20.2606702  53.6959648  35.8797598  19.0898240
  52.7795601  35.5436969  18.8302684  54.0323019  37.1061444  18.4611952
  53.2926798  37.3306775  17.6926613  54.0676355  37.8809714  19.2270255
  55.3604221  37.1928215  17.7423263  56.0144520  38.2121706  17.7219188
  55.8864880  36.0605860  17.2842968  55.3404808  35.2135849  17.2166800
  57.2691774  35.8836722  16.7645907  57.3684978  34.8397064  16.4673114
  57.1921539  36.4675379  15.8473837  58.4539938  36.2941504  17.6016939
  59.5414686  36.4337540  17.0556664  58.3022976  36.4528084  18.8999021
  57.3668528  36.5744948  19.2608011  59.4674635  36.7653513  19.7783363
  60.3110552  36.2090850  19.3696582  59.9632978  38.2567167  19.6737635
  60.9761190  38.3778405  20.0579810  59.9058628  38.6352754  18.6532283
  59.1813755  39.2733598  20.5056882  58.1644630  38.8832879  20.5484700
  59.5663357  39.2745328  21.5254498  59.2106867  40.6136703  19.8831415
  60.2497196  40.8124399  19.6204603  58.4919882  40.6364536  19.0639627
  58.8152838  41.5814400  20.9559798  57.8189898  41.4345884  21.3730335
  59.5108652  41.4044809  21.7763138  59.0429115  42.9475260  20.3980494
  58.7732887  43.6453915  21.0765696  60.0347376  43.0887365  20.2698183
  58.4415960  43.0820179  19.5977795  59.3741465  36.3628960  21.3054013
  60.3630733  36.5831304  22.0342326  58.2695723  35.8293962  21.7604947
  57.4393654  35.7739091  21.1879754  57.9888248  35.5869889  23.2029963
  58.9138317  35.8547521  23.7136531  56.7489481  36.4000821  23.6944032
  55.7829380  36.0710168  23.3114719  56.5695524  36.2877083  24.7636485
  56.8741703  37.8858781  23.3916402  57.4910593  38.6884999  24.3280745
  58.0673313  38.1770086  25.0848317  57.4488401  40.0748873  24.3382931
  57.8761053  40.5965519  25.1819229  56.6878653  40.6705427  23.3729196
  56.5633583  42.0481825  23.1723332  57.3583889  42.4497700  23.5304666
  56.0883045  39.8334694  22.3182130  55.5745649  40.3177118  21.5009141
  56.1546087  38.4431005  22.3340130  55.7006836  37.8566790  21.5488625
  57.7950525  34.0888262  23.4805822  56.8155050  33.5047150  22.9191518
  58.6633635  33.3501053  24.2216682  59.4732809  33.7869859  24.6379209
  58.4335947  31.8697667  24.3203998  58.0035925  31.5079212  23.3864450
  59.7579575  31.0539222  24.3913794  59.4892502  30.0220156  24.6173620
  60.1783276  30.9414482  23.3920097  60.7254982  31.4263415  25.5569816
  61.0369635  32.4573922  25.7243824  60.1284170  31.0904098  26.4047694
  61.8992424  30.5043817  25.6212139  61.4342117  29.5485759  25.8626246
  62.4413395  30.6125593  24.6817827  62.8340340  30.9382653  26.7240739
  62.6304674  31.9883537  26.9337678  62.5033569  30.4376578  27.6341033
  64.2661142  30.7032943  26.4485693  64.4630814  29.7132921  26.4139175
  64.6075487  31.2276959  25.6557703  64.8744631  31.0839391  27.1592855
  57.4504232  31.5497112  25.4814339  57.8088617  31.9888163  26.5533233
  56.2922621  30.9091735  25.3147483  56.0423613  30.6214714  24.3794012
  55.3492737  30.5953288  26.3391519  55.1898289  31.5347815  26.8684077
  53.9542055  30.3018951  25.6715322  53.7607193  31.2739229  25.2178526
  53.9562798  29.6240854  24.8179102  52.7369308  30.2130270  26.6391230
  53.0246067  30.7560349  27.5393963  51.5971422  30.9967613  26.1257195
  51.3863039  30.8601546  25.0650668  50.6843185  30.7751393  26.6786528
  51.8465233  32.0347571  26.3458991  52.3710585  28.8443041  27.0503449
  51.6811132  28.9243150  27.8903913  52.0258427  28.2715201  26.1896181
  53.2386971  28.3028913  27.4274039  55.8141279  29.4809437  27.3557830
  56.4264584  28.4999585  26.8986416  55.4734421  29.6716809  28.6546659
  54.9781942  30.5398226  28.8001251  55.9873343  28.7874174  29.7552395
  56.6941309  28.1405687  29.2354989  56.8349838  29.6067476  30.6913090
  56.2443066  30.3307152  31.2526202  57.6627684  28.8641477  31.7488599
  58.2081079  29.5255208  32.4221301  56.9495201  28.3188868  32.3669815
  58.2704926  28.1120348  31.2457705  57.8172922  30.4835606  29.9353266
  58.4915495  30.9037399  30.6816053  58.3027077  29.8426080  29.1993546
  57.3267412  31.3483787  29.4886160  54.7690582  28.1319094  30.4683805
  54.8456812  26.8830204  30.6304622  53.7012768  28.8072348  30.9113765
  53.6726713  29.7448564  30.5370140  52.7165651  28.3072329  31.9148493
  52.3795938  27.4114990  31.3931084  53.3622599  27.8789043  33.3094430
  52.5654459  27.4948764  33.9463973  54.0723562  27.0586252  33.2045603
  54.0988350  29.0633798  33.9764905  54.9556780  29.2653346  33.3337283
  53.4148455  29.9054337  34.0823555  54.6379805  28.6493158  35.3294683
  53.7943411  28.4431887  35.9881687  55.1750088  27.7079654  35.2129936
  55.4005337  29.7465134  36.0204744  54.7723579  30.4064608  36.4563274
  56.7089462  30.0525904  35.9744692  57.6041460  29.3143535  35.4365706
  57.3344755  28.3476973  35.3227401  58.5747004  29.5608926  35.3048539
  57.1274328  31.1219215  36.5047598  56.4560318  31.7424917  36.9339633
  58.0683565  31.4566803  36.3540959  51.5331602  29.2260599  32.1163177
  51.6948128  30.4785776  32.0322871  50.3892279  28.6716032  32.4655747
  50.3428030  27.6653719  32.3918128  49.1804647  29.4040656  32.8942037
  49.1082573  30.2076054  32.1612549  47.9841805  28.5391665  32.8519940
  48.1098604  27.8170395  32.0452499  47.9751873  27.9836082  33.7897444
  46.6814995  29.2526841  32.6243758  46.6083097  30.1307654  33.2660270
  46.6476250  29.5889759  31.5881038  45.4315472  28.3957267  32.8506255
  45.5166674  27.6195645  32.0900822  45.5087137  27.8528404  33.7926602
  44.1409206  29.2420053  32.6492238  43.9710903  29.8964405  33.5041928
  44.2525911  30.0025654  31.8764496  42.8652954  28.4710813  32.6313782
  42.8999233  27.7205348  33.3063436  42.0422363  29.0223026  32.8284359
  42.7065134  28.0153775  31.7441225  49.3350363  30.0551152  34.3185830
  49.7254467  29.3770671  35.2570319  48.9507008  31.3275933  34.3793225
  48.5685396  31.7747188  33.5582662  49.0067482  32.2136116  35.5413079
  49.1801262  31.5495992  36.3881469  50.1593542  33.2171369  35.4488063
  50.2681875  33.7750149  36.3788724  51.4339399  32.3652864  35.2811670
  51.4625931  31.7878342  34.3571377  52.3079538  32.9955173  35.4455042
  51.4777517  31.6795278  36.1272860  49.9362373  34.2663026  34.2696261
  50.0475216  33.7983489  33.2914972  48.9902639  34.8068094  34.3026328
  51.0528040  35.3254724  34.3007636  52.0237160  34.8724031  34.1003561
  50.8627605  36.1074948  33.5656285  51.0022831  35.5766201  35.3602338
  47.7137375  33.1052947  35.7575727  47.5804710  33.9426517  36.6570067
  46.6971016  32.9374123  34.8768449  46.6275024  32.1572876  34.2391443
  45.3242350  33.5370016  35.2344990  45.0258589  33.1290817  36.2002492
  45.4089737  34.6100497  35.4062176  44.2147303  33.2822251  34.2009544
  44.4357681  32.4973130  33.2887626  43.0642176  33.9850473  34.2687726
  42.9807043  34.6332765  35.0387907  41.7973328  33.6032748  33.5738134
  41.9672728  33.5551333  32.4982142  41.3010120  32.2601199  33.9949632
  42.1766520  31.6208720  34.1077542  40.8709478  32.2816253  34.9963021
  40.3618002  31.6850019  33.0598950  40.7879019  31.4961004  32.2206354
  40.7000732  34.6481872  33.8577127  40.5988169  35.0973773  35.0182438
  39.9625969  34.9799657  32.8389549  40.1355696  34.4633007  31.9885206
  38.8651180  36.0451818  32.7228403  38.3660340  36.2140989  33.6770320
  39.3086886  36.9571996  32.3233819  37.8719759  35.6092381  31.5699697
  38.0654788  34.6477342  30.8835983  36.8919992  36.5105796  31.3854027
  36.8787456  37.3692870  31.9169497  35.7372594  36.3891768  30.5119538
  35.3653812  35.3654099  30.5532956  34.6625638  37.4473548  30.7309198
  35.0265527  38.4459734  30.4893112  33.8543010  37.3589516  30.0049734
  34.2651105  37.3794842  32.0624995  33.5390377  37.9917502  32.2023177
  36.1921072  36.4847374  29.0407181  35.4391003  36.0886407  28.1355309
  37.3847556  37.0259047  28.7964606  37.8441644  37.4440694  29.5928168
  38.0301189  37.1632385  27.4438715  37.3058581  37.2869134  26.6387248
  38.9690089  38.4504294  27.4765587  39.1661811  38.6296821  26.4196324
  38.5500431  39.3305445  27.9643774  40.2757788  38.1054235  28.0425143
  40.4163647  37.8866506  29.4472003  39.6248078  38.1793499  30.1211166
  41.5440035  37.1640635  29.9468970  41.5030766  36.7810273  30.9558606
  42.6143837  36.8975210  29.1102886  43.4533834  36.3679266  29.5369196
  42.5273132  37.2275162  27.7254057  43.3010340  36.8942881  27.0496011
  41.3602829  37.7193856  27.1698785  41.1950541  37.6529646  26.1046576
  38.9305401  35.8797646  27.0087624  39.1342354  35.6870151  25.8099461
  39.3679929  35.1562476  28.0260348  39.2734218  35.4009342  29.0013742
  40.4681921  34.1942668  27.7572513  40.0512886  33.2695794  27.3581958
  41.1007786  34.6907330  27.0214152  41.2851572  33.7021041  28.9149809
  40.8648729  33.6402655  30.0474644  42.5540543  33.4440947  28.6583948
  42.9576540  33.6325431  27.7519202  43.5095406  32.9168820  29.6466064
  43.1818390  33.1106448  30.6679606  43.4787846  31.3715887  29.4666409
  43.6059999  31.2114859  28.3959937  44.2285585  30.8373213  30.0501657
  42.1038818  30.6923223  29.8603559  41.7087698  30.7998180  31.0105038
  41.4797401  30.0752306  28.9687300  44.8868132  33.6827421  29.5691919
  45.2739525  34.3294072  28.5634398  45.6522083  33.5704327  30.6677055
  45.3639841  32.9300547  31.3936138  46.7251205  34.4986224  30.9094977
  46.9417858  35.0794697  30.0129628  46.4007568  35.4843974  32.1097636
  46.5421438  34.9987435  33.0752945  47.4923229  36.6083336  32.1017838
  48.4961176  36.2577891  32.3418212  47.4522591  37.1264482  31.1436319
  47.3548079  37.3316073  32.9055643  44.9970484  36.0525274  31.8896341
  45.0264120  36.5367055  30.9135151  44.2403507  35.2725673  31.8048549
  44.6864223  37.1092129  32.9494667  43.7196350  37.5283122  32.6705766
  44.6271849  36.6100526  33.9166427  45.3557777  37.9684806  32.9910111
  47.9105711  33.5859561  31.2806654  47.8367376  32.6664662  32.0774198
  49.0266514  33.8130546  30.5545688  48.9645576  34.5337272  29.8496747
  50.1674271  32.8845143  30.5105948  50.0921345  32.1746111  31.3342905
  50.1403904  32.1667862  29.1553307  50.1846218  32.9301405  28.3785176
  51.0734653  31.6226435  29.0090990  48.9717579  31.2131524  28.8304472
  47.7423143  31.6414881  28.4025645  47.5447321  32.6928687  28.2543755
  46.6218090  30.8868957  28.2885838  45.7302380  31.3347292  27.8751254
  46.6622066  29.5424652  28.7454104  45.5673838  28.7506700  28.7942219
  44.9196148  29.1030622  28.1795502  47.9549026  29.0312672  29.1152501
  48.0999231  27.9992795  29.3987489  49.0749073  29.8104382  29.0779519
  49.9424887  29.2206955  29.3346739  51.5391016  33.6251473  30.5918169
  51.7448092  34.5578527  29.8436952  52.4782562  33.0594158  31.3811207
  52.3154926  32.2193193  31.9176340  53.8737059  33.5232401  31.4931393
  53.6380577  34.5842242  31.5761065  54.4568539  33.1550860  32.7985859
  53.7629604  33.6605692  33.4702229  54.4942856  32.0722699  32.9177785
  55.9169626  33.7385702  33.0740499  56.1299467  34.6588874  32.5302100
  56.1933947  34.0308523  34.5453978  57.2076893  34.4287252  34.5770836
  55.4795885  34.7288561  34.9828601  56.1581373  33.0379629  34.9937582
  57.0754957  32.8165317  32.5933552  57.0924377  32.6716876  31.5131545
  58.0505610  33.2737851  32.7615047  57.0441103  31.8250108  33.0450225
  54.6730089  33.2431841  30.2716303  54.7508240  32.0609331  29.8845625
  55.3711271  34.2166114  29.6493030  55.3984499  35.1304913  30.0784588
  56.1895132  34.0349293  28.4416437  56.5693235  33.0141497  28.3986092
  55.3690672  34.3433714  27.1517992  55.2602768  35.4149151  26.9843006
  56.0228014  34.0356708  26.3356781  54.4129467  33.8436079  26.9963264
  57.4367285  34.8821211  28.5656643  57.4115324  35.9541726  29.2103863
  58.5836029  34.3947434  28.0290079  58.5768509  33.5600138  27.4604321
  59.9058294  35.1047611  28.0978179  59.7263718  35.9215808  28.7968993
  60.9087610  34.1266346  28.8258076  61.0216093  33.2757235  28.1540084
  62.2939634  34.8639202  28.8332868  62.0793152  35.8907843  29.1292119
  62.9757595  34.2337608  29.4043875  62.6502943  34.8761010  27.8032470
  60.3822660  33.6988044  30.1696444  60.4469299  34.5509934  30.8461761
  59.3516350  33.3587074  30.0684571  61.2589073  32.5756669  30.7100630
  62.1108246  33.1055045  31.1362171  60.7712078  32.2163796  31.6162443
  61.4244413  31.7528510  30.0145960  60.3109407  35.6409335  26.7627048
  60.3602266  34.8836803  25.8170199  60.6132936  36.9291115  26.6604829
  60.5200100  37.4510264  27.5201368  61.0304451  37.5122261  25.3780627
  60.3650045  37.2641397  24.5511770  61.0423422  38.9989638  25.5372238
  60.0464249  39.3414807  25.8181715  61.7025661  39.1842556  26.3844991
  61.4871788  39.8377109  24.2640948  62.4876738  39.4905496  23.6755133
  60.8000994  40.8497858  23.8076568  61.2336493  41.3448429  23.0414653
  59.9098539  41.1354542  24.1897011  62.4522114  36.9554877  25.1005197
  63.4214115  37.1322846  25.8042550  62.5569057  36.3402367  23.9290619
  61.7654848  36.0199308  23.3894682  63.8715506  35.7353210  23.5596180
  64.3381548  35.3683186  24.4737792  63.5853386  34.4785023  22.7185655
  64.5313978  34.0187669  22.4327064  62.7794409  33.3941817  23.5576153
  61.7931366  33.7274599  23.8804603  62.6358318  32.5735259  22.8547597
  63.3379269  33.0178142  24.4146681  62.8130293  34.6126246  21.4336395
  61.8029881  34.2537665  21.6314721  62.9052639  35.6791639  21.2284493
  63.1565142  33.7880254  20.1457739  62.3902035  33.8454580  19.3727422
  64.1481018  34.0060425  19.7491384  63.1379128  32.7274680  20.3967118
  64.9490070  36.7196918  23.0206728  66.0979700  36.2721205  22.8023648
  64.6201134  37.9221439  22.7604890  63.7267303  38.3064318  23.0330467
  65.6749821  38.8433099  22.0648718  66.4664888  38.2183266  21.6513348
  65.2149820  39.6069288  20.8952856  65.9925652  40.1127481  20.3229165
  64.3997955  38.7085748  19.9827290  65.1084566  37.9131055  19.7522092
  63.4508514  38.3606911  20.3908706  64.2593861  39.2319441  19.0369642
  64.2449760  40.5827188  21.2900734  63.5398054  40.1055717  21.7335463
  66.3683939  39.7250557  23.1627941  67.3646784  40.3364611  22.9131293
  65.8444166  39.6429992  24.3644857  65.0256586  39.0625167  24.4775414
  66.3905239  40.4568768  25.4782033  67.4384737  40.6575584  25.2554154
  65.7158518  41.8767166  25.4942346  66.1551809  42.5062656  26.2680316
  65.8663511  42.4276924  24.5658612  64.2253923  41.8951559  25.7253838
  63.7372828  41.3182068  26.7000675  63.4891367  42.2910881  24.7231174
  62.5460815  41.9469357  24.8340678  63.6700821  42.6958656  23.8156414
  66.2593174  39.7738552  26.8408799  66.8542814  40.2749538  27.8541088
  65.4622364  38.7122297  26.9938612  65.1370287  38.3489561  26.1093402
  65.2326822  37.9018474  28.1878233  64.6450233  37.0202971  27.9316449
  66.5815496  37.2695351  28.6210108  67.1784067  38.0460119  29.0994930
  66.4359617  36.5299034  29.4083166  67.3958015  36.5980673  27.5591016
  66.8590689  35.7717919  26.8467259  68.6700296  36.9776940  27.3848867
  69.1956091  36.5558457  26.6326165  69.1192293  37.7506185  27.8548956
  64.4217110  38.5400391  29.3087077  64.6579790  38.1145382  30.4850173
  63.5258913  39.4432592  29.0397477  63.4402037  39.7404265  28.0782628
  62.4521303  39.9030185  29.8936248  62.7709484  40.0750971  30.9216523
  61.9378853  41.3177586  29.4307399  62.7429581  42.0306301  29.2524958
  61.4344692  41.2135458  28.4695888  60.9999657  41.9874334  30.4156780
  60.2060890  41.2903070  30.6837630  61.4856243  42.1440315  31.3788629
  60.4257774  43.3790207  29.9958110  60.7020664  43.7784052  28.8418984
  59.7505665  44.0958118  30.8314252  61.3116360  38.8367248  29.9553967
  60.7146835  38.5664821  28.8949323  60.9633541  38.3154988  31.1253262
  61.6044712  38.5251665  31.8770647  59.6021748  37.9236269  31.4656854
  59.3027782  37.0637465  30.8664608  59.4665861  37.5769353  32.9671717
  59.8808384  38.4305787  33.5036302  58.4055948  37.5496078  33.2154727
  60.2700567  36.2839913  33.3978987  59.8279762  36.0411286  34.3641710
  59.9544716  35.4454422  32.7771354  61.8162012  36.2094760  33.5346365
  62.4092960  37.0569921  34.1787386  62.4127483  35.2697206  33.0722022
  58.5126543  38.9774489  31.2665248  58.5133553  40.0456429  31.8838620
  57.4844456  38.5860419  30.5258632  57.5349855  37.7148938  30.0172853
  56.2045145  39.3147755  30.3254128  56.0927248  40.0096321  31.1577463
  56.2759638  40.0525045  28.9409423  55.2621365  40.2996826  28.6260438
  57.0414162  41.3474989  29.3010783  56.4886618  41.9138432  30.0506210
  58.0144024  41.1556244  29.7533941  57.2184181  41.9791079  28.4305406
  56.9896603  39.3251610  27.8052044  56.9252396  39.9687243  26.9278312
  58.0250549  39.1406727  28.0915976  56.4264441  38.4147644  27.6001120
  55.0080204  38.3498502  30.4335260  55.1482487  37.1489692  30.3312922
  53.8656187  38.9885831  30.7541394  53.8569307  39.9937367  30.8525729
  52.6040268  38.3278179  30.9040642  52.7953339  37.2822714  31.1455917
  51.9387245  38.8901925  32.1321845  50.8947802  38.5860682  32.2082639
  52.3212433  38.4022212  33.0286574  51.8956661  39.9771929  32.2005582
  51.7905474  38.4867167  29.6047735  51.9371843  39.5082927  28.8629484
  50.9787130  37.4253511  29.3544960  51.1151838  36.6145968  29.9411416
  50.3126526  37.3623061  28.0204010  50.3932619  38.3309317  27.5270796
  51.0194063  36.2920713  27.0793104  50.7965231  35.3337812  27.5484586
  50.4058981  36.4355063  25.7284760  50.9697819  35.9205365  24.9506974
  49.4103432  36.0041213  25.8328104  50.4374886  37.4979949  25.4871869
  52.5258303  36.5141487  26.8596363  52.9520369  36.5981841  27.8593302
  52.9754782  35.6615233  26.3507700  52.8822756  37.4789643  26.4988375
  48.8758373  36.9587398  28.2561302  48.5908508  35.8282399  28.5786343
  47.9789686  37.8877807  27.9305625  48.4525633  38.7085676  27.5811148
  46.5553617  37.6186013  27.7500105  46.1902857  36.9339776  28.5155869
  45.8199692  38.9288378  27.9429245  46.3078880  39.6969748  27.3429203
  44.8246908  38.7545753  27.5340772  45.7458782  39.3286443  29.4254351
  45.2866030  38.5916615  30.0842428  46.7320538  39.6077871  29.7964287
  44.8971891  40.5477905  29.5774388  45.0149965  40.9800863  30.5710912
  45.1749134  41.2683439  28.8081694  43.3825302  40.0837278  29.3891692
  43.2716084  39.7521710  28.3567619  43.2386589  39.2294979  30.0507545
  42.3660278  41.1007786  29.6366906  42.7615976  41.9265652  30.0629568
  41.9040155  41.5116596  28.8380551  41.6584206  40.7229042  30.2503777
  46.3331318  37.1108150  26.3638282  46.6027927  37.7167845  25.3229189
  45.7881212  35.8853197  26.3583183  45.6354761  35.3681254  27.2123194
  45.3048420  35.0279450  25.2478671  45.7810068  35.5995369  24.4512177
  45.9377956  33.6406898  25.2470756  45.6446457  33.1724286  26.1866975
  45.5120182  33.0110502  24.4658136  47.4885702  33.5835838  25.1504326
  47.9111481  33.8973022  26.1049533  47.9991961  32.2245216  24.8506713
  47.7452946  31.4408541  25.5644679  47.7955008  31.8789649  23.8371634
  49.0773630  32.3506665  24.9493861  48.1256962  34.4547439  24.0100861
  49.2076254  34.5379400  24.1131210  47.7479458  34.0801358  23.0587292
  47.8664398  35.4960704  24.2012024  43.8344574  34.9072528  25.1117182
  43.2217646  34.2018580  25.8491087  43.2812834  35.6282926  24.1638422
  43.8914013  36.2153411  23.6131692  41.8596506  35.6916738  23.8920426
  41.3140249  35.9348202  24.8037839  41.5120983  36.8260932  22.9622436
  41.9472408  37.7067327  23.4347081  41.8363190  36.6285920  21.9404936
  39.9460435  37.1313477  22.9212213  39.5705199  36.1630344  22.5903988
  39.6262884  37.4718094  23.9060783  39.6388197  38.2349038  21.9064426
  39.4385552  39.4200969  22.3028708  39.5982432  37.9703951  20.7348204
  41.3398314  34.3680930  23.3610463  41.9496012  33.7354469  22.5422239
  40.2111912  33.8535547  23.9722562  39.7456002  34.3646574  24.7085261
  39.5289707  32.7293134  23.4513426  40.1149082  31.8274331  23.6285353
  38.1928182  32.4775600  24.1984153  38.3683133  32.2373867  25.2470422
  37.4686003  33.2834744  24.0796113  37.5329566  31.2742734  23.9140749
  37.0404243  31.3510299  23.0936337  39.3370891  32.7524281  21.9290257
  39.0562153  33.7687016  21.3313651  39.4399762  31.5401840  21.3650823
  39.4893980  30.7401156  21.9795299  38.8112736  31.3649964  20.0254321
  39.1870284  32.1237826  19.3390226  38.9581633  29.9138522  19.5196414
  38.6206412  29.1454124  20.2151132  38.2721901  29.7285771  18.6930740
  40.4496050  29.6486044  19.1562402  40.7999134  30.3157616  18.3686590
  41.0191536  29.8219705  20.0692916  40.6815386  28.1663489  18.7699342
  39.8123884  27.5148320  18.2231545  41.7299271  27.5290990  19.2431605
  41.8583918  26.5321660  19.1445589  42.2687531  27.9327655  19.9960339
  37.3500490  31.8111610  20.2162433  36.8247890  31.5213442  21.3164282
  36.7206931  32.4783969  19.2399454  37.2836494  32.6673651  18.4229541
  35.2830172  32.7731347  19.1405034  35.2007771  33.7273836  18.6201715
  34.5862484  31.6542435  18.3224475  34.8547459  30.6740737  18.7165046
  33.5177207  31.8671918  18.3540952  35.0133395  31.5477991  16.8289685
  36.0881925  31.3674068  16.8130696  34.6304011  30.6195927  16.4048362
  34.6303558  32.7724338  15.9761691  33.5572243  32.7784038  15.7852364
  34.9737883  33.7270117  16.3748372  35.2262425  32.6950693  14.5924854
  34.7891879  31.8896103  14.0022981  34.9094844  33.5122395  13.9444089
  36.6594553  32.5756335  14.5727575  37.1405244  33.3535576  15.0011384
  36.8436360  31.6566157  14.9490356  36.9937205  32.5205183  13.6212695
  34.6358633  33.2650328  20.4904413  33.6658788  32.6375008  20.9683657
  35.2515936  34.2690635  21.1116457  36.0353327  34.7314644  20.6734204
  34.7430110  34.8330092  22.3105383  34.5846486  34.0201664  23.0192780
  35.7404160  35.7428122  22.9229426  36.6642690  35.1929212  23.1024289
  35.9565091  36.5581131  22.2325134  35.3415036  36.1183929  23.8652325
  33.4275770  35.5749083  22.1465254  33.2369661  36.2291098  21.1104774
  32.5511312  35.5849767  23.1655645  32.8368211  35.1808238  24.0459871
  31.1580372  36.2039733  23.1032181  30.6034899  35.9727001  22.1937728
  30.3241372  35.5989408  24.2410922  30.7820702  35.6643462  25.2280664
  29.3125224  36.0040545  24.2161584  30.1547647  34.0974498  23.8363433
  29.9791980  33.9567327  22.7698183  31.0675836  33.5958719  24.1577172
  28.9794755  33.6125493  24.5967603  29.2215276  33.8263512  25.6378174
  28.1064487  34.1526580  24.2304182  28.7966394  32.1556330  24.4155097
  29.5584011  31.5413475  24.6654606  27.9622078  31.5858316  23.5137558
  26.9418502  32.1424246  22.8445029  26.6344786  33.0771422  23.0723786
  26.4600897  31.5788507  22.1586466  28.1746173  30.3867912  23.1448245
  29.0361667  29.9566913  23.4495306  27.5525951  29.8858690  22.5265479
  31.1250186  37.7437854  23.1366491  30.2598643  38.4464407  22.5164175
  32.0973802  38.2959652  23.8672447  32.6312423  37.6717663  24.4550085
  32.6922536  39.6001625  23.6998272  32.1847510  40.1381302  22.8991199
  32.2773600  40.4060268  24.9925089  31.1876822  40.3809214  24.9837613
  32.6459789  39.8853254  25.8763051  32.6765418  41.8382978  25.2137923
  32.7000666  42.8235340  24.2577815  33.2596207  43.9316702  24.7401619
  33.4971499  44.8780489  24.2771888  33.7005949  43.6569262  25.9824252
  34.1551995  44.3248558  26.5884829  33.2908893  42.3397541  26.3159800
  33.4105849  41.7661333  27.2231913  34.1763234  39.5399094  23.5265899
  34.8802185  39.3108320  24.5423317  34.6562886  39.6314240  22.2539759
  33.8974214  39.6314931  21.0008049  33.2522869  40.5096960  21.0264874
  33.4020543  38.6654544  20.9034491  34.8958421  39.7627831  19.8460531
  34.9256897  40.8378029  19.6684527  34.5921326  39.2579246  18.9290047
  36.2309909  39.2529321  20.4607391  37.1637201  39.7082067  20.1278138
  36.2714148  38.1672215  20.3730178  36.0874772  39.5936275  21.9581246
  36.5634775  38.8808179  22.6314926  36.6475868  41.0081005  22.2473097
  36.8086028  41.8522167  21.4112353  36.7283225  41.2039804  23.5352039
  36.4649391  40.4691553  24.1761112  37.0623064  42.5121880  24.1512060
  36.4259124  43.2065964  23.6026645  36.6794348  42.5198746  25.6372452
  36.4341211  43.5587311  25.8579135  35.8605957  41.8430471  25.8811808
  37.8328323  41.9655943  26.5058184  38.1258130  40.9946203  26.1064720
  38.7138367  42.6042700  26.5692306  37.4149895  41.8808317  27.9636431
  36.3088465  41.4293146  28.3231735  38.2895541  42.2879076  28.8637352
  37.9402542  42.2891235  29.8114109  39.2177153  42.5843287  28.5977387
  38.5692358  42.9898357  24.0429401  38.8461900  44.1749573  24.2437387
  39.4935060  42.1232224  23.7153149  39.1957259  41.2158632  23.3864808
  40.9554338  42.3384619  23.9822865  40.9469700  42.6380157  25.0302863
  41.8145943  41.0142136  23.9320230  41.3293171  40.1823616  24.4425392
  41.8464231  40.7899952  22.8658080  43.2727385  41.0593510  24.4734907
  43.9360094  41.6124868  23.8085032  43.3012629  41.5118599  25.9107518
  44.2260218  41.2945557  26.4452624  43.1970978  42.5959873  25.8670044
  42.5761414  40.9792900  26.5261126  43.9419794  39.7106910  24.4529629
  43.9141893  39.3878579  23.4122372  44.9836588  39.9076509  24.7063684
  43.4970903  39.0340018  25.1825309  41.5211344  43.5138083  23.1564474
  42.3585892  44.2358303  23.5396528  41.0145760  43.6578655  21.9276595
  40.1943779  43.0931377  21.7589164  41.1847687  44.7422600  21.0276341
  42.2562885  44.8418283  20.8543634  40.7951641  44.3905544  19.5746267
  41.5552998  43.8375998  19.0227807  39.9356413  43.7261581  19.4857454
  40.4477882  45.5990410  18.6501026  39.5594740  46.0891247  19.0486169
  41.6503668  46.5816212  18.3956945  41.8051577  46.7497349  17.3299217
  41.5293264  47.4899387  18.9859605  42.6088095  46.1401510  18.6688030
  40.1234484  45.0885916  17.3110950  39.1699982  44.5754576  17.4365139
  39.8193431  45.8828831  16.6293919  41.0057211  44.5554066  16.9569612
  40.6799507  46.0566425  21.6376734  41.4755917  46.9309807  21.7503691
  39.3539262  46.1010075  22.0054221  38.7426877  45.3170824  21.8266726
  38.8634467  47.2140265  22.7917361  39.2221498  48.0502701  22.1916342
  37.3466969  47.2069740  23.0710649  36.7666721  47.2242880  22.1483636
  37.0211935  46.3194895  23.6137605  36.8403220  48.2895422  24.0304351
  37.3332310  49.5940018  23.8974643  37.9522896  49.8565292  23.0523348
  37.1316314  50.5732727  24.9243164  37.5790048  51.5522337  24.8354745
  36.2595797  50.2936554  25.9863329  35.9740829  51.2246466  26.9471908
  35.1835489  51.0102701  27.4478936  35.8319664  48.9956474  26.1642027
  35.3757596  48.8089943  27.1251583  36.0721374  48.0039883  25.1994777
  35.6900001  47.0086384  25.3716874  39.7059560  47.4818230  24.0345597
  40.0765324  48.6424875  24.2569876  40.0832939  46.5091276  24.8774838
  39.6769071  45.6130838  24.6493244  40.9450483  46.6008234  26.0933638
  40.4501867  47.2721672  26.7951560  41.0152626  45.1823330  26.7050815
  40.0245619  44.7396612  26.6018534  41.7881346  44.6337223  26.1667538
  41.4331293  45.3088427  28.1536007  42.3885202  45.8318949  28.1952953
  40.7446575  45.9645796  28.6866260  41.5201855  43.9036751  28.8135242
  40.8514690  42.9524183  28.3498478  42.2914839  43.7655830  29.8108888
  42.3749733  47.1288967  25.7560802  42.9588747  47.9764366  26.4807916
  42.9396677  46.7167044  24.6333814  42.3557425  46.1305904  24.0540648
  44.2229176  47.1704578  24.0912580  44.9980259  47.0203400  24.8427701
  44.6269274  46.3740921  22.8508782  44.5554543  45.2981377  23.0099916
  43.9340734  46.5539742  22.0288730  45.8399105  46.7635298  22.4125051
  45.8138657  46.8296385  21.4551377  44.2374897  48.7176752  23.7723041
  45.0892639  49.4064760  24.2710853  43.2197952  49.2323780  23.1298018
  42.4773788  48.5860300  22.9036093  42.9729939  50.6976223  23.0635858
  43.8413763  51.1066628  22.5471568  41.7903709  50.9698677  22.0609808
  40.9334040  50.3429508  22.3073292  41.5274429  52.0276117  22.0726204
  42.2861099  50.6021261  20.6748009  43.2075977  51.1576843  20.5006766
  42.4717093  49.5281458  20.6895947  41.1847067  50.9206104  19.6745276
  41.5106630  50.5057144  18.7207413  40.3161621  50.3106880  19.9229801
  40.7324743  52.3326778  19.5529020  39.7825551  52.5281668  20.0504327
  41.5556383  52.8638220  20.0308061  40.6895590  52.7961302  18.1754673
  41.6367197  52.7371836  17.8297698  40.0213957  52.4592018  17.4971330
  40.5513048  53.7937117  18.0991399  42.8920841  51.3727903  24.4066024
  43.3360291  52.5048637  24.5644355  42.3304749  50.7481527  25.4978061
  42.0049524  49.7987795  25.3845024  42.2007322  51.3337326  26.8379760
  41.7925501  52.3412228  26.7576456  41.1902809  50.4513216  27.5653481
  40.7981634  49.6883154  26.8929172  41.7404366  49.8805475  28.3134460
  40.0566339  51.1694384  28.3611870  39.4383597  50.3263330  28.6694193
  40.6147814  51.8459749  29.5704055  41.1275578  51.0837936  30.1571274
  41.2683344  52.6714897  29.2884517  39.8136473  52.3231792  30.1348162
  39.2362642  52.1762037  27.5492835  39.6340919  53.1840324  27.6681161
  39.3221259  51.8944502  26.4998341  38.1901312  52.0948124  27.8443837
  43.4932709  51.3297844  27.6407409  43.7383080  52.3474884  28.2460904
  44.3471050  50.3417683  27.5392056  44.1663361  49.5076895  26.9990754
  45.6236219  50.3451729  28.1704497  45.5012035  50.7099962  29.1902637
  46.3365126  48.9691353  28.0946112  46.3718081  48.6441612  27.0547795
  47.3840666  49.0606213  28.3815956  45.6198740  47.8970909  28.9458847
  45.7878065  47.9772186  30.3150010  46.3511944  48.8374424  30.6451774
  45.3952122  46.8872786  31.1273241  45.6291771  46.9105434  32.1814203
  44.8973656  45.7545567  30.5177569  44.3169975  44.7231770  31.2166643
  43.7782478  44.1713905  30.6449366  44.8037195  45.6916142  29.1432714
  44.4294024  44.7925901  28.6763191  45.1306295  46.7550611  28.3285451
  45.1337481  46.6949177  27.2502232  46.6183138  51.3601828  27.5716853
  47.2470760  52.0428467  28.3663392  46.6457081  51.5351486  26.2639213
  46.0300446  50.9477711  25.7198191  47.5032139  52.5910187  25.5588055
  48.5265684  52.5161648  25.9265542  47.5541019  52.3781776  24.0427351
  46.5040255  52.2859144  23.7653685  48.1583548  53.1188631  23.5189390
  48.2836008  51.0285950  23.7374592  49.3158102  51.3107157  23.9449668
  47.8243303  50.2989101  24.4043374  48.1664848  50.5472279  22.3179817
  47.1182680  50.4253387  22.0450687  48.5483885  51.2462950  21.5739703
  48.9347887  49.2749643  22.2360063  49.9612570  49.4174242  22.5738907
  48.4402704  48.5440493  22.8757834  48.9247990  48.8422012  20.7772470
  49.0989971  49.6098900  20.1444626  49.6470737  48.1880569  20.5117035
  48.0236101  48.4820700  20.4974866  47.0929003  54.0370989  25.9166265
  47.9641008  54.8936319  25.8243132  45.8475971  54.2765093  26.3443613
  45.2145672  53.4948111  26.2531233  45.3282166  55.4998684  27.0141983
  45.6932116  56.3528204  26.4420509  43.8327074  55.5997515  26.8125653
  43.3969021  54.6340895  27.0688343  43.0950165  56.6006851  27.7976179
  43.4381104  57.6283646  27.6781964  42.0628023  56.4694357  27.4729419
  43.1406927  56.2796926  28.8382816  43.3846521  55.8692408  25.3784847
  43.6260271  56.8456507  24.9584174  44.0053368  55.2013254  24.7812009
  42.0237064  55.3868198  25.0988674  41.8567657  55.5087805  24.0286541
  41.8718100  54.3441153  25.3777790  41.3008213  56.0264158  25.6052828
  45.7282400  55.5541754  28.4971619  46.4388418  56.4997244  28.8988900
  45.4357100  54.5720387  29.3198395  44.9838352  53.7227631  29.0122080
  45.8235168  54.6220970  30.7309318  45.5265951  55.6092119  31.0852575
  45.0516701  53.5643578  31.5464354  45.2830362  52.5661182  31.1748385
  45.4377604  53.5662651  32.5657678  43.5033131  53.7275696  31.6372061
  43.1430960  53.9844322  30.6410313  42.7119827  52.4428368  32.0840931
  41.6428423  52.6507235  32.1268487  42.8889894  51.7354202  31.2739468
  43.0588961  52.0452452  33.0378628  43.1493902  54.8879480  32.6248932
  43.7709475  55.7531214  32.3941684  42.1000242  55.1182604  32.4408031
  43.3097601  54.5823669  33.6588240  47.3695803  54.5629120  31.0487819
  47.7626848  55.0503111  32.0668626  48.2350063  53.9233780  30.2745557
  47.8957033  53.4153605  29.4702625  49.6259642  53.6390162  30.6650949
  49.5589495  53.0580759  31.5849400  50.2866793  52.5680447  29.7953987
  51.2006330  52.2332191  30.2859926  49.5987892  51.7243338  29.8506689
  50.5494356  53.0654764  28.3589840  49.6840477  53.5530090  27.9100823
  51.2762260  53.8777399  28.3486986  51.0654879  52.0024061  27.4328423
  51.1596203  50.7813406  27.6864171  51.4293671  52.3363447  26.2332416
  51.8140602  51.6561365  25.5933762  51.3463736  53.2844400  25.8951211
  50.5834913  54.8814917  30.9105921  50.3948212  55.9017324  30.2405810
  51.4327431  54.7192717  31.8680334  51.5377808  53.8108635  32.2968340
  52.3267841  55.7453537  32.4587798  53.3046579  55.2737474  32.3615837
  52.3293686  56.6414261  31.8381810  51.9371414  56.1165810  33.8790679
  52.0989799  57.2613955  34.2081332  51.3008690  55.2168703  34.6721196
  51.1798334  54.2295122  34.4972539  50.6476355  55.6061029  35.8981085
  51.1911821  56.4130163  36.3895869  49.7006655  56.0244608  35.5570364
  50.3337574  54.5418549  36.9091463  51.2579250  53.7536860  37.1881413
  49.1322088  54.5790005  37.5243568  48.3771181  55.1858568  37.2385883
  48.9511538  53.9462852  38.8690639  49.9463940  53.8624191  39.3056083
  48.1526041  54.8595810  39.7739172  47.1954441  55.0843430  39.3033504
  47.8540850  54.1982746  41.1289787  47.2155905  53.3164787  41.0754967
  48.7741613  53.8901949  41.6256189  47.2869396  54.9614191  41.6619539
  49.0484953  56.0679531  40.0776291  49.1849279  56.6275120  39.1522193
  48.6172104  56.7170954  40.8396721  50.0266361  55.7522154  40.4404640
  48.3692741  52.4636507  38.8032413  47.1970320  52.3438072  38.3761382
  49.1957045  51.4499092  39.1051745  50.0863361  51.6892385  39.5169997
  48.9008427  50.0128269  38.9926863  49.7848463  49.3751764  38.9988756
  48.2720232  49.5998001  39.7814155  48.2207012  49.6256971  37.6434994
  47.3947906  48.7247992  37.6379108  48.6093712  50.2089357  36.5645504
  49.2919111  50.9532928  36.5777493  48.2090473  49.7811985  35.1973653
  47.5010777  48.9628458  35.3284192  47.5632477  50.9961367  34.5219398
  48.3718491  51.7049313  34.3433809  46.9015455  50.5544090  33.1964040
  47.6077366  50.1506376  32.4708891  46.0280704  49.9027920  33.2195091
  46.5021992  51.4849138  32.7929449  46.4784384  51.8367386  35.2772284
  46.9820309  52.4095964  36.0559011  46.1538696  52.6508045  34.6291113
  45.2643585  51.1003399  35.8074212  45.4268360  50.3335714  36.5648985
  44.6969175  51.9097328  36.2667656  44.6528053  50.6307268  35.0369883
  49.3399143  49.3168116  34.3637204  50.4126501  49.9190235  34.3648767
  49.2310286  48.1223536  33.7371325  48.0671215  47.2324657  33.6495662
  47.1200991  47.7464056  33.4848738  48.0349970  46.6602993  34.5767617
  48.3675909  46.1970091  32.5470662  48.1849051  46.5479231  31.5313959
  47.7451086  45.3263617  32.7534318  49.8347282  46.0525846  32.6769924
  50.1801300  45.7561970  31.6865611  50.0298214  45.2196741  33.3524895
  50.3296900  47.4418211  33.0833197  51.2433577  47.3917246  33.6755991
  50.7116604  48.2048941  31.7138624  49.8396444  48.3664608  30.8463001
  51.9820309  48.5313702  31.3934541  52.7208233  48.3534098  32.0587492
  52.3992538  48.9160395  30.0830102  51.6475677  49.6303701  29.7471404
  53.8121223  49.6324635  30.0974035  53.7256289  50.5937290  30.6039500
  54.3845129  49.0633154  30.8298969  54.4545984  49.7466040  28.7317181
  55.4364967  48.9442253  28.1953692  55.8843184  49.5750189  27.1058130
  56.7198420  49.2598009  26.4984131  55.0886822  50.6210756  26.8279839
  55.1016665  51.2379551  26.0283566  54.2602110  50.7717085  27.8836632
  53.5579967  51.5701628  28.0727911  52.3717785  47.6883841  29.1784382
  52.8881264  46.6215038  29.5065045  51.9109583  47.9620409  27.9619884
  51.6498470  48.9052248  27.7123427  51.9413137  46.9630241  26.9234633
  51.8146467  45.9499598  27.3052430  50.8035088  47.2930861  25.9158707
  50.9532166  48.2939911  25.5110550  50.7759333  46.3129473  24.6825910
  50.5811739  45.2841854  24.9856091  49.9965572  46.6230059  23.9865041
  51.7116308  46.2958765  24.1237664  49.3705511  47.4785328  26.4738464
  49.3964291  48.4609985  26.9452214  48.7004042  47.3880291  25.6189704
  49.0809107  46.3096380  27.4458432  48.0151844  46.1621094  27.6206565
  49.4823408  45.4030228  26.9930625  49.5765114  46.4152908  28.4108925
  53.2291317  46.9675159  26.1296558  53.5787392  47.9009533  25.3894448
  53.9824295  45.8329535  26.0995722  53.6337614  45.1171255  26.7209601
  54.9446869  45.4487276  25.0121379  55.7454443  46.1882162  25.0186038
  55.6683969  44.1189575  25.3706670  54.9822855  43.2767534  25.2809787
  56.4668036  43.9071703  24.6594739  56.1322403  44.0326452  26.8007731
  55.3368139  44.1395044  27.5383186  56.5006447  43.0097580  26.8787265
  57.1530485  45.1498699  27.0839524  57.9554844  45.1950741  26.3476396
  56.4484549  45.9433270  26.8348265  57.5765991  45.1568270  28.5031509
  58.5065985  44.8368645  28.7329960  56.9060612  45.5481625  29.5541620
  55.8038521  46.1896658  29.4530392  55.6082106  46.5683794  28.5373974
  55.3627586  46.5295219  30.2956724  57.3190260  45.1909685  30.7193756
  58.2714844  44.9010563  30.8892894  56.6257620  45.3459883  31.4373326
  54.3229437  45.2858782  23.6259174  54.8646832  45.8738470  22.6976919
  53.3260536  44.4361591  23.3909583  52.8467655  44.0283775  24.1809583
  52.8642178  44.1594076  21.9592810  52.7425289  45.0901270  21.4051533
  53.8637161  43.1742811  21.2921739  54.8529816  43.6290646  21.2409115
  53.9742804  42.2281742  21.8220425  53.5266733  42.6457167  19.9570954
  53.5370874  43.4011173  18.8291419  53.6984491  44.4608498  18.6975002
  53.0302000  42.6891804  17.7755606  53.1476831  42.9881763  16.8180120
  52.4930954  41.4718294  18.1889987  51.7270899  40.4936123  17.4841511
  51.4710188  40.6790400  16.4514625  51.2771225  39.3569708  18.1480026
  50.8008862  38.5383677  17.6288795  51.5108585  39.2902803  19.5450556
  51.1641169  38.4125662  20.0702143  52.1639729  40.3136492  20.2013373
  52.2771835  40.3101921  21.2753868  52.7233934  41.4438105  19.5702112
  51.5185022  43.5732937  21.8442702  51.2148905  42.5243425  22.4097204
  50.6018257  44.1504478  21.0380435  50.7029581  45.0984669  20.7046628
  49.3121290  43.5799885  20.4948187  48.8213778  42.9153872  21.2058544
  48.3192253  44.7982788  20.3341341  48.0603504  45.1977015  21.3147163
  48.7764597  45.6206846  19.7839618  47.0158958  44.4345760  19.6186030
  45.9622860  43.7318563  20.2409935  45.9459400  43.5945272  21.3121033
  44.8285580  43.3671331  19.4939840  44.0746117  42.7971554  20.0165653
  44.7423887  43.6039209  18.1066561  43.6940813  43.1320906  17.3718739
  43.1919622  42.4041414  17.7454650  45.7736588  44.3026495  17.4884701
  45.7474279  44.4431973  16.4179742  46.8887806  44.7156096  18.2734835
  47.7220488  45.1209927  17.7187467  49.2830944  42.9214334  19.1231310
  49.9485731  43.3969593  18.2175875  48.4131718  41.8939209  18.9741349
  47.7438259  41.5765333  19.6606839  48.0417156  41.3381338  17.6237130
  47.8070879  42.1610403  16.9485283  48.8789606  40.8161402  17.1604252
  46.8978977  40.3988266  17.7336311  45.9906864  40.4875660  18.5585165
  46.9460249  39.4611692  16.7873120  47.7660418  39.4245410  16.1988103
  45.9753847  38.3672023  16.7275512  45.4979420  38.1836462  17.6900780
  44.8879623  38.6618114  15.7100952  45.3283119  38.7696242  14.7188497
  44.2251015  37.7965546  15.7025337  44.0411520  39.8814917  16.0659373
  43.3344460  39.6631050  16.8665457  44.7169971  40.6245375  16.4892840
  43.0750561  40.3708649  15.0275981  42.8168535  39.7131205  14.0580773
  42.7362204  41.6300249  15.0607550  42.1433878  41.9353294  14.3021762
  43.0508137  42.1539164  15.8649123  46.6470480  37.0664668  16.2531793
  47.4027300  37.0539784  15.3059030  46.2810850  35.9653783  16.9281912
  45.4348660  36.0207462  17.4767768  46.6991138  34.6465373  16.4854193
  47.7649450  34.8221159  16.3395488  46.4586163  33.5132742  17.5735080
  46.9299412  33.8350606  18.5021687  45.3888130  33.4890985  17.7809477
  47.0605278  32.1685266  17.1591127  46.9480467  31.4993119  18.0121064
  46.4929104  31.7226791  16.3423359  48.5500860  32.3485065  16.7926681
  49.1992569  33.3269215  17.2848713  49.1419649  31.4323902  16.0975182
  46.2065506  34.2242646  15.1067197  46.9953346  34.0367579  14.2026913
  44.8978329  34.2266774  14.9612379  44.3631363  34.6075869  15.7287753
  44.1513634  34.0491271  13.6935282  44.8585463  34.0911889  12.8651452
  43.5711050  32.6217365  13.6012959  42.7506828  32.4777937  14.3043494
  43.0877733  32.5704718  12.6256585  44.7092295  31.5330672  13.5699058
  45.4395390  31.8146515  12.8113163  45.2099371  31.4774251  14.5365012
  44.0079165  30.1545811  13.2746744  43.1743717  30.0553274  13.9699805
  43.5912371  30.1328588  12.2676957  45.0937176  29.1847157  13.4669328
  45.9514570  29.4912744  12.8682601  45.5532694  29.3730187  14.4372189
  44.7712183  27.7958441  13.1310391  44.4116020  27.2939301  13.9303255
  44.1078091  27.7034616  12.3750949  45.5868101  27.2854567  12.8237581
  43.1524086  35.2276301  13.5019159  43.4254169  36.1673522  12.7286005
  42.0393229  35.2078366  14.1658914  41.8833399  34.3452668  14.6676350
  41.2243128  36.3988686  14.4868124  41.6450310  37.3146892  14.0716398
  39.7890711  36.1898661  13.9110279  39.1000772  36.9995451  14.1514671
  39.9186397  36.1437249  12.8297400  39.0721440  34.9442577  14.3446207
  39.7183251  34.0172458  14.8343456  37.8791094  34.8715305  14.3892384
  41.1028290  36.6614270  15.9799290  40.7935619  37.7844715  16.3786399
  41.3143301  35.6331134  16.7984068  41.3535833  34.6762514  16.4775109
  41.3857412  35.7643223  18.2615471  40.5868721  36.4000964  18.6432588
  41.2654066  34.3660331  18.9058673  41.5062141  34.4519234  19.9654591
  40.2125931  34.0837574  18.9042389  42.0734358  33.2463050  18.3253217
  43.1543732  32.7430797  19.0244401  43.6504412  33.2328534  19.8493254
  43.7850809  31.5044546  18.5784650  44.6158934  31.1649251  19.1791916
  43.3996534  30.8558416  17.3524392  43.9423084  29.6528816  16.9559288
  44.5341587  29.3226624  17.6358342  42.3319769  31.4094305  16.6646039
  42.0950127  30.9744430  15.7048929  41.6578150  32.5649524  17.1681619
  40.7556534  32.8930950  16.6733587  42.6387453  36.5594268  18.5675907
  43.7757635  36.1816525  18.2433319  42.4159145  37.7224779  19.1830385
  41.4339066  37.9553080  19.2223597  43.3065939  38.7085462  19.8078227
  43.6603451  39.2747092  18.9461863  42.4934769  39.8098445  20.5079222
  42.0107174  39.3148994  21.3505793  43.1622553  40.6068802  20.8328342
  41.6093922  40.6303215  19.6040988  42.0602322  41.1287975  18.6014760
  40.3890276  40.8616114  20.0504827  39.7030449  41.3419771  19.4858789
  40.1435328  40.3899717  20.9091973  44.4124174  38.1468439  20.7452774
  44.1629839  37.0825219  21.3603663  45.4613686  38.9503360  20.8692575
  45.4329014  39.8250699  20.3651428  46.6283798  38.6620402  21.7682409
  46.2544155  37.9881883  22.5390649  47.7816248  37.8296018  21.0502410
  48.2361937  38.3940578  20.2360821  49.0696287  37.6702690  21.9386554
  49.7464705  38.5157657  22.0616221  48.7203407  37.2014117  22.8585887
  49.7295141  36.9302249  21.4859033  47.2801495  36.3774657  20.6733513
  46.7288828  36.4622831  19.7368634  48.1813955  35.8198214  20.4186082
  46.7418528  36.0626316  21.5673399  47.1875620  39.9344158  22.3390579
  47.1544218  40.9087181  21.6835523  47.6357412  39.9158859  23.6587572
  47.6280832  39.0437794  24.1681409  48.2888603  41.1069965  24.2458749
  48.6924744  41.7331743  23.4501934  47.2203016  41.9221401  25.0164557
  46.2852621  41.8366528  24.4628334  47.1346283  41.4324903  25.9865093
  47.4590445  43.3915949  25.3395176  48.2091427  43.4127951  26.1300921
  47.9378939  44.1228819  24.0864110  48.0162621  45.1869678  24.3093038
  48.9411211  43.8701916  23.7432218  47.1787548  44.1011381  23.3045292
  46.2018728  44.1792440  25.7563519  45.8245945  43.8564205  26.7266822
  46.4209366  45.2312517  25.9391117  45.3974104  43.9433527  25.0597286
  49.4635677  40.7339811  25.2218366  49.2114735  39.8929024  26.0925055
  50.6301785  41.2491512  25.0269079  50.7978630  41.6590977  24.1192031
  51.8916702  40.9952831  25.8191538  51.6426516  40.2483654  26.5729451
  53.0040169  40.5869913  24.8799276  53.2605267  41.4488697  24.2639208
  54.1922903  40.0200367  25.6373286  54.9665928  39.6316838  24.9757099
  54.6083546  40.7414103  26.3406205  53.8805914  39.1271567  26.1792755
  52.5003290  39.4770455  23.9041853  53.3468676  38.9526534  23.4609151
  51.9704390  38.7489963  24.5184016  51.7467260  39.7524595  23.1663942
  52.2450542  42.3139381  26.5606713  52.4603939  43.3565569  25.9324932
  52.6117659  42.2405386  27.8120589  52.3405695  41.3619232  28.2299042
  52.6291418  43.3856297  28.7418890  53.0841589  44.2837620  28.3242559
  51.1594772  43.6717081  29.1391182  51.0979271  44.5743132  29.7470737
  50.5824518  43.9201689  28.2483816  50.2665520  42.6846170  29.8876381
  50.4455519  41.6592026  29.5642376  50.4415464  42.7504826  30.9614825
  48.4814787  43.0064201  29.6299958  47.9224396  42.6346731  31.3470554
  47.0332003  42.0274830  31.1777186  48.6457539  42.1162367  31.9764566
  47.5901413  43.5996056  31.7299247  53.4100008  43.0594635  30.0513768
  53.8531113  41.9188881  30.2219343  53.5516930  44.0639067  30.8680558
  53.1619024  44.9653006  30.6321454  54.1303062  43.9315557  32.2086024
  55.2116919  44.0455198  32.1329856  53.6256123  45.0193453  33.1545854
  52.5388098  44.9447298  33.1918502  54.0052748  44.7543955  34.1413784
  54.1691446  46.4018011  32.8370047  55.2258444  46.4891005  32.1869040
  53.6287355  47.3494291  33.3891487  53.8146448  42.5667000  32.8675795
  52.6300907  42.2250319  33.0058885  54.8431063  41.8121099  33.2619786
  55.7940388  42.1100187  33.0974269  54.6213722  40.7230806  34.1470289
  54.1693306  39.8833108  33.6192513  56.0127497  40.0472164  34.5639801
  56.6725397  39.7585464  33.7457824  56.5218496  40.8989716  35.0150061
  55.9981155  38.8870215  35.6202149  55.3926706  39.1918492  36.4738083
  55.3950787  37.6122284  35.0775242  55.8457994  37.2708344  34.1456437
  55.4930210  36.8461990  35.8467507  54.3269968  37.8244448  35.0298834
  57.4204683  38.7379599  36.0804272  57.7565765  39.7519112  36.2972951
  57.3472214  38.0840564  36.9494200  57.9956341  38.3143950  35.2570939
  53.6903191  40.9906197  35.3423905  53.9714861  41.8775129  36.1757326
  52.8799486  40.0391245  35.5627966  52.7279568  39.3025398  34.8886728
  51.9208002  39.9285078  36.7102194  52.2045088  40.6637907  37.4631929
  50.5624056  40.3555822  36.1876559  50.4403114  39.9054098  35.2024984
  49.8066759  40.0561094  36.9138026  50.5719566  41.9004536  35.9274197
  51.2180948  42.2137642  35.1073933  49.1863728  42.2543144  35.3849697
  48.4930658  42.2529697  36.2260485  49.1650724  43.2524252  34.9474549
  48.9138269  41.5277576  34.6195126  50.9225273  42.8453875  37.0614839
  51.9685888  42.7161407  37.3392534  50.9119034  43.8653898  36.6772985
  50.3158617  42.7129316  37.9573154  51.8942022  38.5181022  37.3540616
  52.1947670  37.5037789  36.8254066  51.4856672  38.4955430  38.5790634
  51.2518740  39.3938136  38.9772463  51.2242270  37.3629189  39.4821978
  51.6935253  36.4750648  39.0584373  51.5410709  37.5673795  40.5048895
  49.7520399  36.8720317  39.5854092  48.9984083  37.0446658  38.6004210
  49.3357944  36.2961125  40.7267666  50.1577473  36.1767101  41.9320250
  50.1117325  37.1079898  42.4965620  51.2010670  35.9068704  41.7684269
  49.5113134  35.0891542  42.7156544  49.5633698  35.3951502  43.7605238
  49.9621248  34.1117382  42.5438213  48.0558681  35.0503922  42.3037958
  47.3847723  35.3007388  43.1254244  47.9324675  33.9894032  42.0865965
  48.0192757  35.8932924  40.9911680  47.6902390  35.2613187  40.1662779
  47.0361471  37.1392846  41.0682440  47.4258041  38.2640004  41.3068247
  45.7063437  36.8720937  40.9328365  45.3815651  35.9461641  40.6935167
  44.7033119  37.8990293  41.3839817  45.0317097  38.9375234  41.3417625
  43.4483957  37.7984524  40.5615807  42.8066063  38.6479974  40.7949924
  43.7740850  37.8832269  39.5248365  42.7032995  36.5547061  40.8001900
  43.2509422  35.7683945  40.7418442  44.4598532  37.7309155  42.8828478
  44.8501682  36.6688347  43.4191704  43.7317657  38.6383104  43.5561371
  43.3702087  39.4502139  43.0763531  43.2809973  38.4529781  44.9863863
  44.1400671  38.3068633  45.6411791  42.5991488  39.7783494  45.3462553
  41.8562412  40.1032734  44.6178198  42.0867729  39.6462321  46.2992048
  43.7109852  40.8615780  45.5893087  44.3818665  40.9277725  44.7327852
  43.2432270  42.2797298  45.9379482  42.7755451  42.3715687  46.9182253
  44.0844345  42.9675102  45.8517790  42.5163651  42.5253248  45.1637077
  44.7744799  40.4302883  46.6633701  45.5108213  39.7061253  46.3148022
  45.1567030  41.3608980  47.0828676  44.3892908  39.9817181  47.5790691
  42.3585176  37.2490764  45.1417542  42.4111366  36.7206311  46.3133764
  41.6079950  36.8133140  44.1551256  41.5964842  37.4679399  43.3860826
  40.7736683  35.6483531  44.2680740  40.1793098  35.7646418  45.1743364
  39.7864294  35.5197883  43.0340004  38.9797640  36.2522554  43.0636930
  40.2921534  35.8378196  42.1222973  39.2465663  34.1225624  42.7603245
  38.5814238  34.1105986  41.8968773  40.0820923  33.4571862  42.5429058
  38.5181069  33.5195708  43.9791822  37.4531412  34.0618730  44.2827606
  38.7554026  32.4325705  44.5209551  41.6213131  34.3002820  44.4472408
  41.3239241  33.3875418  45.2090979  42.8405857  34.3715191  43.9424372
  43.0699062  35.1828599  43.3863449  43.8469410  33.3110619  44.1130733
  43.3171606  32.3744488  43.9393187  44.7534132  33.4261012  42.9444504
  45.2916288  34.3727565  42.9920864  45.5848885  32.7213836  42.9555845
  44.0271235  33.3370161  41.5723848  44.1242552  34.2896795  40.7704973
  43.4949112  32.2357225  41.2363768  44.6167994  33.3469892  45.4133892
  44.6913815  32.3501539  46.1489582  45.0102329  34.5212936  45.8407402
  44.8178387  35.2976322  45.2239895  45.4611588  34.8213172  47.2026491
  46.3915873  34.2654228  47.3183203  46.0074949  36.2463522  47.1726942
  45.3035116  36.9570899  46.7398453  46.2007380  36.5649271  48.1970310
  47.3490381  36.2773752  46.3556814  47.1900415  35.6863260  45.4537487
  47.7786684  37.7242637  45.8925962  48.7298918  37.6508546  45.3654337
  46.9993687  38.0737782  45.2153730  47.8495073  38.3402991  46.7890263
  48.5943604  35.7484937  47.1271896  48.4373379  34.8247433  47.6840782
  49.3321896  35.4874587  46.3685179  48.9927197  36.5692210  47.7236986
  44.4912338  34.5822597  48.3248234  44.9256659  33.9917421  49.3252897
  43.1938267  34.8893356  48.1578875  42.9459620  35.3834248  47.3125839
  42.1555853  34.6242881  49.1043186  42.5235701  34.8106790  50.1132536
  40.9437895  35.5082917  48.8789845  41.1689901  36.5378284  48.6007071
  40.4825354  35.1166773  47.9723501  40.0343418  35.6596255  50.0763369
  40.4315853  36.4478636  51.1779881  41.4617682  36.7418671  51.3147068
  39.4953728  36.7604327  52.1715450  39.8802972  37.2789025  53.0372381
  38.1358290  36.3868809  52.0252800  37.3784065  36.5553164  52.7765083
  37.7439022  35.6417203  50.9627724  36.7551732  35.2281475  50.8294582
  38.6975336  35.2836180  49.9338388  38.2924604  34.8240447  49.0443993
  41.8937492  33.1203365  49.0521336  41.6292620  32.5607395  50.0903749
  41.8701506  32.4774647  47.9026651  41.9389153  32.9705739  47.0239115
  41.8263054  30.9780025  47.7751255  40.9328985  30.5685449  48.2465839
  41.8614292  30.3773832  46.3803291  41.2504101  30.9510088  45.6833982
  42.8389215  30.5545831  45.9317541  41.3279104  28.9456415  46.3170052
  41.1905527  28.2213163  47.3082161  40.8730555  28.5516906  45.1362133
  40.8146286  27.5462651  45.0599623  40.9604406  29.2625809  44.4241047
  43.0029058  30.4355979  48.5523605  42.6620865  29.7089863  49.4878435
  44.2405510  30.7287192  48.3035564  44.3907452  31.3857603  47.5513268
  45.4092646  30.1331544  48.9494467  45.5036259  29.0642905  48.7578154
  46.7044592  30.7900929  48.4526253  46.7827749  30.5465317  47.3930788
  46.6892147  31.8748474  48.5583735  48.0369997  30.4311585  49.0807009
  48.5589695  29.1425610  48.8228655  48.0370903  28.4401822  48.1898499
  49.8752308  28.7763739  49.3185139  50.4411840  27.8715801  49.1528368
  50.5383778  29.7228169  50.1278734  51.4959335  29.5478868  50.5957317
  50.0741386  30.9575796  50.3470421  50.5986357  31.6493964  50.9894562
  48.8161469  31.2969494  49.8631382  48.3304739  32.2441101  50.0459051
  45.3328800  30.2320313  50.4784107  45.7513094  29.2858958  51.1217403
  44.8561621  31.3575983  50.9927893  44.4963217  32.0771480  50.3821611
  44.6495867  31.5692616  52.4448776  45.5211687  31.0723495  52.8709316
  44.5834684  33.0925989  52.7646589  43.7399006  33.5963750  52.2927427
  44.4390965  33.1894660  53.8407087  46.0998392  33.9737868  52.1519852
  45.7695055  34.0588880  50.8602715  43.2949543  31.0401011  53.0125523
  42.8913546  31.3042879  54.1387463  42.5550842  30.3178048  52.2190332
  42.9455090  30.0898242  51.3158751  41.2929964  29.6717644  52.6268721
  41.1251497  29.0996099  51.7144203  41.4557838  28.5398030  53.6471081
  41.7576122  29.0108132  54.5826054  40.6163263  27.8677440  53.8252783
  42.5734997  27.7267933  53.2600784  43.3305454  28.3144927  53.3156919
  40.1564026  30.6640291  53.0306292  39.4704938  30.4034066  54.0235662
  39.9929309  31.7958665  52.3468399  40.5566645  31.9257593  51.5189266
  38.7743258  32.6717043  52.4422932  38.9751697  33.3712387  51.6308641
  37.4874997  31.8621135  52.1572208  37.2624779  31.2147784  53.0048227
  36.6248631  32.5106931  52.0045805  37.5691390  30.9112573  50.9919214
  38.1671238  30.0193954  51.1792707  36.5561986  30.5416036  50.8325386
  37.9160476  31.6529560  49.6673584  37.1414065  32.4182320  49.6184778
  38.9224577  32.0712066  49.6848917  37.8776383  30.6563020  48.6143017
  37.2893357  29.8428750  48.7253809  38.2191062  31.0725355  47.3902225
  38.6929035  32.2318625  47.1189785  38.6082768  33.1331038  47.5669813
  38.9668822  32.3251343  46.1513329  38.1810832  30.2227068  46.3955450
  37.8271437  29.3083930  46.6381502  38.3740139  30.4904580  45.4409838
  38.7730813  33.5254478  53.7722158  37.7055597  33.8268185  54.3409967
  40.0037432  33.9966798  54.1153097  40.7283020  33.6848497  53.4845352
  40.2538013  35.0210595  55.2350855  39.3743277  35.6646419  55.2558708
  40.3278065  34.2799091  56.6131926  40.4728413  35.0403953  57.3804760
  39.3527436  33.8425040  56.8277407  41.3398838  33.1439757  56.6709232
  41.1587715  32.4273586  55.8698225  42.3857784  33.4160233  56.5288353
  41.2890100  32.4455237  58.0073452  41.5530825  33.0661654  58.8636017
  40.2502203  32.1410799  58.1351566  42.2266960  31.3023138  57.8847885
  42.2816658  31.0135984  56.9184923  42.5463200  30.4755306  58.8567257
  42.3175907  30.7340193  60.1226521  41.8855238  31.5915418  60.4358196
  42.5255442  30.1057148  60.8856010  43.1961584  29.3752742  58.6062145
  43.5534525  29.3459964  57.6619768  43.5761118  28.7893867  59.3359232
  41.5607595  35.8314466  55.0915241  42.6453257  35.3016448  54.7207737
  41.4453936  37.1156931  55.3022766  40.5458164  37.4806476  55.5809689
  42.5303602  38.0173612  55.5275154  43.4889841  37.5026274  55.5922556
  42.4903965  39.0425134  54.3999290  41.4262867  39.2625237  54.3140841
  42.9808092  39.9288368  54.8024511  43.0288887  38.7092018  52.9849958
  43.9694595  37.6784420  52.8346586  44.4240332  37.1934724  53.6858749
  44.5181370  37.3310661  51.5375853  45.2637577  36.5568304  51.4326668
  43.8820648  37.9086494  50.4175854  44.2331171  37.5711465  49.4536018
  42.9829597  38.9549780  50.5642843  42.5427437  39.3031955  49.6415949
  42.4947309  39.3248606  51.8276691  41.8134689  40.1388407  52.0269728
  42.4625731  38.7058592  56.8856049  41.3832045  39.0762091  57.3038483
  43.5460806  39.0343428  57.5053883  44.4250345  38.7576437  57.0918941
  43.6446571  39.9891376  58.6317778  42.9021645  39.7194004  59.3828058
  45.0555658  39.9434519  59.3040466  45.0721121  40.5792618  60.1892471
  45.3262234  38.5362935  59.9602509  44.3762970  38.1450343  60.3244638
  45.6789017  37.8834915  59.1617680  46.0221863  38.6456871  60.7919836
  46.1314487  40.3009510  58.4021854  46.2495184  39.5407176  57.8279877
  43.3361483  41.4090157  58.2547140  43.5301590  41.8709660  57.1528769
  42.7015543  42.1969986  59.1627264  42.6749897  41.8112278  60.0957727
  42.2379589  43.5777426  58.9365387  41.4317036  43.6058521  58.2035542
  41.5820074  44.1231441  60.2159357  40.8251381  43.4643841  60.6417131
  42.2483015  44.0842438  61.0776997  40.9208918  45.5063629  60.1185179
  40.4834318  45.9262753  61.0242748  41.7352057  46.2012959  59.9134445
  39.7293043  45.6701279  58.8162374  38.2598281  44.7669268  59.5010233
  38.4335446  43.6914206  59.5357990  38.0414152  45.1202202  60.5087852
  37.3999524  44.8828936  58.8412762  43.3345509  44.4912529  58.3785200
  43.1475115  45.2854156  57.4276161  44.5585775  44.2055416  58.8225269
  44.5694256  43.6610079  59.6730947  45.8183718  44.8139858  58.3666945
  45.7059765  45.8961535  58.4328794  46.9806385  44.2440033  59.1900396
  46.7029476  44.3289042  60.2406502  46.9719505  43.1845188  58.9340734
  48.3475637  44.8987007  58.8580847  48.6174297  44.7023773  57.8204250
  48.1941605  45.9759474  58.9221621  49.4906712  44.4828033  59.7865295
  49.2427063  45.0328636  60.6943035  49.3729210  43.4126520  59.9568415
  50.9264326  44.7671890  59.2715454  51.0521412  44.3953562  58.2546711
  51.0471344  45.8448982  59.1616583  51.9150734  44.2534828  60.2854061
  51.7849874  44.4072390  61.2751198  51.8524933  43.2467270  60.2341843
  52.8691101  44.4361830  60.0087547  46.0651636  44.5762444  56.8747139
  46.3071442  45.6194544  56.1865425  45.9237099  43.3814907  56.3605928
  45.4157877  42.7426291  56.9555473  45.9471083  43.0557346  54.9094820
  46.9269466  43.3587074  54.5403957  45.9321737  41.5233755  54.7224140
  44.9254894  41.1864567  54.9697447  46.1728907  40.9316969  53.3539963
  45.6081247  41.2985468  52.4969292  47.2147942  41.0363054  53.0513382
  46.1239767  39.8448491  53.4209013  46.7927122  40.8795643  55.5911922
  46.3025284  40.0837135  55.8101511  44.8604965  43.7853241  54.1487646
  45.1977968  44.4879532  53.1835508  43.6219025  43.7221861  54.7091866
  43.4366560  43.0508327  55.4406738  42.4746370  44.2791700  54.0054989
  42.4497128  43.8313866  53.0120325  41.1122751  43.8590717  54.6194410
  41.0447741  44.3393612  55.5955887  39.9625874  44.3172169  53.7905121
  39.8528552  43.6540174  52.9324770  39.0540099  44.3131542  54.3926620
  40.0728989  45.3714275  53.5364103  41.2181902  42.3329973  54.7032690
  41.8333006  41.9786215  55.5304098  40.1960421  41.9808722  54.8422384
  41.6183138  41.9789457  53.7531853  42.5830746  45.8411217  53.8032818
  42.4763870  46.3347197  52.6852655  42.8771830  46.5595055  54.8641491
  42.8557396  45.9546280  55.6727076  43.2764959  47.9707384  54.8682976
  42.4253225  48.5725164  54.5497513  43.5218573  48.4199381  56.2591314
  44.1880226  47.7007008  56.7356062  44.0189791  49.3871260  56.3333941
  42.1909857  48.4229040  57.0739651  41.7907858  47.4097300  57.0362759
  42.4036598  48.8268661  58.5419464  42.8035021  49.8400784  58.5014868
  41.4985085  48.7268257  59.1409349  43.0521774  48.0420542  58.9313030
  41.2463617  49.4792795  56.6695213  40.9135628  49.4404936  55.6322908
  40.3253412  49.3192291  57.2300625  41.6546440  50.4719734  56.8591499
  44.5252228  48.4619904  54.0588522  44.4683027  49.4669247  53.3681154
  45.6500340  47.6919556  54.0702057  45.7225037  46.9086075  54.7036171
  46.8078232  47.9760885  53.2037640  47.0931149  49.0151167  53.3684778
  48.0271912  47.1626759  53.5792685  47.5952196  46.1622667  53.5531473
  48.8775921  47.4688053  52.9700041  48.5589647  47.5464535  54.9599123
  48.5501909  48.6268568  55.1039743  47.9245472  47.2027159  55.7768917
  50.2699137  46.9713116  55.2553606  50.1251507  45.2078533  55.1076078
  49.9938726  44.9833059  54.0490961  51.0119963  44.7202110  55.5123568
  49.2196465  44.7972393  55.5543327  46.4836645  47.9229021  51.7243099
  46.9168949  48.6997557  50.9127617  45.7386208  46.8838453  51.3664770
  45.3848410  46.1862850  52.0055008  45.1600361  46.7388630  50.0287008
  45.9416914  46.8072557  49.2721033  44.4574499  45.3950739  49.9787283
  44.0084791  45.1627636  50.9444189  43.6102438  45.2885532  49.3012381
  45.4018641  44.2123318  49.7199440  46.1116982  44.1840553  50.5466461
  44.5387840  42.8890562  49.6896696  43.9923382  42.7758884  50.6259871
  43.8181257  42.9508018  48.8742304  45.1551819  42.0262480  49.4372320
  46.0431623  44.3256617  48.3649254  46.5876961  43.3975410  48.1911802
  45.2772236  44.3528748  47.5898790  46.7018509  45.1941252  48.3675861
  44.2083263  47.8154659  49.7003031  44.1405964  48.2842398  48.5663557
  43.2742643  48.1980848  50.5993080  43.3569098  47.7400827  51.4956903
  42.2683096  49.1999102  50.4031754  41.4741850  48.8704824  49.7331381
  41.5835333  49.4558430  51.7964363  40.6733370  50.0377750  51.6515255
  41.3338709  48.4711075  52.1914816  42.1668005  50.0301456  52.5162125
  42.8129816  50.4990053  49.7815752  42.3500586  50.9311962  48.7294340
  43.8613176  51.0888958  50.3653717  44.2997503  50.5594397  51.1053419
  44.4667530  52.3957539  50.0025177  43.7429142  53.2106686  50.0105619
  45.6264830  52.6472378  50.9152699  45.2915192  52.5791073  51.9502878
  46.3615751  51.8567228  50.7641649  46.1171770  54.0545988  50.6579351
  45.5346012  55.0276136  51.2707281  47.0571852  54.3023014  49.8642492
  44.9616528  52.2303009  48.5225248  44.7688484  53.1241941  47.7045298
  45.6163025  51.0979223  48.1629944  45.9684801  50.4655552  48.8673925
  45.9303856  50.8349943  46.7123461  46.4266157  51.7268515  46.3296604
  46.9229126  49.6672440  46.7210579  46.5201855  48.8296795  47.2906208
  47.1467638  49.3797779  45.6937551  48.2702875  49.9395418  47.4053764
  48.7690353  50.8226919  47.0061255  48.1467199  49.9666452  48.4880114
  49.2112494  48.7670612  47.2536373  49.2906857  48.1149960  46.2217712
  50.0167370  48.2286835  48.1993389  50.4790068  47.3577213  47.9806328
  49.9466276  48.6389637  49.1195822  44.6975994  50.6814384  45.8413553
  44.7887468  51.0509872  44.6553326  43.6451578  49.9311733  46.2575579
  43.7032032  49.4626856  47.1504450  42.5052834  49.6878672  45.4680824
  42.8858423  49.1775465  44.5832968  41.5458250  48.7974501  46.1448812
  41.4151192  49.1614246  47.1639681  40.5846453  48.8392782  45.6325436
  42.1206331  47.3940325  46.1459255  42.6914215  47.1961355  45.2386522
  42.7701998  47.2843456  47.0143318  40.8951664  46.0886574  46.3165808
  40.2194262  46.3333607  47.9569960  39.2019868  45.9504652  48.0364466
  40.8462381  45.7697630  48.6480570  40.2569580  47.3574638  48.3283520
  41.7924786  50.9363365  45.1231575  41.4610863  51.1833763  44.0064240
  41.7698002  51.8754339  46.0801411  41.9730854  51.6158247  47.0348024
  41.1783409  53.1836843  45.8182430  40.2212858  52.9972839  45.3310061
  40.7779169  53.8040352  47.1543884  41.7260456  53.7680674  47.6909161
  40.3410769  55.2695179  46.9792652  39.5665479  55.3514528  46.2167072
  39.8810840  55.8187723  47.8007460  41.2007904  55.7533789  46.5157270
  39.7545552  53.0281019  48.0231714  38.7510133  53.0484009  47.5982094
  39.9862504  51.9727039  47.8797960  39.8626709  53.4458828  49.5368576
  38.8418365  53.3893490  49.9147511  40.4526997  52.7369404  50.1176929
  40.1712370  54.4815063  49.6795893  42.0511484  54.0159178  44.8591375
  41.5588856  54.5456743  43.8791513  43.3865547  54.0721941  45.0838041
  43.8064194  53.6323071  45.8902264  44.2839813  54.7879934  44.2533064
  43.8985014  55.8011723  44.1393900  45.6265640  55.0150490  44.8860359
  46.1054993  55.6938601  44.1803932  45.4942942  55.5858517  45.8051634
  46.2752390  53.7666702  44.9910641  46.7630243  53.7591267  45.8178711
  44.3682909  54.3010378  42.7859211  44.5440960  55.1340342  41.8898821
  44.1975355  52.9929924  42.5336027  44.1457319  52.2921991  43.2590675
  44.0941095  52.5238562  41.1017895  44.9245167  52.8201818  40.4609203
  43.8606596  50.9781981  41.0364866  42.9713774  50.6941938  41.5991783
  43.6873817  50.7052708  39.9955320  44.9726677  50.0277090  41.5044308
  44.8386812  49.7681808  42.5545692  44.8216248  49.0439939  41.0599232
  46.4257812  50.3369665  41.3786316  46.9655800  49.3996191  41.2441349
  46.6392517  50.9301567  40.4894400  46.9140530  50.9522152  42.6104021
  46.1782742  51.2938833  43.2120609  48.1312609  51.2603378  42.9664803
  49.1120625  50.6072378  42.3387527  48.9163733  49.6981001  41.9446898
  50.0539303  50.8871555  42.5724792  48.4716511  52.0496368  43.9828157
  47.7548456  52.6234102  44.4036198  49.4217491  52.1921682  44.2944288
  42.8154087  53.0868244  40.4619694  42.9261303  53.3922863  39.3381953
  41.6502762  53.1856585  41.1534166  41.6233301  52.7831173  42.0793438
  40.3818989  53.4057665  40.5305004  40.4364491  52.9246616  39.5539427
  39.2748523  52.6571226  41.3245201  39.4018269  52.9360867  42.3705435
  37.9599118  53.1633234  40.8814335  37.1431375  52.7069139  41.4405966
  37.9928446  54.2363930  41.0699606  37.8947926  52.9413080  39.8162723
  39.3635201  51.0780668  41.1890268  39.2259216  50.6904984  40.1795912
  40.4110813  50.8086061  41.3235998  38.5463095  50.2687788  42.2779512
  37.5569153  50.7261562  42.2750711  38.5502219  49.2178297  41.9888210
  39.0976787  50.4125881  43.2071543  40.3194666  54.9372053  40.3218699
  39.9214339  55.4521132  39.2818069  40.5666542  55.7511520  41.3490295
  41.0218859  55.2714634  42.1124220  40.7278013  57.2247648  41.2178040
  39.7332478  57.6699543  41.2455797  41.4155436  57.7241421  42.4646235
  40.7481718  57.6334476  43.3216476  42.2636938  57.1149778  42.7771378
  41.8399668  59.2536688  42.3284674  42.6942682  59.2291355  41.6519547
  41.0183477  59.7683334  41.8303061  42.4017763  59.9483299  43.5219860
  42.9344940  59.1915512  44.3730164  42.2096062  61.1825418  43.6972094
  41.4483595  57.6816511  39.9765873  41.0347605  58.5064316  39.1792369
  42.7118206  57.1264458  39.7289920  42.9492950  56.2933397  40.2482605
  43.4490585  57.2512293  38.4455156  43.9091539  58.2388353  38.4778452
  44.6541691  56.3267422  38.4634638  45.3558683  56.4453554  39.2890859
  44.4606113  55.2542162  38.4818053  45.5238867  56.4857197  37.2473454
  46.7037106  57.2732973  37.3079538  47.0958805  57.7215290  38.2088923
  47.4200010  57.5422573  36.0979867  48.3869886  58.0122519  35.9958076
  47.0541430  56.9342518  34.8971486  47.6723909  57.2426319  33.6919594
  47.6583385  56.4856720  33.1016874  46.0090637  55.9563875  34.8687196
  45.7436562  55.4439592  33.9558291  45.2615643  55.7329798  36.0277081
  44.3756247  55.1153660  36.0355997  42.5673819  56.9746017  37.1759248
  42.6643801  57.7290058  36.2099361  41.8456411  55.8771181  37.0986938
  41.7553091  55.3572321  37.9598927  40.9108829  55.5939722  35.9555817
  41.4566278  55.7545996  35.0258160  40.3982067  54.1279459  36.1253834
  40.0680208  54.0367985  37.1601629  39.3447185  53.6022043  35.1466250
  38.9642382  52.5832319  35.2175570  38.5146427  54.2801762  35.3451943
  39.7782445  53.8353252  34.1740918  41.5740681  53.1291723  36.0467863
  42.4119949  53.4810448  36.6485882  41.2323856  52.1754599  36.4490175
  41.8612814  52.9541206  35.0099778  39.7731686  56.6867781  35.8967638
  39.5363712  57.0788193  34.7421360  39.1594839  57.0724535  37.0220566
  39.3349314  56.5385246  37.8612494  37.9988027  58.0070925  37.0083141
  37.3343062  57.5711584  36.2623239  37.4043155  58.1065893  38.4560680
  38.2066655  58.3508062  39.1522670  36.7298007  58.9619255  38.4951115
  36.7371130  56.8139267  38.9767480  36.0972309  56.6610956  40.1784372
  35.5890560  55.3954649  40.2560043  34.9205184  54.9246264  40.9615326
  35.8979678  54.7848463  39.1070771  35.5942655  53.8571787  38.8476396
  36.6783404  55.6192493  38.3670282  37.1256614  55.3777742  37.4141407
  38.3883309  59.3803596  36.5018201  37.6608825  59.9485922  35.7159829
  39.5288134  59.9246454  36.9487929  39.9472690  59.3814421  37.6903677
  40.2353525  61.0931540  36.4442849  39.5122457  61.8926334  36.2828898
  41.3623333  61.5669632  37.3688841  41.9626760  62.3206520  36.8593287
  40.9224224  62.1289253  38.7865853  41.8602896  62.1760178  39.3400168
  40.4605436  63.1150627  38.7386084  40.2477789  61.4971542  39.3643641
  42.2180653  60.4596806  37.5736260  41.7334318  59.7685528  38.0308723
  40.7969522  60.9739161  34.9980283  40.7437086  61.9751310  34.3080044
  41.0540104  59.7706842  34.4675875  41.2488270  58.9744663  35.0576615
  41.3039732  59.6067381  33.0197763  41.9052172  60.3851748  32.5500488
  42.1561432  58.3108377  32.8081727  41.7991972  57.4933910  33.4346461
  41.9569826  57.9598951  31.7956138  43.7071943  58.5366678  32.9881668
  43.9470768  59.4017744  33.6063457  44.0874672  57.6002550  33.3963633
  44.3279791  58.7814236  31.5813208  44.1231203  57.9626179  30.8916187
  43.8715124  59.6643543  31.1339140  45.8430862  59.0250635  31.6536093
  46.1194801  59.7656012  32.4041462  46.3019562  58.0997992  32.0020628
  46.4877939  59.3024254  30.3554893  46.4635134  58.4136820  29.8762703
  45.9672213  59.8792505  29.7102165  47.4224377  59.6771717  30.4336786
  39.9688244  59.5193911  32.2178149  40.0701094  59.2216825  30.9979820
  38.8367820  59.7785854  32.9578805  39.0253854  60.2597713  33.8256288
  37.4460983  59.8615456  32.4693036  36.9472408  60.1282024  33.4010410
  37.1874428  61.0454082  31.5828776  37.6283574  60.8315182  30.6092501
  36.1184382  61.1730289  31.4124632  37.7796173  62.3622322  32.1756983
  37.4970508  62.8514862  33.2361579  38.7699771  62.8919363  31.4537525
  39.2803359  63.7378407  31.6637087  39.0684700  62.3939991  30.6272793
  36.7587590  58.5502529  32.2140050  35.6541967  58.5302210  31.6040373
  37.3523140  57.4691248  32.7538037  38.1128120  57.5928688  33.4068227
  36.8620825  56.1068535  32.5861788  36.0002184  56.1225843  31.9190621
  37.9682803  55.3434658  31.9689226  38.9242053  55.6537008  32.3909020
  37.7235961  54.3299246  32.2866893  38.1116915  55.3646708  30.4384422
  38.9820194  56.2165070  29.8096800  39.6494269  56.8457937  30.3797364
  39.0221334  56.3233042  28.4161115  39.7010994  56.9616508  27.8702950
  38.0428553  55.6085348  27.6904607  37.9901433  55.7261181  26.6181707
  37.2041512  54.7373056  28.3025932  36.4951372  54.1957188  27.6939988
  37.1891475  54.5730877  29.6776056  36.5366578  53.8612127  30.1612258
  36.2669754  55.5538607  33.9381886  36.7737055  55.7347155  34.9817657
  35.1963615  54.7548962  33.9070010  34.8469377  54.6164560  32.9695392
  34.7545862  53.7526321  34.9492311  35.3079081  53.9727545  35.8621860
  33.3413625  53.9562416  35.4367733  33.0974555  53.1340790  36.1095738
  33.3650470  55.2532959  36.3718104  32.3293877  55.5342531  36.5630817
  34.0070415  55.1779366  37.2494578  33.6938882  56.0900450  35.7555151
  32.3276234  53.9623356  34.3016148  32.2971892  54.9161577  33.7749290
  32.6864386  53.2194567  33.5892391  30.9974623  53.5127258  34.8241258
  31.1503077  52.4720049  35.1098394  30.6738353  54.0064430  35.7404304
  30.3013229  53.6258888  33.9930487  34.9003530  52.3426104  34.4301677
  34.9499917  52.0351839  33.2089972  35.0290132  51.4540291  35.4375291
  34.9510741  51.7510080  36.3997293  35.3669930  50.0920439  35.1803899
  35.9473872  49.9563313  34.2677927  36.1234546  49.5171547  36.3596034
  36.9417500  50.2149820  36.5371943  35.5260181  49.4880342  37.2708201
  36.7049074  48.1465101  36.0345435  35.9773254  46.9627380  36.0205269
  36.8677306  45.9875059  35.9917617  36.6661501  44.9268961  35.9622526
  38.1151223  46.5562820  35.8834100  38.9847803  46.0517406  35.7873249
  38.0505252  47.9236650  35.9737420  38.9477229  48.5247946  35.9824800
  34.0710855  49.3237543  34.8962498  34.0817547  48.6833477  33.8488364
  33.0359936  49.3790293  35.7474136  33.1907177  49.9106789  36.5921092
  31.7576957  48.6327744  35.6739283  30.9717464  49.1392040  36.2342095
  31.0954070  48.5614681  34.2856026  31.7345524  48.2097673  33.4757257
  30.2535915  47.8709793  34.3373060  30.5774641  49.9694490  33.8523865
  29.9816084  50.4263067  34.6425390  31.4965725  50.5404997  33.7210846
  29.6946287  49.9874592  32.5967455  28.7439656  49.4699430  32.7252650
  29.5069337  51.0131741  32.2792816  30.4238868  49.4263077  31.4494729
  31.2432408  48.8531828  31.5919137  29.9962378  49.4514322  30.1819038
  28.8945746  50.0449753  29.8033237  28.3425188  50.4694033  30.5348969
  28.7927437  50.0759602  28.7989497  30.7211709  48.9422941  29.2013597
  31.6753054  48.6431456  29.3436241  30.2911186  48.9818811  28.2883501
  31.6427684  47.2527838  36.2787604  30.6049061  46.8129396  36.6186786
  32.7634811  46.5024042  36.2746406  33.6291385  46.9341660  35.9842634
  32.7276468  45.1045418  36.6727805  31.7940903  44.8821020  37.1895933
  32.6546502  44.1076326  35.4580784  32.0250463  44.5110464  34.6650100
  33.6505890  43.9464569  35.0454831  31.9286609  42.8146601  35.7418418
  30.7860947  42.8440285  36.2179494  32.3700309  41.6559601  35.4576945
  33.8220286  44.7604847  37.6771688  34.4643927  43.6821604  37.4897695
  34.0871716  45.5875969  38.6766672  33.6575150  46.4995289  38.6143684
  34.9688745  45.3255749  39.7517753  35.9684110  45.1819277  39.3414211
  34.9880147  46.5038776  40.7371855  33.9327502  46.7512751  40.8525562
  35.6206918  46.2321997  42.0884895  36.5309548  45.6412792  41.9868422
  35.8353925  47.1956635  42.5508165  34.9634576  45.7487392  42.8112650
  35.5159593  47.6383066  39.9443865  34.8217273  47.9269886  39.1552043
  35.4331613  48.4873199  40.6229353  37.0054531  47.5610495  39.4650006
  37.7047253  47.5097847  40.2995586  37.1242476  46.7214108  38.7801647
  37.2366929  48.4880066  38.9402342  34.5560360  43.9993811  40.4459572
  33.3914661  43.7518358  40.6948662  35.5681372  43.1860542  40.7916307
  36.4665341  43.5755444  40.5440855  35.5413818  41.8279076  41.2527800
  34.9046993  41.9162321  42.1330833  34.7646523  40.9431124  40.2391338
  34.7184563  39.9082422  40.5782700  33.7640047  41.3389683  40.0656366
  35.4857707  40.9143209  38.8735056  35.6412530  41.9441080  38.5518575
  36.4314389  40.3960752  39.0323496  34.6410608  40.3285599  37.7783179
  34.3763661  39.3037415  38.0386686  33.7216854  40.9139204  37.7640939
  35.2839994  40.3456259  36.3665032  36.3385868  40.1028919  36.4969921
  34.8107839  39.6505880  35.6728935  35.2179837  41.6733932  35.7400131
  35.4977798  42.4065399  36.3758731  35.8722878  41.7221737  34.9721551
  34.2661619  41.8130875  35.4324055  36.9794750  41.3375902  41.5411901
  37.9546094  41.8721199  41.0144567  37.2154260  40.5210543  42.5845289
  36.2989902  39.6055436  43.2665443  35.7653189  38.9705777  42.5593567
  35.5992031  40.2055788  43.8482285  37.1877718  38.8269591  44.2429876
  37.4103141  37.8903890  43.7316990  36.6938972  38.7125683  45.2079248
  38.4142971  39.6231747  44.4265556  39.3521261  39.1189742  44.6596956
  38.2286906  40.3128004  45.2500057  38.5674787  40.3805208  43.1509733
  39.0141273  41.3659382  43.2834959  39.5934486  39.7073627  42.2012424
  40.8075237  39.9663424  42.2644854  39.1761684  38.7890291  41.2866354
  38.2429957  38.4165788  41.3894939  39.7806931  38.2741141  40.0725079
  40.5220938  37.6248407  40.5382013  38.8850379  37.4043655  39.1712999
  38.2218409  37.9761052  38.5221577  39.6087861  36.9604683  38.4877467
  37.9697585  36.4392638  39.9049139  37.1949649  36.8737125  40.7789946
  37.9569960  35.1984382  39.5581341  40.4404593  39.2980003  39.1620994
  41.3432693  38.9771652  38.4448814  40.0094318  40.5839252  39.2075491
  39.2372918  40.8415604  39.8054767  40.6803036  41.6592932  38.4096956
  41.1371279  41.2241745  37.5208330  39.6317959  42.7137995  37.9856634
  39.0504980  43.1306696  38.8081050  40.1616907  43.4483719  37.3792720
  38.5503101  42.1954393  37.0304990  37.5857687  42.8918600  36.7607474
  38.6517453  40.9424973  36.5178108  38.1722021  40.7397079  35.6523538
  39.3944240  40.3161383  36.7938519  41.8874168  42.3570538  39.1216731
  42.5099611  43.1654453  38.4202170  42.2025919  42.1359110  40.4329491
  41.8496561  41.4760494  41.1112738  43.2519197  42.9680586  41.0173941
  43.6131334  43.7730026  40.3773165  42.9688883  43.5603476  42.2844553
  42.7369881  42.7046251  42.9185390  43.8078308  44.0340757  42.7942228
  41.8232203  44.5186901  42.3751259  41.9691324  45.9334564  42.3383284
  42.9136658  46.4415693  42.2115135  40.7831287  46.7481232  42.5631428
  40.9345198  47.8149080  42.6369572  39.5751405  46.1540031  42.8077459
  38.6904383  46.7296934  43.0364227  39.4276047  44.7684431  42.5659466
  38.4566045  44.2973900  42.6067543  40.5478525  43.9544773  42.3391628
  40.3816795  42.8907871  42.2534323  44.4631100  42.0294428  41.1942291
  44.4762707  41.1563492  42.0778608  45.5109262  42.2590113  40.3760004
  45.4573631  43.0466557  39.7460437  46.6810322  41.3497066  40.3255367
  46.5267038  40.3596258  40.7545137  47.0612907  41.0594845  38.8747740
  46.8807936  41.9732952  38.3086634  48.1292391  40.8462143  38.8289380
  46.2911701  39.8793316  38.3401132  46.5807581  38.9565301  38.8427877
  44.7777939  39.9823642  38.2674503  44.3984938  40.1756001  39.2708898
  44.4408178  40.7469797  37.5675106  44.2792606  39.0882754  37.8930593
  46.7592716  39.6776581  36.8190742  46.1300611  38.9408898  36.3197064
  46.6694975  40.6250620  36.2875915  47.8204823  39.4827175  36.6643667
  47.9338408  41.9394922  41.0367823  48.1697369  43.1679869  41.0534048
  48.7432623  41.0389423  41.6267252  48.4170818  40.0846815  41.5710926
  49.6874952  41.3526773  42.6737499  49.6264744  42.3741198  43.0492878
  49.4153547  40.3424549  43.8000298  48.4194469  40.4998446  44.2141485
  49.5572853  39.3199348  43.4501553  50.3943729  40.4041290  44.9737978
  49.8386335  39.9811721  45.8106756  51.2002563  39.7646880  44.6135569
  50.9366751  42.1106958  45.2870035  49.6882629  42.7757978  46.3595152
  50.0232124  43.5189772  47.0831203  48.8791609  43.2490635  45.8032131
  49.2478943  41.8963051  46.8292665  50.9961939  41.0566473  41.9961882
  51.3330126  39.9584603  41.5729475  51.8668795  42.0511913  41.9351530
  51.5814209  42.9559565  42.2815895  53.1785345  42.1056223  41.2628317
  53.0159569  41.7652702  40.2401733  53.7168217  43.0507994  41.3334322
  54.2158413  41.0994291  41.8654680  53.9985275  40.2513981  42.7702379
  55.3516769  41.0531569  41.1618471  55.3825235  41.5314484  40.2728033
  56.4345407  40.1016426  41.3783550  56.2809181  39.6492171  42.3580551
  56.4435148  38.9903545  40.2782059  56.2875366  39.6080780  39.3937898
  57.7611876  38.2293749  40.2425814  58.6996078  38.7781954  40.1634550
  57.8478336  37.5895548  41.1207771  57.6293755  37.7137065  39.2913675
  55.2180386  37.9966974  40.4327869  55.1842260  37.5040293  41.4045048
  54.3198633  38.6056137  40.3298330  55.1270771  36.8836546  39.3708324
  55.1514673  37.2495627  38.3443761  55.8994436  36.1279416  39.5138407
  54.2272186  36.2898803  39.5314503  57.8040981  40.8177280  41.3966608
  58.1237411  41.6999006  40.6240702  58.7496614  40.2802706  42.2168159
  58.4710407  39.5524907  42.8593206  60.1646042  40.6464195  42.1783638
  60.7210636  39.8662472  42.6977730  60.4223013  40.5042696  41.1288404
  60.3703833  42.0604086  42.6815605  60.1016760  42.4147606  43.8491392
  60.7666588  42.8867435  41.7193079  60.8717728  42.5660753  40.7673502
  60.7649994  44.3507957  41.8281174  61.4479637  44.4604683  42.6705122
  61.1743689  45.0177288  40.5108547  62.1296930  44.5910168  40.2052832
  60.4721212  44.8029900  39.7053504  61.3424969  46.5148783  40.4222202
  60.3298664  46.8971777  40.5508137  61.9806528  46.8140268  41.2537003
  62.0771503  47.1060228  39.2299032  63.1385612  46.8681002  39.2999339
  61.6910601  46.6723728  38.3074164  61.9388294  48.6209249  39.1639519
  62.0332623  49.0652227  40.0660515  61.8271255  49.2610312  37.9932046
  61.8818140  48.7353563  36.8464088  62.3994017  47.8723717  36.7600560
  61.5302610  49.1312218  35.9862876  61.4870453  50.4540348  38.0369687
  61.3766909  50.9505367  38.9095521  61.3158226  50.7489157  37.0862746
  59.4612741  44.9840450  42.3033333  59.6362019  46.0882139  42.8627396
  58.2598829  44.3819189  42.1749401  58.2871962  43.4760332  41.7291546
  56.9533443  44.8467636  42.4997807  57.1047544  45.8262444  42.9534292
  56.1072016  45.3391933  41.2836981  55.8453465  44.4710398  40.6788540
  55.1778936  45.7866144  41.6362524  56.7842579  46.3692617  40.3914976
  57.2458220  47.6210022  40.7194996  57.9146910  48.1277752  39.6531177
  58.4742832  49.0477133  39.7366285  57.9561186  47.1810675  38.6905694
  58.3533525  47.3371649  37.7751780  57.1912575  46.0877275  39.1232681
  56.9949770  45.1707935  38.5874438  56.1653185  43.9976263  43.5051012
  54.9058819  43.9852238  43.4548521  56.8809700  43.3031845  44.4371271
  57.8566217  43.5321474  44.5627403  56.3284349  42.0750380  45.1127911
  55.9668064  41.4186096  44.3213177  57.5200748  41.3419867  45.7268238
  57.2015810  40.3898573  46.1512280  58.2310390  41.1390829  44.9259138
  58.3976746  42.3031473  47.0335245  57.6102686  41.9303179  48.0463886
  55.2400446  42.3398399  46.1289978  54.6606159  41.3713169  46.6422033
  54.9442720  43.6203861  46.3536501  55.3805017  44.3731165  45.8406067
  53.9864779  44.1121387  47.3410320  53.4288168  43.3017826  47.8105450
  54.6760845  44.9096203  48.4382486  55.3384542  45.6482267  47.9867744
  54.0440702  45.5084562  49.0940380  55.4862499  44.0095758  49.3557262
  55.2286482  42.8505468  49.6305609  56.5160513  44.5624971  50.0080156
  57.0081806  43.9291382  50.6218243  56.9312668  45.4600430  49.8028040
  52.9694033  45.0964212  46.7028856  52.1333361  45.6641817  47.4093103
  52.9512930  45.2780151  45.3348207  53.5715055  44.6347523  44.8640108
  52.2697830  46.3398933  44.5860958  51.7090845  46.9145107  45.3233480
  53.2888985  47.0755053  43.7032080  53.4815168  46.4065886  42.8644276
  52.7232599  47.9413080  43.3589220  54.5437193  47.5260687  44.5254517
  54.2839622  48.2187462  45.3259706  55.0854349  46.6978693  44.9823236
  55.4584885  48.2153654  43.4653807  55.5607796  47.5456858  42.6114702
  54.9268007  49.0984297  43.1109571  56.8645859  48.6673212  43.8877821
  56.7580032  49.1951704  44.8354721  57.4721575  47.7704954  44.0089083
  57.4179411  49.5999861  42.8143930  58.3973837  49.7645855  42.9979610
  57.3454809  49.2601538  41.8660450  57.0336676  50.5278254  42.7068949
  51.0755301  45.8023882  43.7714338  51.3008070  44.8225021  43.0435419
  49.9261856  46.4513731  43.8270187  49.8016739  47.0677662  44.6173668
  48.6702776  45.9451199  43.1955957  48.8468266  44.8806381  43.0412769
  47.4886942  46.2141323  44.2212486  47.8601027  45.9125423  45.2006388
  47.2087240  47.2670794  44.1893816  46.2486362  45.3780746  43.9334965
  45.8931065  45.5236244  42.9134417  46.4503717  43.8440514  44.1363573
  47.3015213  43.4842968  43.5582399  46.6758347  43.7167835  45.1951647
  45.4961729  43.3482122  43.9581490  45.1127434  45.7875586  44.9068642
  44.7748566  46.7978954  44.6763182  44.3173504  45.0473309  44.8201942
  45.4964972  45.9173775  45.9187841  48.4691286  46.6575813  41.8621826
  48.6304331  47.8557777  41.8037081  48.0074883  45.9560061  40.8502102
  47.9044580  44.9749994  41.0672569  47.6248646  46.2520695  39.5163488
  47.6183939  47.3407173  39.5702767  48.5891819  45.5365515  38.5668540
  48.4716034  44.4563770  38.6534739  48.1710100  45.7589817  37.5851417
  50.0086641  45.9527397  38.6382580  50.9165525  45.1604557  39.3338704
  50.4579544  44.3850231  39.9295235  52.3383331  45.3815126  39.2553687
  53.0241632  44.8596573  39.9062920  52.8593683  46.4690638  38.4857488
  53.9012718  46.7530489  38.4996986  51.9117689  47.1999359  37.7569532
  52.3070955  47.9617071  37.1013498  50.5257797  47.0070219  37.9182577
  49.8679161  47.7095842  37.4283314  46.1511707  45.9631872  39.2590356
  45.5778456  45.0611973  39.9476075  45.4911947  46.6936398  38.3339834
  45.9555197  47.4112511  37.7958941  44.0658188  46.4524269  37.9845953
  43.7649059  45.5849648  38.5720181  43.1315994  47.6844072  38.4623122
  43.1062984  47.7664995  39.5489240  43.5342503  48.6315346  38.1032634
  41.6261053  47.4501228  38.0316257  41.5432072  47.3833418  36.9468355
  40.8635378  46.2305117  38.5963607  40.6027365  46.3624048  39.6464515
  39.9880981  45.9469414  38.0121565  41.5463734  45.3869629  38.6976814
  40.7153749  48.6545515  38.4105110  40.6478739  48.7279654  39.4959402
  41.0833836  49.6378231  38.1175113  39.7779107  48.4684896  37.8864503
  43.8767338  46.1569548  36.5176702  44.6436548  46.7971706  35.7763624
  43.0337572  45.2018976  36.1247087  42.4938011  44.6737909  36.7952681
  42.7593136  44.8396969  34.7386193  43.3277607  45.5267048  34.1117239
  43.4906626  43.4475994  34.4868731  43.3719015  43.2481146  33.4218812
  44.9783373  43.4869146  34.7859192  45.3831005  44.3282986  34.2234778
  45.2050209  43.5429144  35.8506179  45.4637241  42.6161671  34.3451309
  42.7547646  42.2821999  35.2544498  42.9339695  42.3045588  36.3293862
  41.7375135  42.2130203  34.8690701  43.2960796  40.8508158  34.9056268
  42.8283501  40.1341105  35.5806541  43.1698370  40.5376625  33.8692403
  44.3620825  40.8341694  35.1325035  41.2659502  44.7385740  34.3701291
  40.3818417  44.9883127  35.2262664  40.9916735  44.2657232  33.1537604
  41.7585707  43.9706135  32.5664949  39.6536517  43.8039064  32.5551319
  39.8932052  43.2346106  31.6570067  38.9393330  42.9394388  33.5844541
  39.7223353  42.3547602  34.0673208  38.4234166  43.4663343  34.3871474
  37.8879905  41.9902039  32.9679847  37.1790767  41.3065767  33.8035369
  37.8232718  41.8793297  31.7529750  38.9188051  44.9836159  31.9665027
  37.7260351  44.8778296  31.5416884  39.6171021  46.1365891  31.6303778
  40.5667591  46.1250401  31.9740629  39.0983558  47.3338127  31.0603666
  38.2969570  47.7186108  31.6910839  40.2573156  48.3928299  31.0045457
  40.9515190  48.1745481  30.1930404  39.7618985  49.3340302  30.7662201
  40.9369993  48.4663439  32.2950792  40.3481960  49.2104483  33.3263803
  39.4121504  49.7273207  33.1745338  41.0460138  49.3144798  34.5780635
  40.7635450  49.9764252  35.3833222  42.3354626  48.8700676  34.7030783
  42.8574848  49.1751528  35.5979586  42.9499483  48.2127619  33.5461020
  43.9286613  47.8015852  33.7447500  42.1862411  47.9664421  32.3974037
  42.6475191  47.3525047  31.6379881  38.5234880  47.1652031  29.6684885
  37.9774761  48.1360960  29.0264368  38.3390737  45.9835386  29.1137457
  38.5741639  45.1985979  29.7042537  37.4696755  45.8027983  27.9644585
  37.5748348  46.6186905  27.2493601  37.7113008  44.8539734  27.4854469
  35.9411669  45.6293488  28.3547282  35.0357223  45.4702091  27.5222826
  35.6593633  45.7177401  29.6908617  36.4229274  45.6699085  30.3502440
  34.3547773  46.1098766  30.2503037  33.5321999  45.9282446  29.5585847
  34.0653872  45.2400684  31.4924812  34.7792172  45.4725218  32.2827435
  33.1075191  45.4362917  31.9742322  34.2380786  43.6826944  31.1809754
  35.2170134  43.5565758  30.7185030  34.4541836  42.9365110  32.4650145
  33.5596538  42.5677919  32.9669738  34.9574399  42.0118952  32.1823096
  35.1697445  43.4465551  33.1099343  33.0644965  43.1606293  30.3139329
  33.0759931  43.6815643  29.3565464  33.3689833  42.1417236  30.0747061
  32.1183562  43.1903362  30.8543420  34.1923833  47.6251221  30.5089998
  33.0897427  48.1070042  30.6993556  35.3256392  48.3886147  30.4054403
  36.1749411  47.9984426  30.0226212  35.2407122  49.8166323  30.7437897
  34.9007678  49.8718548  31.7779493  36.7135954  50.4174805  30.8158135
  37.1234202  50.3696489  29.8069239  36.5965009  51.4762259  31.0470057
  37.2980356  49.9001408  31.5766644  34.3065953  50.6900835  29.8547435
  34.0021682  50.3287935  28.6997843  33.9355707  51.8183136  30.4267335
  34.1236854  52.0296717  31.3962913  33.2386947  52.9008198  29.7302675
  33.4392285  52.8419209  28.6604905  31.7183375  52.6358604  29.8497915
  31.4434004  51.7009020  29.3615627  31.4883256  52.4588394  30.9004378
  30.7723927  53.6967468  29.4907999  30.7623076  54.4914436  30.2367568
  31.0121584  54.0957165  28.5051870  29.3285608  53.0770683  29.3839550
  29.3390727  52.4282789  28.5081339  28.9569187  52.6520920  30.3163576
  28.3659220  54.1936398  29.0337563  28.3064342  54.9558878  29.8106360
  28.6711431  54.6791744  28.1068254  27.0638537  53.5553932  28.7793636
  27.0998693  52.8210592  28.0868530  26.8983197  53.1369400  29.6835732
  26.3117027  54.1993761  28.5802197  33.6752558  54.4157982  30.1231146
  33.9657259  54.6511698  31.3152504  33.7648368  55.3574085  29.1373825
  33.3899760  55.0123644  28.2653022  33.9759564  56.7928839  29.3383956
  34.7041321  56.9207191  30.1393461  34.7839785  57.3925352  28.1544995
  35.0661540  58.4282064  28.3438849  35.6454730  56.7308235  28.0647182
  34.0470958  57.2894859  26.7856288  34.1169047  56.2522221  26.4580393
  32.9673600  57.4086380  26.8754792  34.6346831  58.0498934  25.6630683
  34.3071651  59.0889215  25.6276011  35.7137156  57.9778433  25.7994366
  34.1260481  57.4681044  24.3712974  34.2273045  56.3828230  24.3688083
  33.0693221  57.7317142  24.3272686  34.9049711  58.0198717  23.2219458
  34.9066591  59.0295792  23.2461190  35.8819103  57.7779865  23.3066964
  34.4189787  57.7495337  22.3788428  32.6948857  57.5293875  29.7725511
  31.6745591  57.1961355  29.1651583  32.7181506  58.4881163  30.6892896
  33.6541557  58.7281561  30.9831834  31.5530515  59.1743183  31.2124014
  30.7251954  58.6470604  30.7383180  31.4823246  58.9304829  32.7458024
  30.4955006  59.2070866  33.1169701  31.6244864  57.8529501  32.8283715
  32.5951290  59.6240807  33.5231495  32.4115705  60.9151268  34.0180564
  31.5743446  61.4747858  33.6278796  33.3581614  61.6215467  34.7687531
  33.2436943  62.6479912  35.0845218  34.4479775  60.8599710  35.1618862
  35.4254532  61.5119123  35.7760167  36.2214613  60.9842014  35.6785870
  34.7032475  59.5228291  34.7757101  35.4952431  58.8914871  35.1506066
  33.7401342  58.8789892  34.0040421  33.7092519  57.8268194  33.7624145
  31.4362121  60.6795931  30.8528709  30.3851032  61.2253618  31.2248182
  32.4118328  61.2588501  30.1081610  33.2285595  60.6739283  30.0036430
  32.4561191  62.6420259  29.6292114  31.4898944  62.8334570  29.1624475
  32.5445890  63.6326218  30.8250785  32.5843930  64.6752691  30.5098081
  31.6898894  63.6635447  31.5008259  33.8604474  63.4076834  31.6949177
  33.8412213  62.4526167  32.2198701  34.7240257  63.5336256  31.0418701
  34.0007687  64.5113897  32.7884412  34.2588305  65.4494143  32.2968960
  33.0753136  64.6844244  33.3377075  35.0805879  64.1983414  33.7465787
  35.6389832  63.3781290  33.5580230  35.4522872  64.8732710  34.8158050
  34.9681854  66.0224724  35.2386451  34.1864228  66.4031219  34.7247815
  35.3501201  66.4425325  36.0739732  36.3290596  64.2965078  35.5631661
  36.9064236  63.5436010  35.2169299  36.6142273  64.7949362  36.3940406
  33.5670877  62.8963995  28.6687040  34.5961499  62.3098850  28.8384461
  33.2586670  63.6945772  27.6048946  32.3320436  64.0953302  27.5754023
  34.0878868  64.2159271  26.5159011  34.9787855  63.6032295  26.3780594
  33.2980561  64.1520405  25.1993752  32.8013396  63.1906033  25.0689435
  32.5117183  64.8648977  25.4475808  33.9036846  64.6774769  23.9451981
  33.2378221  64.6969223  22.8511739  35.0791335  65.1171780  23.9399552
  34.6333122  65.6022835  26.8627691  33.8673925  66.4696646  27.3211980
  35.9010458  65.8928204  26.6012597  36.4829683  65.2759409  26.0526943
  36.4843297  67.1868658  26.9892144  36.2500429  67.3404598  28.0425978
  37.9992676  67.1285439  26.8482232  38.4808850  68.0032349  27.2853303
  38.4104896  66.2105274  27.2680330  38.4310770  67.0812559  25.3715634
  38.4473467  66.0031605  24.8313284  38.6835551  68.1422663  24.7268438
  38.8848162  67.9061937  23.7656617  38.7302208  69.0225220  25.2198648
  35.8754396  68.4128904  26.1484122  35.8520007  69.6031523  26.5890503
  35.2701402  68.1566191  24.9519968  35.3735065  67.2285509  24.5671535
  34.6292067  69.2639780  24.2048264  35.4222035  70.0075769  24.1253233
  34.1869926  68.7334490  22.7951360  33.4647870  67.9620171  23.0623817
  33.6621833  69.5157433  22.2467875  35.3416085  68.0732012  22.0440292
  35.8390522  67.3212099  22.6565313  34.9443245  67.6408339  21.1257005
  36.4108181  69.0807867  21.5967965  36.6900587  69.7376585  22.4205947
  37.2380161  68.4591103  21.2542129  35.9476018  69.8915148  20.4975224
  35.6404233  70.8029938  20.8056712  36.1976433  69.7233152  19.2210829
  36.8354368  68.7783051  18.7146890  37.2127867  68.0236006  19.2697847
  37.2977018  69.0323877  17.8533792  35.7413840  70.6703615  18.3673716
  35.2260184  71.4787817  18.6851025  35.6274748  70.4216480  17.3951256
  33.3748412  69.8930073  24.8123598  32.9661965  70.8918095  24.3016601
  32.8295374  69.2606401  25.8713031  33.1845284  68.3355522  26.0670137
  31.6244650  69.7169971  26.6622448  31.4281797  70.7628441  26.4260626
  30.3880215  68.9319658  26.2406635  29.5637155  69.3784714  26.7967701
  29.9500918  69.0350628  24.7630835  29.7280025  70.0965643  24.6536183
  30.8374834  68.7985039  24.1759825  28.9710569  68.5974598  24.5679021
  30.3916955  67.6191092  26.6569829  29.5591521  67.1876001  26.4513683
  31.6616940  69.4110346  28.1354499  30.8361483  70.0269222  28.8826585
  32.5316906  68.5106707  28.6779046  33.0229163  67.9564428  27.9911447
  32.8576088  68.2816982  30.0862241  33.7796402  67.7321053  30.2757239
  33.0661464  69.6447086  30.7568407  32.2157383  70.3125668  30.8942080
  33.4183526  69.2672157  31.7168117  34.2345238  70.5048847  30.2757192
  34.0780616  70.7559633  29.2266321  34.3308067  71.4401197  30.8272314
  35.5928802  69.6591091  30.3846669  35.7978392  69.4205618  31.4283085
  35.4904222  68.8508129  29.6606112  36.6907740  70.4176092  29.8941946
  36.4882541  71.3981295  29.7612786  37.9708242  70.0537109  29.6437097
  38.4021997  68.8082933  29.7758389  37.7329636  68.1503248  30.1490831
  39.3365359  68.5618830  29.4819045  38.8236094  70.9543610  29.2367935
  38.5661960  71.9143534  29.0572000  39.7845745  70.6562662  29.1485643
  31.7522287  67.5687695  30.9094787  32.0787907  66.9488049  31.9468832
  30.4820704  67.9165220  30.6891251  30.4358435  68.7266207  30.0877070
  29.3461227  67.4495840  31.3808703  29.5746899  67.6576519  32.4261284
  28.0486751  68.1423187  30.9731674  27.1886897  67.6881552  31.4653707
  28.0693364  69.1843796  31.2922120  27.7456784  68.0891323  29.4283462
  28.4109306  68.7267780  28.8461518  28.0183411  67.1018457  29.0554905
  26.3239813  68.3362293  29.0337086  25.4123735  67.7388334  29.4974852
  26.0700655  69.2796946  28.1546879  25.1264906  69.6254683  28.0536461
  26.8627930  69.8108006  27.8236127  29.2008615  65.9354353  31.3521695
  29.6054626  65.2155972  30.4093170  28.5439777  65.3970671  32.3678374
  27.9288960  65.9833860  32.9137301  28.1794834  63.9553022  32.4515510
  29.0871334  63.3551550  32.3874879  27.6405287  63.6970377  33.8677168
  28.2762027  64.1750431  34.6130538  26.6371393  64.1064596  33.9846802
  27.5779438  62.2284412  34.3091822  28.5766888  61.2674046  34.3935990
  28.0001402  60.1118755  34.7434449  28.6031914  59.2241049  34.8642564
  26.7415690  60.2682066  34.7883272  26.1541891  59.5074320  35.0986600
  26.4021754  61.5477371  34.5568824  25.4128718  61.9777155  34.5039201
  27.1447015  63.5300970  31.3553786  26.2109804  64.3187237  31.0295630
  27.2496605  62.2945023  30.9242797  28.0124569  61.7664766  31.3235664
  26.3228321  61.6636133  29.9319267  26.3412690  62.2730446  29.0283990
  26.6494179  60.1536560  29.5528102  25.9400010  59.7370815  28.8377619
  28.0206084  60.0493383  28.8941336  28.4237170  60.8257580  28.2439208
  28.7755871  59.9620390  29.6754742  28.0905628  59.1193533  28.3299208
  26.6268301  59.1237688  30.7913923  27.4896073  59.4881582  31.3490033
  25.7594323  59.3653107  31.4057040  26.7959094  57.6424122  30.4145575
  27.7317286  57.4773645  29.8806095  26.8174624  57.1338463  31.3784003
  26.0329866  57.0841455  29.8719811  24.8878479  61.7493391  30.5091429
  24.6522141  61.5762806  31.7516494  23.8146710  61.9092560  29.7224188
  23.7735605  62.4959326  28.3864856  24.2871928  61.7372513  27.7959919
  24.2555857  63.4636784  28.2478070  22.2859550  62.5874710  28.0324626
  22.1167421  62.5928068  26.9556904  22.0028019  63.5674095  28.4167075
  21.5909481  61.5082073  28.8590670  21.6071033  60.5604839  28.3208704
  20.5976105  61.8104982  29.1907358  22.4961591  61.5205622  30.1127100
  22.1371150  62.3377037  30.7383847  22.4650693  60.1471186  30.7871866
  22.8508139  59.1584110  30.2510786  21.6678309  60.1025534  31.8902588
  21.1487222  60.9428310  32.1013331  21.3119531  58.8712740  32.5678444
  22.2732925  58.4024906  32.7780032  20.4729795  59.2999887  33.7829828
  21.0673189  59.9819899  34.3910384  19.6365321  59.8941183  33.4149146
  19.8728311  58.1522226  34.6726179  20.7603288  57.3635530  35.4295993
  21.8032193  57.6398516  35.4790545  20.2194524  56.2379074  36.1024356
  20.9353662  55.5435085  36.5167856  18.8013101  55.9965801  36.0208011
  18.2393670  54.9674463  36.6830444  17.2813749  55.0282145  36.6701913
  17.9939663  56.8147278  35.1837087  16.9686651  56.5044308  35.0463200
  18.5316503  57.9164076  34.4954681  17.9376698  58.5572672  33.8607335
  20.3488445  58.0267763  31.6631746  19.6709371  58.5605335  30.8205962
  20.2400279  56.7079926  31.9908214  20.7791972  56.4499283  32.8049469
  19.2407584  55.8119726  31.4322662  18.3785856  56.4266348  31.1735225
  19.6890998  55.1266432  30.1758599  20.6962299  54.7098207  30.1827335
  19.0582120  54.2608452  29.9746776  19.5387495  56.0026264  28.9188266
  20.0741673  56.9511604  28.8774729  19.7746444  55.4801273  27.9917598
  18.0674636  56.3994408  28.6695099  17.7482545  57.1208096  29.4217300
  18.1024015  56.9660568  27.7390122  17.1853697  55.1656151  28.5017824
  16.4765656  55.0104332  29.2043591  16.9496226  54.4939899  27.3600817
  17.7002680  54.5717621  26.3137126  18.3828068  55.3160095  26.3320875
  17.4363673  54.0304327  25.5029011  15.8716834  53.6939144  27.2453499
  15.2385902  53.6417580  28.0305767  15.7026136  53.0769587  26.4637613
  18.7845325  54.6891260  32.4016166  19.6248305  54.0472794  32.9676580
  17.4867475  54.4589567  32.4517202  16.8715942  55.0977993  31.9684243
  16.8296552  53.4863520  33.3647323  17.1411359  53.7733412  34.3690801
  15.2942538  53.6424541  33.4278083  14.9141860  52.9749727  34.2011881
  15.1956964  54.6378374  33.8609338  14.5642865  53.4315300  32.1018624
  14.6448040  52.3558521  31.9452477  13.5150230  53.6965418  32.2319436
  15.1756620  54.1228724  30.8608079  15.0788736  53.5602140  29.7868633
  15.4814351  55.2880430  30.9184194  17.1555626  51.9990444  33.1709981
  17.7617002  51.5926218  32.1885419  16.6945004  51.1379004  34.0667725
  16.1786389  51.6251707  34.7854900  16.7896485  49.6933937  34.1366339
  17.8134537  49.3786049  34.3387055  15.8883238  49.0931749  35.2434802
  16.0158992  48.0107880  35.2271295  16.2960815  49.4998312  36.1689329
  14.4473529  49.5675611  35.3492999  14.2999029  50.7686710  35.6126380
  13.5245156  48.7162447  35.2205062  16.4207697  49.0578461  32.8016281
  15.6573749  49.6154928  31.9853425  17.1418738  48.0134821  32.5143504
  17.7515244  47.7482700  33.2746720  16.9834685  47.0997667  31.2674451
  16.0507917  47.4341583  30.8131266  18.2378125  47.2002840  30.2152133
  19.1630054  46.9069672  30.7112837  17.9868031  46.4650393  29.4506812
  18.5048902  48.6362362  29.6753120  18.5872126  49.2993069  30.5365109
  19.4332910  48.6928606  29.1070104  17.5537384  49.1658783  28.6916947
  17.7439368  48.7845135  27.6884580  16.5393424  48.8040972  28.8596606
  17.5662816  50.6984472  28.5487151  18.6115646  51.0027695  28.4951091
  17.1991217  51.0505629  27.5847054  16.8725443  51.3234186  29.7247720
  16.1844003  50.6961107  30.1159859  17.5282812  51.4078712  30.4883027
  16.3933003  52.1984005  29.5671821  16.8262064  45.6473494  31.6713524
  15.7293046  45.0939274  31.4937997  17.9507208  45.0866508  32.0955896
  18.7440288  45.6967735  32.2316504  18.0899310  43.6624002  32.4460983
  17.3239553  43.3517838  33.1566596  17.7025461  42.8856277  31.1532044
  16.6143012  42.8241730  31.1464286  18.0420804  43.4116697  30.2609634
  18.2181597  41.4900303  31.0946798  17.5723422  40.5788898  31.6205454
  19.3867934  41.2280846  30.6133556  19.7199392  40.2746058  30.6121898
  19.9165559  41.9710112  30.1803327  19.4875264  43.3718109  32.9852057
  20.3838515  44.1799307  32.7441359  19.5173085  42.3307753  33.8566256
  18.6438155  41.8459368  34.0051007  20.7378173  41.9024229  34.4938755
  20.9875178  42.6044512  35.2894282  20.3894448  40.5004978  35.1856494
  19.6711767  40.7160950  35.9766722  19.9966371  39.8156381  34.4341397
  21.5322042  39.8106384  35.8400416  22.3024535  39.6861315  35.0789142
  22.0858073  40.5414104  37.0315075  22.7608037  39.9618244  37.6612425
  22.6370239  41.4079094  36.6662121  21.2063670  40.8677006  37.5866818
  20.9465313  38.4875298  36.2788248  20.0330734  38.5167527  36.8728328
  20.4686427  37.9002285  35.4947329  21.6469145  37.9163742  36.8882060
  21.9411349  41.7587709  33.6086512  21.9994283  41.1182785  32.5855088
  23.0256629  42.4691296  33.9969182  22.8460073  43.0974197  34.7670341
  24.3062425  42.6010656  33.2658887  24.4261909  41.7799425  32.5591540
  24.2661953  44.0171671  32.6804447  24.0839410  44.7187853  33.4944534
  25.5565119  44.3453646  31.8600488  26.4106989  44.4075537  32.5342870
  25.7626867  43.5505819  31.1431694  25.3456354  45.2793074  31.3391066
  23.1231236  44.0903139  31.8442631  22.4202490  43.6828184  32.3556566
  25.5009985  42.4899912  34.3062806  25.2431893  43.0477381  35.3520799
  26.6753292  42.0203733  33.9140582  26.7663503  41.5657234  33.0167794
  27.8436828  41.9662333  34.8025775  28.7729979  41.7352438  34.2818880
  27.8094029  42.9157114  35.3368306  27.7400184  41.0233212  35.9512830
  26.8341422  40.2378321  36.0161996  28.8279200  41.0811520  36.7726755
  29.4939542  41.8303156  36.6491914  29.1553020  39.9202991  37.5984430
  28.7173009  39.0780020  37.0629191  30.6675172  39.5853233  37.6644373
  31.1586213  40.4534340  38.1041026  30.9484625  38.2747030  38.4984875
  31.0290933  38.3876872  39.5796180  30.3576684  37.4220347  38.1637931
  31.9580054  37.9388428  38.2615876  31.0550451  39.4579864  36.3579154
  31.2600780  40.3205299  35.9897113  28.5316896  40.0507784  38.9875889
  29.0980291  40.4773998  40.0108480  27.3313498  39.5688367  39.0897727
  26.9044948  39.4555044  38.1814504  26.3388181  39.6844029  40.2259350
  25.9510732  40.6822681  40.0209475  25.2184844  38.5838962  40.0092649
  24.9047518  38.5919571  38.9654255  25.6836176  37.6165271  40.1988697
  24.3462467  38.7538719  40.6404686  26.8073535  39.6593881  41.6986132
  26.5469551  40.5881786  42.4491978  27.5315690  38.6219311  42.1280813
  27.5907350  37.8274441  41.5072775  28.2190967  38.4778523  43.4079695
  27.4953198  38.2261705  44.1831493  29.2382479  37.3769546  43.2327557
  28.8048649  36.5982485  42.6051426  30.0706625  37.6428437  42.5812292
  29.7620583  36.8794727  44.5452070  30.3329945  37.6743960  45.0250292
  28.9164948  36.6681981  45.1997948  30.6144667  35.6225634  44.4997978
  29.9876595  34.9015760  43.9750147  31.4811277  35.7494211  43.8510323
  30.9615922  35.1055861  45.8312321  30.6408286  35.6742191  46.6018581
  31.7020488  34.0853286  46.0963202  31.9746065  33.2229352  45.2112484
  31.7369938  33.3916140  44.2441988  32.4719429  32.3676491  45.4143238
  32.0706725  33.8541913  47.3597527  32.0092535  34.4608331  48.1649351
  32.5941181  33.0077267  47.5318098  28.9495277  39.8004365  43.8926268
  28.9359975  40.1666927  45.0285912  29.5616698  40.4709053  42.9308128
  29.5305228  40.0002003  42.0377445  30.2896643  41.7047071  43.2320976
  30.2667689  41.9318962  44.2979145  31.7524076  41.6346836  42.8355169
  31.8114972  41.8978882  41.7794228  32.2149396  42.4582911  43.3794212
  32.4131989  40.3191805  43.2535219  32.5568986  40.0057316  44.5655107
  32.3354077  40.7693052  45.2964687  33.2049918  38.8257170  44.9957561
  33.5056925  38.7142801  46.0270452  33.4633780  37.8083086  44.0135670
  33.9657021  36.5757632  44.3603611  34.5033836  36.2010598  43.6588669
  33.1425786  38.1160545  42.6163816  33.3544517  37.3724604  41.8623400
  32.6395035  39.3560815  42.2306967  32.4188995  39.5796633  41.1973763
  29.5823336  42.9859734  42.6089764  29.3784046  43.8426781  43.4419107
  29.2402744  42.9816294  41.3352346  29.2586088  42.0812798  40.8779192
  28.7476993  44.1779804  40.6285715  29.5594335  44.8814821  40.4434490
  28.3287048  43.7285709  39.2808461  27.6994967  42.8387403  39.3009162
  27.7244902  44.4045973  38.6758566  29.2184758  43.5247469  38.6851430
  27.5989866  44.8280811  41.3986254  26.8027043  44.1953135  42.0903158
  27.6091933  46.1503458  41.3550806  28.3020639  46.6641808  40.8297157
  26.5198159  47.0071840  42.0233536  26.4970708  46.8360519  43.0995941
  26.7532539  48.4785938  41.7878294  26.0641074  48.9717102  42.4734068
  27.6898551  48.9013577  42.1513510  26.5533161  48.8782358  40.4452896
  26.4410138  49.8315668  40.4329443  25.0736952  46.7215729  41.5603876
  24.7230911  46.3334274  40.4369211  24.0433002  47.1583128  42.3571062
  24.2696905  47.6016617  43.2359123  22.5685954  47.1197081  42.0307112
  22.2659135  46.0747814  41.9627333  21.7113161  47.8302002  43.1236458
  22.1771240  48.7899923  43.3471012  20.2144432  47.9017019  42.8549099
  19.7318637  47.0504618  42.3747015  19.5995545  48.0674267  43.7395239
  20.0284266  48.7100077  42.1477079  21.9020391  47.1762371  44.5373726
  22.9428935  47.2332096  44.8559237  21.4225078  47.9209328  45.1726484
  21.3092375  45.7946873  44.7905397  20.2295136  45.8396626  44.9329519
  21.4343691  45.1776505  43.9007568  21.8015289  45.3860664  45.6730270
  22.1377945  47.7320528  40.7049942  21.2060428  47.2447586  40.0695992
  22.7763104  48.8206959  40.2502823  23.5312176  49.2343330  40.7786036
  22.5426531  49.3308496  38.9117813  21.4934969  49.6107006  38.8166332
  23.4259820  50.6038570  38.6935472  24.4802523  50.4728985  38.9373970
  23.4017944  50.8990097  37.6445484  22.8382039  51.7927885  39.5263886
  21.6521358  51.9437551  39.7321892  23.6450958  52.7504492  39.8949242
  23.3579016  53.4313345  40.5834150  24.6259737  52.5101852  39.8790956
  22.8752828  48.2878113  37.8082538  22.0640469  48.1314182  36.8986011
  23.9431190  47.5140524  37.8939986  24.5332599  47.6501179  38.7022829
  24.2082119  46.3601589  37.0376825  24.3392944  46.6512585  35.9954834
  25.5345368  45.8516836  37.5904965  26.0842633  45.4882097  36.7222905
  26.1342263  46.6029739  38.1043410  25.3697228  44.9643707  38.2017350
  23.0635881  45.2872849  37.0708537  22.6040125  44.7739553  36.0704017
  22.5886583  44.9826288  38.3227921  23.0025077  45.4424524  39.1211677
  21.5596366  43.9825535  38.5745454  21.8584085  43.0399847  38.1158519
  21.2814856  43.8706827  40.0904083  21.0191536  44.8668766  40.4466105
  20.4359818  43.2051659  40.2645397  22.3258591  43.2164812  41.0077763
  22.0948553  42.6467705  42.2536230  23.3159065  42.0997953  42.5890446
  23.5687590  41.6462231  43.5360098  24.2031097  42.3065233  41.6214895
  25.2018714  42.2268438  41.7488813  23.5647726  43.0156755  40.6308413
  24.0207767  43.4539747  39.7554255  20.1965094  44.2809200  37.9207850
  19.4630301  43.3770466  37.5381804  19.9047697  45.5457449  37.7701449
  20.5633020  46.1878061  38.1875134  18.8698947  46.1811876  36.9826317
  18.1682527  45.3809166  36.7473316  18.2021320  47.2419882  37.8874683
  18.9551473  47.9728794  38.1821990  17.4557078  47.8873873  37.4244189
  17.5264812  46.7344713  39.2046356  18.2838380  46.1817789  39.7605515
  17.1891916  47.9347658  40.0951481  16.7598629  47.5816154  41.0327339
  18.1059921  48.4890366  40.2960443  16.5301943  48.6863899  39.6605372
  16.3225353  45.8899498  38.9452672  16.6614664  45.0393486  38.3539081
  16.0310233  45.4029036  39.8758078  15.5573237  46.4699268  38.4293413
  19.1746581  46.5508747  35.5073047  18.2505167  46.7968893  34.7776103
  20.4734373  46.6479206  35.0949812  21.2278056  46.3174200  35.6796193
  20.9195590  47.2165203  33.8153434  21.9473290  46.8832111  33.6714768
  20.3444529  46.7221117  33.0324578  20.8019614  48.7084579  33.6290216
  20.9476161  49.2408323  32.5499368  20.6027722  49.4478464  34.7847009
  20.6898189  48.9159107  35.6388474  20.6321144  50.9113932  34.9049544
  19.8481071  51.2627316  34.2341375  20.2789855  51.3172007  36.3704753
  20.9761333  50.7803202  37.0137811  20.5749917  52.7845097  36.6379404
  21.6391659  53.0154562  36.5899801  19.9934959  53.3419561  35.9036231
  20.1653719  52.9927540  37.6263475  18.7963676  51.0601187  36.7537689
  18.0895865  51.6659307  36.1867142  18.4541285  50.0942802  36.3821030
  18.4725106  51.1537886  38.2834840  18.9816749  50.3731298  38.8486624
  18.7647045  52.1340275  38.6601114  17.4187875  51.0280800  38.5324216
  22.0324373  51.4990330  34.5147467  23.0835199  50.9120131  34.8214865
  22.0840025  52.7475691  33.9521432  21.2633753  53.2885075  33.7196374
  23.3742380  53.3683586  33.6443806  23.8436937  52.6150990  33.0116796
  23.2920241  54.7096920  32.8309512  22.5384164  54.6217346  32.0483685
  22.9697227  55.4689217  33.5435438  24.6122622  55.1076603  32.2434616
  24.4077468  55.8915424  31.5142155  25.2574706  55.4919243  33.0334902
  25.3096390  54.1058207  31.3633633  26.5564322  53.8503313  31.4741659
  24.6039510  53.3097076  30.7031250  24.2522001  53.6058426  34.9801826
  23.8813996  54.3955135  35.8423638  25.3304029  52.8540897  35.1422739
  25.6553459  52.1987820  34.4457912  26.3572907  52.9718351  36.1782670
  25.8219695  52.8844023  37.1237230  27.3665452  51.8662930  36.0339856
  27.7042150  51.5907526  35.0349069  28.3128619  52.1292734  36.5066719
  26.9244933  50.5268669  36.6397524  26.9001865  50.6314373  37.7244520
  25.9244895  50.3753662  36.2333751  27.7481103  49.2351246  36.3135576
  27.8739667  48.7831926  35.1480484  28.3362818  48.6328077  37.3079252
  29.0994191  48.0182314  37.0629406  28.2785988  48.9054298  38.2787228
  27.1943521  54.2977810  36.0295868  27.3242021  54.8302984  34.9216461
  27.8693795  54.7811842  37.0747352  27.7816701  54.2771959  37.9456019
  28.8280487  55.8966875  37.0334840  29.2693710  55.8361912  36.0386586
  28.0742335  57.2286654  37.1016812  28.7910604  58.0459356  37.0221162
  27.4694276  57.2981071  36.1975288  27.3281741  57.5184488  38.2664704
  27.2531033  58.4745026  38.3103013  29.8462462  55.7084417  38.1788325
  30.2004838  54.6058893  38.6515188  30.5699396  56.7954826  38.5591793
  30.1435113  57.6806164  38.3250737  31.6730094  56.5959883  39.5863867
  32.5023127  56.0081863  39.1928864  32.3031521  57.9679680  39.7641373
  31.5653729  58.7675762  39.8305535  33.0875850  57.8886032  40.5167818
  33.1071901  58.3364105  38.4736586  33.8951564  57.6120138  38.2675958
  32.5153160  58.2845640  37.5598216  33.7492108  59.7557163  38.4468555
  34.1947389  59.9423742  39.4239759  34.5210695  59.7615767  37.6772380
  32.7333689  60.7815075  38.0926514  31.7688799  60.5450392  37.9084134
  33.0302954  62.1179008  38.1387424  34.2086363  62.6103783  38.5171485
  35.0828600  62.1047211  38.5052013  34.3512845  63.6025190  38.3929873
  32.2318244  63.0896187  37.8322291  31.3467622  62.8059530  37.4368858
  32.6231027  64.0204811  37.8544354  31.3171077  56.0112667  40.9842205
  32.2031665  55.5182838  41.7095137  30.0195432  55.9981203  41.3069248
  29.3386555  56.4781332  40.7358885  29.4162655  55.3127337  42.4470091
  29.9593282  55.6420183  43.3328772  27.8675628  55.8115721  42.5585318
  27.3581076  55.4585218  43.4551430  27.8966784  56.9004154  42.5993967
  27.0407963  55.2214718  41.3732624  27.6509261  55.3183270  40.4752302
  26.6934299  54.2063236  41.5653753  25.7499766  55.9197474  41.0941935
  25.0387573  55.7335615  41.8989325  25.9040713  56.9979095  41.1380386
  25.1659250  55.5725956  39.7576380  25.7532477  54.9973488  39.1709113
  23.8908482  55.8451033  39.4975567  23.1515670  56.6404629  40.1986551
  23.3528137  56.6793966  41.1876392  22.2150993  56.8589401  39.8897815
  23.2911110  55.4193974  38.4391642  23.8583255  54.9616385  37.7399993
  22.2992086  55.6064463  38.4039283  29.4671178  53.8426208  42.4085617
  29.6689868  53.2329988  43.3939886  29.4446206  53.2822418  41.2019730
  29.4089270  53.8768530  40.3863335  29.2115855  51.8019867  41.0659361
  28.4449005  51.3932896  41.7241621  28.5512280  51.6723108  39.6849442
  29.0517783  52.1883059  38.8656139  28.4717917  50.6230116  39.4007587
  27.1204519  52.1923590  39.7518897  26.3016987  51.5992689  40.4725647
  26.8396544  53.2817364  39.1749144  30.4594040  50.9857368  41.0769844
  30.5008769  49.7979879  41.4421177  31.5966511  51.5841007  40.6701469
  31.6127777  52.4683237  40.1823044  32.8521037  50.9120560  40.8528233
  32.9489255  49.9498940  40.3498602  34.0699005  51.6488314  40.1213121
  34.2558169  52.6910830  40.3806210  34.9584389  51.1198044  40.4658842
  34.1268849  51.6221523  38.6173677  33.2492137  50.9596300  38.0971861
  35.0576782  52.1904945  38.0634665  33.0442858  50.7021189  42.4137259
  33.3657527  49.6258497  42.8862333  32.8469086  51.8117523  43.1043768
  32.4261069  52.5798702  42.6013660  33.1064296  52.0068121  44.5519352
  34.1097307  51.6760540  44.8204184  33.1282306  53.5207367  44.9874020
  32.1131492  53.8194513  44.7257090  33.1124640  53.4754086  46.0763454
  34.0960050  54.4562578  44.3128443  34.0386271  54.1451454  43.2697678
  33.6238527  55.4383612  44.3383503  35.7574153  54.6113873  44.9629021
  36.7064619  53.2221937  44.3603802  36.8000412  52.4417114  45.1154947
  36.1049557  52.7785254  43.5670042  37.6160574  53.5943127  43.8889313
  32.1024156  51.2734270  45.3700352  32.5529742  50.6560993  46.3322830
  30.8086276  51.2450933  44.9942684  30.5927801  51.9268370  44.2810011
  29.8990870  50.2288771  45.5350685  29.8610497  50.3954887  46.6115904
  28.4539723  50.3932619  44.9293137  28.1788254  51.3931799  45.2648067
  28.5424924  50.4159737  43.8431501  27.3873663  49.2716885  45.3886557
  27.8016901  48.2870388  45.1721001  27.4619603  49.3280745  46.4746380
  25.9920788  49.5695925  44.9067640  25.6848550  50.6627083  44.3704987
  25.1961184  48.5876036  45.1346016  30.3231382  48.7852097  45.2794504
  30.4410386  48.0997276  46.3065672  30.6080651  48.3445120  44.0478134
  30.4456115  48.9062262  43.2242870  31.0600758  46.9291973  43.8815832
  30.2633142  46.2589455  44.2041206  31.3419700  46.6527367  42.3553324
  32.2326779  47.2169161  42.0788574  31.5873861  45.6125259  42.1412420
  30.2115464  47.0148993  41.6134787  30.3023458  47.9612207  41.4799118
  32.3295474  46.5890551  44.7156811  32.4924135  45.5022097  45.2861500
  33.2078028  47.6496029  44.8500013  32.9109669  48.5439825  44.4865704
  34.4652486  47.5369215  45.6415319  35.0222254  46.7026663  45.2150440
  35.2410913  48.8664007  45.4187012  35.4031467  48.9937401  44.3483639
  34.7434592  49.7622681  45.7900381  36.6668677  48.8148832  46.1313343
  36.4624453  48.6189461  47.1839094  37.5579071  47.6017284  45.6107140
  37.3251486  47.4494934  44.5567894  38.6243176  47.7688026  45.7622194
  37.3027396  46.7730713  46.2712526  37.4998474  50.0754547  45.8901787
  37.0257115  50.8451414  46.4991760  38.5283828  50.0023317  46.2435532
  37.4553156  50.3903913  44.8476171  34.1905808  47.2970963  47.1161747
  34.8910546  46.5743828  47.7882767  33.0837703  47.7697611  47.5437641
  32.5549889  48.3950758  46.9526005  32.5846791  47.6577902  48.9276028
  33.3722472  47.9710865  49.6129417  31.6647530  48.2045221  49.1347837
  32.1520042  46.1905432  49.0954447  32.5695658  45.5971527  50.0910425
  31.4216232  45.5084705  48.1567097  31.1641240  46.0428476  47.3392534
  31.2342691  44.0929937  48.2654524  30.6769180  43.8397169  49.1672897
  30.2102804  43.6687374  47.1454573  30.5973125  43.7153101  46.1275482
  30.1579094  42.5995874  47.3510599  28.7527299  44.1601753  47.2712421
  27.8861213  43.7727022  48.3196020  28.2865906  43.0942392  49.0583277
  26.5229392  44.1575623  48.2849312  25.9335637  43.9784002  49.1720247
  26.0125446  45.0090504  47.2252655  24.7134733  45.4874611  47.1617651
  24.1331601  45.1256275  47.8354979  26.9216919  45.4013348  46.2439728
  26.5485954  46.1503506  45.5611944  28.2533741  45.0619650  46.2711000
  28.9167738  45.4450655  45.5098295  32.5761700  43.3564568  48.1139421
  32.6447940  42.3222494  48.7078285  33.6373758  43.9027691  47.4609709
  33.4201455  44.6924639  46.8699551  34.9761844  43.2887506  47.6297903
  34.9425912  42.2064209  47.5051451  36.0120606  43.7078762  46.5862656
  36.3890886  44.6891308  46.8745184  37.3021173  42.8398514  46.6345453
  37.7612448  42.8897142  47.6218700  37.0156431  41.8280554  46.3476562
  37.9239750  43.3013058  45.8674383  35.5459332  43.5254717  45.1584387
  36.3288856  43.6474466  44.4099665  35.0659728  42.5639582  44.9761391
  34.8925853  44.3457985  44.8612881  35.5774450  43.4744453  49.0199423
  35.9656096  42.4897099  49.6013165  35.7142448  44.6630621  49.6241713
  35.3760576  45.5039597  49.1784954  36.0803580  44.7578239  51.0364008
  37.1389937  44.5794916  51.2250471  35.7791376  46.2461710  51.4074135
  34.7267389  46.4672661  51.2294245  35.8988881  46.3501024  52.4858189
  36.6664386  47.3059845  50.8084059  36.6551876  47.3951769  49.7221136
  36.1578751  48.6399364  51.3232374  36.7203760  49.4951582  50.9486723
  35.1316428  48.8250971  51.0059595  36.1766267  48.6821651  52.4122572
  38.1630969  47.2037458  51.3646841  38.1454325  47.0610666  52.4451637
  38.5791707  46.2740707  50.9764910  38.7576079  48.0234861  50.9613514
  35.3201842  43.7681818  51.9223022  35.8174086  43.2061291  52.8835249
  34.0945053  43.5190821  51.6393280  33.7384248  44.0504122  50.8576679
  33.2081389  42.6413012  52.4092579  33.2703757  42.7614498  53.4908247
  31.8032885  43.1223392  52.0321417  31.5796638  44.1732693  52.2155571
  31.6651487  42.7938271  51.0020494  30.7833743  42.3348284  52.8958511
  30.9497809  41.2745762  52.7053785  30.9442687  42.5962210  53.9417410
  29.0503716  42.8300047  52.4168158  28.6837006  44.1341019  53.5898542
  28.8569808  43.8856983  54.6369314  29.4767618  44.8682356  53.4477139
  27.7779698  44.7266579  53.4608841  33.4162259  41.1724377  52.1081734
  33.4829068  40.3493214  53.0753279  33.8434577  40.8680964  50.8919859
  33.6413407  41.5870237  50.2119875  34.5181966  39.6043587  50.4707241
  33.9528966  38.8062763  50.9519720  34.4946933  39.4427299  48.9737415
  33.4569526  39.1758752  48.7737799  34.8691893  40.3278446  48.4595156
  35.3130484  38.2806134  48.4275246  34.8044825  36.9728756  48.1668615
  33.7506366  36.8798208  48.3840084  35.5789590  36.0831738  47.4418783
  35.1517487  35.1167679  47.2183752  36.8752360  36.3314080  47.1904325
  37.6756167  35.4648328  46.4935589  37.3917913  35.2560091  45.6005669
  37.4454308  37.5067401  47.5821114  38.5138631  37.5727344  47.4389505
  36.6852713  38.5337138  48.1895781  37.2192430  39.4250774  48.4841013
  35.7753396  39.2689443  51.1755514  35.9634566  38.1509066  51.6569805
  36.6280246  40.2617788  51.3173532  36.4950728  41.1595917  50.8742285
  37.7662468  40.0835037  52.1376371  38.3248043  39.1527462  52.0385551
  38.7393618  41.2083817  51.8623924  38.2334065  42.1648550  51.9938135
  39.6659708  40.9913254  52.3937893  39.2289472  41.2528706  50.4146814
  39.5398879  40.0388288  49.7186947  39.5202255  39.0883708  50.2311802
  40.0182533  40.0635147  48.3824921  40.1340961  39.1397548  47.8350925
  40.1788664  41.2940931  47.6774025  40.4719257  41.3509941  46.6394806
  39.9542308  42.4870920  48.4243679  40.1469088  43.4486675  47.9719877
  39.4264150  42.4538565  49.7544956  39.2859459  43.3994246  50.2570534
  37.4784589  39.9884558  53.6613178  38.0664468  39.2108297  54.3535757
  36.5641022  40.8264351  54.1993570  36.1187363  41.5406227  53.6410666
  36.2124562  40.8284569  55.6155777  37.1306348  40.7194233  56.1927795
  35.5077839  42.1831846  55.9982443  36.1965418  42.9949141  55.7641459
  34.6028256  42.1558046  55.3912830  35.3012753  42.3043060  57.4779797
  34.2699599  42.0805264  58.1044865  36.3737440  42.5097561  58.1763458
  36.1759806  42.5984335  59.1628170  37.3168945  42.5714874  57.8203201
  35.3266382  39.6593738  56.0703087  35.3107738  39.3104506  57.2458792
  34.6528149  38.8575315  55.2243567  34.5455575  39.1168213  54.2541170
  33.6664844  37.8747153  55.6606436  33.8290644  37.5365567  56.6840315
  32.1995449  38.3614731  55.5137730  31.9007254  38.7370968  54.5351458
  31.4349699  37.5908613  55.6121778  31.8833947  39.3890262  56.5750408
  32.5947070  40.2145863  56.5991974  30.9236169  39.8561716  56.3543606
  31.8533278  38.8161230  58.0357027  31.3460422  37.8517962  58.0067015
  32.8232503  38.5850716  58.4761143  31.0802436  39.6972990  58.8909769
  31.5433121  40.3275108  59.5301247  29.7891974  39.7107148  59.0720701
  28.9475226  39.0101862  58.3488369  29.2709327  38.4520698  57.5716543
  27.9483962  39.0587902  58.4884214  29.2037582  40.5373240  59.8869848
  29.6615767  41.2967205  60.3705359  28.1990910  40.4344463  59.8993874
  33.8296008  36.6126990  54.8381281  33.6391020  36.6551375  53.6379719
  34.2286229  35.4804397  55.5301380  34.4938183  35.5330229  56.5032816
  34.3976283  34.1645980  54.8315620  35.3429174  34.1887975  54.2893982
  34.7724771  33.1020975  55.9244728  34.0892982  33.1301904  56.7733431
  35.0229764  31.6162705  55.5744219  36.0343218  31.5022182  55.1841974
  34.9520016  30.9137583  56.4048100  34.1732574  31.2514472  54.9973726
  35.9233999  33.5040379  56.5354919  36.5562296  33.5846949  55.8181190
  33.3170271  33.7057328  53.8427973  33.6854291  33.1635094  52.7720213
  32.0720792  33.7847042  54.2073727  31.7925596  34.1772532  55.0949955
  30.9597707  33.7193179  53.2796288  31.3135648  33.9245176  52.2692680
  30.2477694  32.3128891  53.4413719  30.9112644  31.4976001  53.1529617
  29.8120165  32.1698809  54.4301939  29.1238475  32.2241426  52.6047707
  29.0735316  31.2890553  52.3933983  29.8759937  34.8192835  53.6301613
  30.0307751  35.4535842  54.6641731  28.9699769  35.1265264  52.6742363
  28.9226437  34.4146204  51.9593525  27.9533625  36.2255359  52.6554728
  27.7807164  36.5130734  53.6925936  28.4740925  37.5171137  51.8992949
  28.7163115  37.0688033  50.9357309  27.6052189  38.1752539  51.8959332
  29.6040106  38.2873917  52.5474501  30.2188134  37.5816345  53.1060457
  30.5177951  38.9753890  51.4813662  31.3557625  39.4276261  52.0118380
  30.9071231  38.2134104  50.8061552  29.9469304  39.6954966  50.8951426
  29.0172505  39.2903733  53.5474253  29.8053789  39.5860124  54.2399216
  28.7189388  40.1191998  52.9054308  28.1544733  38.9048600  54.0906525
  26.5922308  35.6385636  52.1093178  26.5788388  34.5464635  51.5086794
  25.3969502  36.2808657  52.2868299  25.2565074  37.5346828  53.0290842
  25.1898265  38.3756804  52.3388815  26.0198808  37.7653623  53.7721491
  23.9618802  37.5208569  53.7614870  23.6974239  38.5736299  53.8606405
  24.0185213  36.9864345  54.7097921  23.1494784  36.6278648  52.7985954
  22.8086543  37.2426724  51.9655561  22.3122644  36.0653162  53.2117653
  24.1092730  35.5409694  52.1863937  24.2027569  34.6628451  52.8253555
  23.7414813  34.9748778  50.8014679  23.0065060  34.0063953  50.7111406
  24.3669677  35.4983974  49.7584009  25.1868129  36.0608196  49.9362659
  24.1490483  35.2797341  48.3082628  23.2396245  34.7230291  48.0821419
  24.0922785  36.6600847  47.7129841  23.6871791  36.6182876  46.7019224
  23.3790827  37.2464204  48.2923508  25.3890800  37.4374294  47.7720308
  26.4437294  37.3355627  46.9884586  26.6341043  36.6339469  46.1897659
  27.4056196  38.1257200  47.4745941  28.3707237  37.9551435  47.2304964
  27.0389676  38.9127398  48.5626221  27.6856542  39.7953916  49.4808769
  28.6924005  40.1417542  49.2995119  26.9323778  40.4705381  50.4468489
  27.3476005  41.1738634  51.1534834  25.5355763  40.2176571  50.5340862
  24.8905587  40.7626057  51.2074232  24.9296880  39.2146873  49.6888733
  23.8832736  38.9540219  49.7477579  25.6621671  38.5044932  48.7179899
  25.3371596  34.4875360  47.7040863  25.5690885  34.5287609  46.4669228
  26.1527991  33.7713003  48.5184383  25.8019018  33.7552309  49.4653893
  27.2262287  32.8929090  48.0994511  27.4718451  33.1892705  47.0796776
  28.4894300  33.0738807  48.9880371  29.0301609  33.9276171  48.5795689
  28.2498837  33.2183647  50.0415277  29.3063974  31.7823315  48.9203787
  28.7973046  31.0446310  49.5406389  29.4575071  31.4105940  47.9069281
  30.7287526  31.9255781  49.5313454  31.0197091  32.9851818  50.0339699
  31.5839791  30.9665465  49.4996595  32.3560262  31.0226679  50.1484251
  31.3560247  30.0695515  49.0952635  26.5891552  31.4465404  48.0106068
  25.7268810  31.1888933  48.8725948  27.0355296  30.5880833  47.0894670
  27.8246045  30.8481526  46.5151548  26.6943860  29.1517997  47.1388006
  27.3886704  28.5576963  46.5445709  26.9139266  28.8519335  48.1634855
  25.2244282  28.7890363  46.9620895  24.6827626  27.9261851  47.6302719
  24.4876480  29.4148445  46.0555077  24.9376559  30.1181531  45.4872227
  23.0916286  29.2123270  45.6114483  22.5411463  28.5927892  46.3194370
  22.3953819  30.5791569  45.4975128  23.1508994  31.3112688  45.2123642
  21.6644764  30.4752445  44.6955919  21.7233968  31.1488485  46.8084574
  21.0179281  30.3667426  47.0890379  22.6914024  31.6064501  47.9776478
  23.4044623  30.7919097  48.1048203  23.2727909  32.4720860  47.6602077
  21.9980717  31.7577577  48.8049936  20.9938645  32.4632120  46.4580107
  20.1473856  32.6517892  47.1183205  21.7935014  33.1995153  46.3771200
  20.6663442  32.3161769  45.4288292  23.0627298  28.3764458  44.3158007
  23.2294536  28.9084840  43.2425404  22.9631686  27.0207715  44.4500589
  22.7375674  26.6965461  45.3796196  23.0352259  26.0015821  43.3599520
  24.0375161  25.9241343  42.9386234  22.7698803  24.5761967  43.8116074
  23.6348724  24.1977477  44.3562841  21.8873930  24.6298313  44.4491339
  22.5896668  23.5525966  42.6385927  21.6800332  23.8407445  42.1116829
  23.4709167  23.5913086  41.9982862  22.4993515  22.1768999  43.2330179
  23.1384301  22.0813227  44.1108227  21.5000176  21.9962811  43.6290169
  22.8962445  21.1509132  42.2258568  22.1237397  21.0420346  41.4646196
  23.8633871  21.4553571  41.8257999  23.1536365  19.8298407  42.9139614
  23.9375520  19.8508573  43.5504675  22.3045421  19.5448220  43.3807611
  23.3015776  19.0813577  42.2521591  22.1752238  26.4648867  42.1850729
  21.0318923  26.8754554  42.5049305  22.6098251  26.2010026  40.9376049
  23.4828901  25.7471800  40.7097578  21.9120383  26.6884232  39.7021747
  20.8290935  26.5657234  39.7188663  22.1992207  28.2387209  39.6499872
  21.8501258  28.6701775  40.5881119  23.2826424  28.3570957  39.6330190
  21.6561866  28.7410164  38.8494158  22.3935771  26.0357761  38.3874941
  23.5428309  25.5748534  38.4133577  21.4765215  25.8087111  37.4081135
  20.5118012  26.1066675  37.3828983  21.7149615  24.9968433  36.1659813
  22.1693754  24.0629959  36.4969444  20.3362083  24.6244454  35.6109619
  19.6402395  24.4387341  36.4290333  19.9641192  25.4979372  35.0755501
  20.4786921  23.7708759  34.9482274  22.7073503  25.6969976  35.2231932
  23.4982204  24.9848056  34.5825052  22.8468132  27.0374870  35.1553917
  22.3008370  27.6116610  35.7817578  23.7407470  27.8400660  34.3061376
  24.5345449  27.1931124  33.9327240  22.9309583  28.3884072  33.0826402
  23.4393358  28.9752316  32.3175979  22.3875666  27.2552824  32.2568583
  21.7931128  27.6894474  31.4529753  23.1810498  26.6266274  31.8527794
  21.7284632  26.6416550  32.8709793  21.9235563  29.2359138  33.5788131
  21.5026784  29.4435954  32.7413535  24.3723798  28.9904165  35.0795341
  23.8761854  29.4639826  36.1268830  25.4018688  29.5982742  34.4977450
  25.7311416  29.1920257  33.6336589  26.0016155  30.8719206  34.9664760
  26.2534928  30.7135606  36.0150838  27.2309470  31.3259625  34.1300797
  27.6542211  30.4273653  33.6812329  26.9399166  31.9684625  33.2990575
  28.3165193  31.9450760  35.0256419  27.8637886  32.5657821  35.7988572
  28.9058161  31.1925125  35.5495453  29.4265127  32.6838613  34.2514324
  30.2125597  32.9153490  34.9702144  29.7992063  31.9951034  33.4932685
  29.0279913  33.9783835  33.6913872  28.0632305  33.8363218  33.2044029
  28.7296128  34.7683144  34.3806458  29.9799275  34.4990516  32.7096772
  30.9264255  34.4737101  33.0612397  29.9426532  34.0119886  31.8256640
  29.7960711  35.4569530  32.4475217  24.9017954  31.9255543  35.0044322
  24.8919368  32.7029109  35.8897233  24.0080309  31.9003391  33.9987230
  24.2601705  31.3369799  33.1992507  22.9456401  32.9190969  33.9127231
  23.4078193  33.9049625  33.9632988  22.2256160  32.9406238  32.5722456
  22.9799104  33.1561017  31.8154716  21.6539717  32.0338106  32.3747277
  21.1696672  34.0128374  32.4371934  20.4064965  33.8158298  33.1900930
  21.6275740  34.9786329  32.6508689  20.5392885  34.1504717  31.0961223
  21.2959146  34.2256594  30.3151202  19.9231327  33.2882929  30.8409810
  19.7485864  35.4456830  30.9348369  20.4193926  36.2525773  31.2298584
  19.5615661  35.3957510  29.8621655  18.4290135  35.4338980  31.6114902
  17.8122973  34.7896361  31.1374760  18.5761178  35.1554489  32.5711417
  17.9831398  36.3400745  31.5996361  21.9829750  32.7275491  35.1148844
  21.8555331  33.6658716  35.8788180  21.3560390  31.5256763  35.3051066
  21.5655255  30.7978892  34.6368670  20.5289173  31.2525129  36.5061116
  19.7156346  31.9747567  36.5771556  19.9650109  29.8394608  36.3569474
  19.6749330  29.6540165  35.3227496  20.7749343  29.1625214  36.6287470
  18.7687993  29.5941448  37.3072600  19.1860127  29.8267126  38.2870293
  17.9667127  30.3002572  37.0924020  18.1502700  28.2281256  37.2526717
  18.8044524  27.2599769  37.5400543  16.8465161  28.0999470  36.9678640
  16.5376437  27.1610880  36.7599201  16.1275876  28.7992978  36.8489051
  21.2318325  31.4318061  37.8994608  20.6476927  31.9280219  38.8299966
  22.4918342  31.0825944  37.9863644  22.9013705  30.5934739  37.2033334
  23.3233428  31.4464521  39.1593695  22.9265046  31.0378289  40.0886965
  24.6607280  30.8627129  39.0211391  24.6158123  29.8255634  38.6888695
  25.1192594  31.3651776  38.1694484  25.5539513  30.9334326  40.3246641
  25.4214716  31.9067311  40.7971478  25.0977683  30.2016282  40.9913397
  27.0663810  30.7043815  40.0565386  27.3258424  31.2518477  39.1504169
  27.5345254  31.1058235  40.9553099  27.3689318  29.2407441  39.7793221
  27.0297170  28.7297726  40.6803989  26.8868876  28.7595439  38.9283347
  28.7997413  28.8885188  39.5909357  29.1482258  28.9804578  38.6474252
  29.3260455  29.1357255  40.4167652  28.8962579  27.8836036  39.6214771
  23.4824038  32.9830313  39.3443155  23.2130575  33.5030556  40.4112959
  23.8122010  33.7255168  38.2534528  24.1431928  33.3946967  37.3584080
  23.9254856  35.1542521  38.4365344  24.5719957  35.4901028  39.2472935
  24.3970394  35.8942676  37.1352959  23.8653398  35.4885364  36.2746096
  24.2239594  36.9560695  37.3105764  25.8831501  35.8860707  36.8623543
  26.4057851  36.9440627  36.1293077  25.7105708  37.6208019  35.6548595
  27.7814674  36.9703746  35.7859683  28.1619763  37.6727247  35.0591087
  28.6101127  36.0142374  36.3457632  29.9081755  36.1196017  36.0681248
  30.4867387  35.6371212  36.6631675  28.1042981  34.9948645  37.1212268
  28.8466120  34.3331051  37.5424695  26.7204547  34.8541331  37.3672438
  26.3004875  34.0070081  37.8891730  22.5644493  35.8003783  38.9681625
  22.4486589  36.6655588  39.8333097  21.4552951  35.3367352  38.4194183
  21.5317726  34.6418524  37.6904559  20.0739956  35.7193637  38.6877179
  20.0212884  36.8067026  38.6328030  19.0872061  35.0510406  37.7245188
  19.1788054  33.9673448  37.6516080  18.0745566  35.1290417  38.1201959
  19.1829586  35.6179094  36.3106847  18.7825644  36.6284537  36.2295365
  20.2346563  35.6092215  36.0244060  18.3048701  34.7445917  35.4684258
  18.4885800  34.6729159  34.2260528  17.3767591  34.1070056  36.0243177
  19.7189426  35.4387808  40.1131678  19.1758633  36.2783861  40.7533026
  20.0347233  34.2782259  40.6351280  20.4201627  33.6060309  39.9872971
  19.8459148  33.7453389  42.0131207  18.8166404  33.9174628  42.3278856
  20.1716423  32.1906614  42.1485424  21.1463284  32.0130324  41.6940832
  20.3020906  31.9333220  43.1996632  19.0967238  31.2549829  41.5316916
  18.1115711  31.5720987  41.8737602  18.9707351  31.3234878  40.4511642
  19.2186844  29.7763348  41.9126749  18.5195136  29.2267323  41.2824392
  20.2430701  29.4038820  41.9157934  18.4887719  29.4158888  43.2270145
  18.7989616  30.1369548  43.9832878  17.4257123  29.5323563  43.0162096
  18.7896752  27.9813719  43.4936619  18.7270331  27.5772643  42.5701475
  19.7598886  27.8644180  43.7488222  18.1786299  27.4594474  44.1054773
  20.7464743  34.4526958  43.0814648  20.2812648  34.7541904  44.1625595
  21.9932508  34.8094535  42.7615356  22.3293352  34.4908142  41.8639755
  22.9018092  35.5758095  43.5779858  22.8901124  35.1781368  44.5927858
  24.3123460  35.6491971  42.9646015  24.1770911  35.8485651  41.9015598
  25.1404309  36.7408061  43.6882067  24.8772550  36.7980027  44.7444105
  26.1877942  36.4435649  43.6354828  24.9976850  37.7532172  43.3103895
  25.0193310  34.2844129  43.0209208  25.4484677  34.1014671  44.0060472
  24.4107795  33.4110117  42.7865219  26.1432314  34.1739011  41.9762945
  25.6441808  34.2405081  41.0095453  26.9442630  34.8888206  42.1643019
  26.5825915  33.1943750  42.1649647  22.2869110  36.9509339  43.7201500
  22.0736909  37.3690057  44.8509598  21.9542956  37.6088142  42.5398636
  22.1102524  37.1544194  41.6514349  21.3607669  38.9436483  42.4184656
  22.0803714  39.6109891  42.8927279  21.2817049  39.3554688  40.9726906
  22.2478819  39.4357705  40.4745388  20.8124661  38.5335088  40.4320526
  20.4774594  40.5441236  40.7707644  20.7997155  41.2498999  41.3361216
  20.0641513  39.0614510  43.2121229  19.8963118  39.9992323  44.0295887
  19.1188490  38.1635904  43.1087065  19.1220534  37.5243402  42.3267555
  17.8075600  38.1561041  43.9716053  17.1214843  38.9857984  43.8012695
  17.0092285  36.8681860  43.5306644  17.0327199  36.9547868  42.4443626
  17.5544190  35.9486556  43.7435722  15.5223882  36.8199492  44.0744019
  15.0315619  37.7871728  43.9663601  14.9456978  36.1923480  43.3949566
  15.2767265  36.2808776  45.4561853  14.1006124  36.2246656  45.8505630
  16.1807525  35.8551645  46.1958504  18.0950522  38.1736422  45.5022192
  17.4885380  39.0025187  46.1505222  18.9251959  37.2286439  46.0782003
  19.5325160  36.6976309  45.4705048  19.3271947  37.1590424  47.5164890
  18.4120500  37.1074152  48.1063604  20.2347803  35.9793687  47.6706409
  19.7548664  35.0508833  47.3612928  21.1617517  36.0454130  47.1010256
  20.6167102  35.7768488  49.1282749  21.2327528  34.8789024  49.1760635
  21.2008047  36.6014791  49.5368290  19.4181585  35.5498052  50.0698090
  18.6739314  36.3437080  50.1325893  19.0111494  34.6102405  49.6960974
  20.0078988  35.2813244  51.4325619  20.8063865  34.5402575  51.3960028
  20.4336762  36.1841536  51.8704176  18.9304066  34.7496271  52.2964907
  18.2087469  35.4284477  52.4927282  18.4248257  34.0146947  51.8228197
  19.2193460  34.3961048  53.1974030  20.0679469  38.4499717  47.8554392
  19.8797011  39.0460300  48.8795900  20.9513474  38.8719034  47.0143938
  21.0247731  38.4300017  46.1091709  21.8402958  40.0148821  47.2602510
  22.4062586  39.9005175  48.1847572  22.9628158  40.0899124  46.2304163
  23.4908795  39.1391158  46.3027620  22.4988747  40.1563406  45.2463198
  23.9820361  41.2185240  46.3247442  23.6731887  42.2074461  45.9859943
  24.1584849  41.3435793  47.3930740  25.3110576  40.8222914  45.6134748
  25.7302737  39.9410868  46.0991049  25.0731540  40.5713987  44.5797682
  26.3237166  41.9138432  45.7536221  25.8673882  42.6569843  46.4075375
  27.2186232  41.4696264  46.1894131  26.6909146  42.5692320  44.4775438
  25.9904122  43.2038116  44.1215801  27.5290585  43.1271362  44.5573092
  26.9524217  41.8571949  43.8106728  21.0683751  41.3725233  47.3135424
  21.2795711  42.1072626  48.2833529  20.1776886  41.6435862  46.3837862
  20.1937485  40.9626150  45.6380510  19.1516471  42.6992607  46.4561415
  19.6044290  43.6888790  46.5173388  18.3263469  42.6713181  45.1502514
  18.9854646  42.4851990  44.3022966  17.6675963  41.8030405  45.1347876
  17.5741720  43.9799643  44.8448658  16.7992139  44.0357971  45.6093454
  18.2361937  44.8422337  44.9244165  16.6621315  44.0072250  43.2520199
  17.9921210  44.1535902  41.9654274  18.6859715  43.3270979  42.1190166
  17.5564325  44.0328360  40.9736156  18.5063028  45.1118183  42.0397043
  18.1296301  42.6781702  47.6088476  17.9211879  43.6282253  48.2881069
  17.6365757  41.4486456  47.8706884  17.9608059  40.6466770  47.3493195
  16.7846978  41.2612534  49.0276289  16.1247206  42.1254301  49.1032982
  15.9683275  40.0046873  48.8223600  15.3659260  39.8827147  49.7225475
  15.3224897  40.0588703  47.9459715  16.8262887  38.8934684  48.6851740
  17.1699202  38.9072871  47.7888870  17.5355399  41.1958170  50.4054022
  16.8505275  41.0558558  51.4071131  18.8375008  41.3075924  50.5345583
  19.4063771  41.4969301  49.7217655  19.4734168  41.5040541  51.8266964
  19.0304589  40.9134531  52.6286173  20.8876657  41.0416317  51.6545963
  21.3290668  41.5797520  50.8157301  21.7605352  41.2940693  52.8134584
  21.9280100  42.3711014  52.8058577  21.3414383  41.0817242  53.7970066
  22.6823330  40.7178545  52.7336884  20.7952094  39.6810246  51.3278484
  20.4278898  39.6236062  50.4427576  19.4363499  42.9650497  52.2187805
  19.9550569  43.7321615  51.4676380  18.9344716  43.4101248  53.3649540
  18.1082225  42.6631927  54.2721319  18.6955035  42.2654200  55.0997639
  17.5145793  41.8737984  53.8111067  17.0734906  43.6330891  54.7528458
  16.7000091  43.2684946  55.7097626  16.3084316  43.6053705  53.9769506
  17.7997148  44.9543571  54.8157644  18.2524419  45.1036072  55.7960033
  17.0953321  45.7473755  54.5646095  18.8253808  44.7792768  53.7319851
  18.5474920  45.4286003  52.9017687  20.2176261  45.2197599  54.2482805
  20.8491206  44.4826317  55.0534010  20.8417416  46.2487078  53.6959934
  20.3834963  46.7244720  52.9319429  22.2762728  46.5099096  53.8241959
  22.6916385  45.5024576  53.7993574  22.9107428  47.2981691  52.6870632
  22.3794031  48.2410431  52.8166008  24.4185686  47.6207304  52.8024673
  24.5014453  48.2648754  53.6778593  25.0630879  46.7523623  52.9390001
  24.6650219  48.2437754  51.9427109  22.6990151  46.6132259  51.3060188
  22.4857283  45.5472517  51.3854933  21.8488979  47.1216726  50.8511734
  23.6379457  46.7248631  50.7637596  22.7034378  47.0736933  55.2222872
  23.8286042  46.7848587  55.6654024  21.8137336  47.6523495  56.0484219
  20.9255552  47.9385614  55.6620026  22.0192885  47.8303814  57.4937439
  22.9824471  48.3086061  57.6718569  20.8868003  48.7247849  58.1300974
  20.7333565  49.5801067  57.4720860  19.8646653  48.3465338  58.1136799
  21.3146758  49.1155434  59.5461273  21.1417675  48.3153534  60.2657795
  22.3623300  49.4151831  59.5732498  20.4794335  50.2578211  60.0797558
  20.7883620  51.4864063  59.8740911  19.3742847  49.9889088  60.5621004
  21.9702697  46.5058613  58.3198547  22.8837395  46.2786436  59.1401339
  20.9477139  45.6503344  58.2015133  20.1994419  45.9810114  57.6091909
  20.9145164  44.2903328  58.7747526  20.8746529  44.4400597  59.8536825
  19.6008694  43.4860992  58.4449434  19.6758020  43.2171202  57.3913145
  19.4491994  42.2696686  59.2811871  19.8366034  42.3499155  60.2968597
  18.3962405  41.9997835  59.3620777  19.9679017  41.4723253  58.7489367
  18.3978784  44.3054724  58.7786818  18.4855020  45.2998447  58.3408976
  17.5313425  43.7708426  58.3896017  18.3943748  44.4294548  59.8616028
  22.2063923  43.4936094  58.3836412  22.9209590  42.9461241  59.2145967
  22.6044059  43.3773232  57.1002865  22.0705318  43.8697720  56.3984489
  23.8919759  42.8451347  56.6344786  23.9888620  41.7976475  56.9199276
  23.9991641  42.9727173  55.1534986  23.2476306  42.2245312  54.9014759
  23.6645389  44.0031195  55.0335264  25.2812934  42.6363420  54.4160652
  26.1455321  43.0941296  54.8973370  25.5822659  41.1365986  54.3109274
  24.7361016  40.6482506  53.8275814  26.4890718  40.9515858  53.7350988
  25.6347585  40.8486509  55.3608942  25.0681782  43.2335758  53.0263519
  24.2476153  42.8250170  52.4365520  24.7832537  44.2856550  53.0331230
  25.9102583  43.0774832  52.3520803  25.1042509  43.5549927  57.2384453
  26.1365914  42.8726530  57.3915148  25.0935245  44.8379755  57.6344633
  24.2678928  45.4046106  57.5027227  26.2200022  45.3348732  58.4194517
  27.1688247  44.8992205  58.1063366  26.3769269  46.8020248  58.0278015
  25.4832077  47.3453808  58.3346128  27.2235608  47.1835899  58.5985184
  26.9957280  46.9493294  56.3305092  25.9299707  46.3527155  55.7891130
  26.1826706  45.0962496  59.9426270  26.8182993  45.8230591  60.7329750
  25.4809976  44.0486193  60.3863716  24.8257947  43.6703968  59.7172260
  25.3267026  43.6903811  61.8449879  25.2474785  44.5789051  62.4713659
  23.9916015  42.9442120  62.1239090  23.1366324  43.4987736  61.7371464
  24.0006304  42.0037985  61.5728617  23.8314319  42.8355169  63.5909939
  24.6122837  42.2959805  64.1269684  23.8500714  43.8513184  63.9858437
  22.4929047  42.2329235  63.9475870  21.7955208  42.9590654  63.5298872
  22.3923683  41.2499094  63.4875011  22.1572375  42.2122765  65.4360437
  21.2218809  41.6738129  65.5885792  22.9674482  41.6532135  65.9041357
  22.1716404  43.5732269  65.9705114  23.0673003  44.0006638  65.7829046
  21.4978504  44.1584826  65.4976749  21.9229293  43.6129189  66.9486046
  26.4764190  42.8923130  62.4058628  26.6215348  41.6788149  62.0970535
  27.3757887  43.5281181  63.1362200  27.1327281  44.4037151  63.5770750
  28.6026931  42.8945637  63.5496473  28.7622023  43.3768225  64.5140553
  28.4435272  41.8693113  63.8837481  29.6428895  43.0106735  62.5086498
  30.0962973  42.0377970  61.9402266  29.9674678  44.1904783  61.9462919
  29.5809650  44.9816942  62.4409628  30.7454109  44.4540167  60.7244110
  31.4725018  43.6749363  60.4953337  29.8274803  44.5704460  59.4594002
  29.2168069  43.6676073  59.4516420  29.1868615  45.4382372  59.6164179
  30.4533792  44.6648264  58.1046104  31.2415862  43.6305237  57.5173521
  31.3447523  42.6956701  58.0482054  31.9401836  43.8555336  56.2991428
  32.4826503  43.0509663  55.8250093  31.8255901  45.0369549  55.5668068
  32.2833157  45.0910521  54.5900965  30.9933996  46.0115290  56.1534262
  30.9843969  46.9599152  55.6368160  30.3896761  45.8341217  57.4177408
  29.7164726  46.6202831  57.7261972  31.4057517  45.8350229  60.9516716
  30.8368373  46.6243553  61.7055130  32.6196098  46.1088085  60.3805971
  33.4426594  45.1665211  59.7402620  33.1046939  44.9827337  58.7204075
  33.4275961  44.2644787  60.3519821  34.8861790  45.6896782  59.7734642
  35.4874587  45.5371475  58.8771963  35.4984283  45.3462505  60.6073141
  34.6651363  47.2241449  59.9718714  34.7216439  47.6657057  58.9769173
  35.5360460  47.6454401  60.4739952  33.3725524  47.3270464  60.6932640
  33.4756923  47.3200512  61.7783546  32.5830412  48.6042976  60.4001665
  32.0502877  48.6873531  59.3090391  32.4621582  49.5918512  61.2776899
  33.0200601  49.4711399  62.1109200  31.5621567  50.7513952  61.1341619
  30.5649495  50.3746939  60.9065914  31.5173864  51.4959621  62.4536276
  32.4763298  51.9763851  62.6478481  30.7763362  52.2952127  62.4659109
  31.3056254  50.7957268  63.2616711  32.0324135  51.6099501  59.9708176
  31.2192130  52.1328020  59.2977285  33.3174682  51.6180229  59.7718906
  33.9462066  51.0910702  60.3610516  34.0135694  52.1859598  58.6027288
  33.7492085  53.2394838  58.5115385  35.5071020  52.0082903  58.8220406
  35.7498503  50.9801722  59.0906239  36.0639429  52.2290182  57.9113770
  35.8953977  53.0719566  59.8118639  36.9267964  53.2728481  59.5221138
  35.4442883  54.0405512  59.5963955  35.8714080  52.6884699  61.3261652
  35.4290628  51.5635729  61.7610645  36.3018823  53.5593653  62.1856976
  33.4701180  51.6039371  57.2544909  33.0551767  52.3375750  56.3954258
  33.7362003  50.3010130  57.1124125  34.2204475  49.7787428  57.8285456
  33.2350683  49.6491814  55.8745956  33.6385250  50.1996565  55.0247145
  33.6273265  48.1772757  55.8968782  33.0023909  47.7265024  56.6678190
  33.2364130  47.7884960  54.9565935  35.0965714  47.7684402  55.8738756
  36.1431432  48.6975908  55.6121445  35.8953643  49.7204065  55.3695488
  37.4984694  48.2751656  55.4588079  38.2812309  49.0142345  55.3724146
  37.8666902  46.9050312  55.5922461  38.8701797  46.5484858  55.4125643
  36.8181705  45.9887743  55.8332825  37.1034932  44.9479866  55.8751106
  35.4486609  46.4079523  55.8801079  34.7093987  45.6229258  55.9403372
  31.7105794  49.7947931  55.7620573  31.2078977  50.1042747  54.6714640
  30.9458184  49.8127842  56.8213320  31.3678598  49.5215082  57.6914692
  29.4750595  50.0677633  56.7331839  28.9663458  49.4759083  55.9722519
  28.9086485  49.7159195  58.1504440  29.2083406  50.5375433  58.8009977
  27.8336644  49.5610952  58.2428694  29.4523644  48.8411808  58.5072470
  29.1721845  51.5358019  56.3597679  28.3411074  51.6770983  55.5135012
  29.9066234  52.5824404  56.8176699  30.5312467  52.4325132  57.5970697
  29.7810531  53.9884520  56.3596058  28.7560654  54.3492031  56.4453793
  30.7190132  54.8633003  57.1635866  30.2916217  54.7892904  58.1635618
  31.7669129  54.5632935  57.1657991  30.7493711  56.3421154  56.7060804
  31.1113334  56.3289165  55.6780195  29.7503781  56.7781353  56.7037582
  31.8577743  57.4886179  57.6275206  30.7701755  57.6160717  59.0637350
  30.5671358  56.7224550  59.6539211  31.2997174  58.3189440  59.7069025
  29.7970891  58.0507851  58.8352013  30.1630425  54.0472174  54.8838472
  29.4727397  54.6170187  54.0993929  31.2916040  53.4657145  54.4492102
  31.8915677  53.0550146  55.1502562  31.7143798  53.4630537  53.0844641
  31.9362235  54.4729948  52.7396250  32.9800844  52.6362467  53.0403948
  33.7291265  53.1721497  53.6233616  32.8339744  51.6346502  53.4448147
  33.5261679  52.3753119  51.6214800  33.0370808  51.1989689  50.9079361
  32.2418618  50.6623316  51.4039660  33.4927344  50.9104872  49.6203947
  33.0431914  50.1296186  49.0249491  34.5554590  51.6768694  49.1027164
  35.0154567  51.4427567  47.8343630  34.4576001  50.7767439  47.4259233
  35.0552082  52.7433491  49.8292875  35.7785678  53.3614588  49.3183136
  34.5090938  53.1789970  51.0465193  35.0827813  53.8920259  51.6199970
  30.6548190  52.8952169  52.1469927  30.3853965  53.5707521  51.0940266
  30.1082635  51.7475653  52.5190544  30.3665733  51.2888050  53.3809805
  28.9976931  51.1481333  51.7351913  29.3482113  50.9302235  50.7263565
  28.4923935  49.8868227  52.4260426  28.4711504  50.0790405  53.4987497
  27.5066519  49.6987963  52.0005322  29.4343710  48.6673546  52.1981907
  30.4813862  48.9532804  52.2987127  29.2772150  47.5970840  53.2161808
  30.0062609  46.7965841  53.0905247  29.5924664  48.0495644  54.1563845
  28.2868695  47.1515322  53.1223679  29.3017602  48.0447626  50.8324814
  30.0043893  47.2114611  50.8378458  28.3494711  47.5827599  50.5721045
  29.4153666  48.7465096  50.0061989  27.8241062  52.1275520  51.6503191
  27.2087812  52.1708584  50.5912590  27.3856449  52.8748369  52.6698780
  27.8216839  52.7225304  53.5680866  26.2977934  53.9049053  52.6337910
  25.4528260  53.4657145  52.1034765  25.9214354  54.1468143  54.0832329
  26.7493463  54.6030903  54.6258879  25.1534653  54.9183702  54.1382980
  25.3823996  52.9932547  54.8167610  25.1357341  51.9112825  54.3660593
  25.2380252  53.2156944  56.1048126  24.8082447  52.4838781  56.6523838
  25.3883886  54.1628790  56.4215565  26.7519569  55.1730394  51.7886591
  25.8206582  55.6830025  51.1435604  27.9692268  55.6410599  51.8109131
  28.6656666  55.1994991  52.3940897  28.3916140  56.7789888  50.9816313
  27.7970934  57.6889277  51.0632277  29.8431134  57.0255375  51.3789320
  29.8191285  57.1913815  52.4559784  30.4582763  56.1366558  51.2390804
  30.5201364  58.2017517  50.6816673  30.4856157  59.4650936  51.3452244
  30.0586581  59.5256329  52.3354006  31.0769629  60.6442785  50.8208895
  30.9895182  61.5622902  51.3830280  31.8410826  60.4744291  49.6042299
  32.6129007  61.4769697  49.1088200  32.7514458  62.1519375  49.7772741
  31.9617701  59.2043495  48.9628696  32.5823784  59.0562248  48.0914879
  31.2285900  58.1575298  49.4926977  31.2238669  57.2448301  48.9153337
  28.3841610  56.3277435  49.5213890  27.8215528  56.9713402  48.6615992
  28.8408160  55.0717402  49.2577457  29.3480992  54.6145821  50.0019026
  28.8443375  54.4060326  47.9554415  29.3008304  55.0574636  47.2102165
  29.6645713  53.1167793  47.9920387  29.3673158  52.5393057  48.8674021
  29.5845675  52.4902058  47.1037245  31.4024734  53.4425020  48.3460331
  31.3177991  54.0215111  49.5470667  27.4338198  54.2623854  47.3528242
  27.2365642  54.4017076  46.0967636  26.4218855  53.9860582  48.2040644
  26.5969706  53.8102722  49.1831207  24.9978328  54.0014267  47.8758669
  24.8399782  53.5220861  46.9097328  24.2979598  53.1818771  48.8157272
  24.6727490  53.6032248  49.7485161  23.2149434  53.2924843  48.7614536
  24.5968461  51.7134953  48.7536478  24.2298198  51.3477468  47.7946806
  25.6623936  51.5318680  48.8940907  23.8168335  51.0091352  49.8793936
  24.1042566  49.9609089  49.9613476  24.1592932  51.4370394  50.8215809
  22.3817635  51.0657930  49.7039509  21.9392586  51.8894529  50.0858927
  21.6041946  50.0146914  49.3396711  22.0338869  48.9516258  48.7706614
  22.9713106  48.9655638  48.3949709  21.3820434  48.2639790  48.4208870
  20.2698421  49.9075699  49.4835186  19.6796155  50.6754827  49.7699451
  19.8935115  49.0447140  49.1175175  24.4288278  55.4304504  47.8081369
  23.6434317  55.7657290  46.9341230  24.9595213  56.3685036  48.5718203
  25.4971743  56.0895872  49.3800545  24.6130919  57.7503204  48.5515070
  23.5496116  57.8835821  48.3531380  25.0087047  58.1928301  49.4657135
  25.2798843  58.6120653  47.4459219  24.8225451  59.7602463  47.2291279
  26.3082790  58.1639004  46.6503429  26.5665793  57.1875000  46.6445398
  26.9561863  58.9558983  45.6261683  27.1303821  59.9296427  46.0839653
  28.2511258  58.3455229  45.1660967  28.3166623  57.2590637  45.2245092
  28.2772613  58.5633278  44.0983963  29.5192075  58.9804935  45.7651663
  29.2991138  59.1552448  46.8183184  30.6439066  57.9677200  45.7702160
  30.8539295  57.6088142  44.7626543  31.6234446  58.2700300  46.1406422
  30.3924751  57.2319937  46.5341425  29.9174380  60.3363752  45.1177979
  28.9636970  60.8318949  44.9362946  30.5287910  61.0528231  45.6664753
  30.3446031  60.2216864  44.1215658  26.0180545  59.1774035  44.4506884
  25.7409692  58.2413578  43.6978626  25.5417657  60.4258871  44.2649221
  25.8930850  61.1030436  44.9268436  24.8666906  61.0143137  43.1076288
  23.8450217  60.6346989  43.1215668  24.8442101  62.5705576  43.2579136
  25.7909751  62.9007149  43.6853838  24.6918130  63.0740070  42.3032331
  23.8101077  62.9254627  44.3300343  22.8208375  62.6733351  43.9480972
  23.9521432  62.2701025  45.1893568  23.8217664  64.4191122  44.8087358
  23.0868697  64.5789909  45.5976963  24.7906733  64.6211576  45.2653599
  23.6835504  65.3594589  43.7146711  24.2003965  65.0360966  42.9094315
  23.0763555  66.5596771  43.5764170  22.5079894  67.0900631  44.5481396
  22.5982022  66.5941191  45.4233551  22.1651244  68.0297756  44.4085455
  23.1366158  67.1818590  42.4540901  23.7148190  66.7196703  41.7669439
  22.5454521  67.9923105  42.3366451  25.5523157  60.6204510  41.7641068
  26.7617369  60.5565453  41.7483711  24.7894430  60.3743267  40.7120275
  23.8009381  60.5166531  40.8626938  25.2266645  59.9848557  39.3893647
  25.6411338  58.9787054  39.4524956  23.9661455  60.0574160  38.4865594
  23.1984806  59.5858240  39.1000676  23.6930680  61.0965824  38.3030987
  24.0375018  59.3825006  37.1790218  24.5501018  58.0530071  37.0697594
  24.9513102  57.5270891  37.9234838  24.7182202  57.4435425  35.8192182
  25.2194691  56.4995384  35.6642866  24.2631674  58.1065750  34.6775985
  24.3262792  57.6638651  33.6945271  23.6893559  59.3601179  34.7700286
  23.3614206  59.9908686  33.9569974  23.5566330  60.0039721  36.0142541
  23.0366492  60.9476805  36.0879517  26.3656354  60.8254242  38.8377261
  27.3657131  60.2701664  38.3829641  26.2941170  62.1643972  38.9305162
  25.3961301  62.5799513  39.1330767  27.2191668  63.0864048  38.2480931
  27.5525570  62.6500845  37.3065090  26.4481544  64.3600702  37.8190875
  26.9281244  64.8480606  36.9707966  25.5134010  63.8914871  37.5112462
  26.1775517  65.3307676  38.9411831  27.0574379  65.4375315  39.5756149
  25.9129906  66.2638807  38.4437823  25.0234532  64.9750137  39.9254322
  24.9150395  65.6643009  40.8939981  24.2277527  63.9778614  39.8261595
  28.5057616  63.3716583  38.9663839  29.3768859  64.0589762  38.5283113
  28.6647940  62.8615427  40.1719093  28.0493689  62.0868111  40.3747606
  29.4358516  63.2676411  41.3531685  29.8325157  64.2508364  41.0999966
  28.6049461  63.4717751  42.6680422  27.7441406  64.1316271  42.5598240
  28.1879401  62.5250578  43.0114508  29.2988825  64.0120983  43.9552307
  28.4254503  64.0580750  44.6056986  30.0032449  63.2842398  44.3579674
  29.9514151  65.4243946  43.7851667  29.8255563  66.3042831  44.6701574
  30.6308270  65.6993628  42.7599812  30.7097101  62.5255489  41.5735912
  30.6372571  61.3031483  41.6907167  31.8725324  63.1737709  41.7754936
  32.0677376  64.1181278  41.4751863  33.0773926  62.5156021  42.1531105
  33.3715892  61.7495346  41.4356947  34.1408634  63.5978556  42.0515203
  34.1325545  63.9953089  41.0366011  33.8888073  64.4418573  42.6935720
  35.1068711  63.1114817  42.1870661  32.8836489  61.9055796  43.5639572
  32.5596642  62.6024199  44.5504904  33.3512902  60.6622839  43.6767197
  33.5502076  59.6910334  42.5911617  34.5369434  59.8782063  42.1675825
  32.8804111  59.7390604  41.7325783  33.4566879  58.2859612  43.2821369
  33.9088225  57.4379015  42.7678728  32.4238443  57.9376459  43.2854271
  33.9791417  58.4906578  44.7327042  35.0437164  58.2785559  44.8316669
  33.4002662  57.8243399  45.3722572  33.6796498  60.0550413  44.9919415
  32.8304172  60.1578665  45.6674671  34.9164677  60.7741737  45.6255913
  35.8582950  61.0722685  44.8934031  34.9134469  60.9709740  46.9399214
  34.0934634  60.8535671  47.5178003  36.0194874  61.6301775  47.5838804
  36.4882970  62.3184729  46.8806267  35.4750896  62.4890137  48.6931038
  34.6960378  63.1025076  48.2405472  34.9750948  61.8608093  49.4303036
  36.5088797  63.3560085  49.3266869  36.0063219  64.0323257  50.2588463
  37.7138591  63.4588337  48.9366579  37.1169877  60.6480408  48.0077124
  37.1617484  60.1904917  49.1409731  38.0253386  60.2854633  47.0980120
  38.1067038  60.8573771  46.2695265  38.9718390  59.2447901  47.3336649
  38.5138583  58.2868719  47.5801468  39.8713923  59.0206814  46.0810471
  40.6074381  59.8236370  46.0410595  40.3937197  58.0656195  46.1371326
  39.0315604  59.1252232  44.7478342  38.1929398  58.0426216  44.4774437
  38.0921507  57.1793318  45.1185131  37.4494076  58.0819893  43.2968807
  36.8656754  57.2273970  42.9881239  37.4783659  59.1503191  42.4108982
  36.7358017  59.2530870  41.2738848  36.5545750  58.4325314  40.8097219
  38.2619262  60.2369690  42.8146076  38.2265854  61.1205482  42.1945810
  39.1018677  60.2456617  43.9299583  39.6072698  61.1422825  44.2571259
  39.8540473  59.5042038  48.5354853  40.0650024  58.5169697  49.2492390
  40.2081871  60.7399130  48.7294579  39.8489809  61.3562870  48.0145073
  41.0276556  61.2130785  49.8566246  41.9895840  60.7015657  49.8227358
  41.3083887  62.7056170  49.8486710  41.8983412  62.9898596  48.9773130
  40.3869009  63.2865715  49.8866987  42.0652294  63.3354616  51.0285568
  41.4680386  63.2303381  51.9343233  42.9754925  62.7430201  51.1209679
  42.5132322  65.1110792  50.7621288  41.0442638  66.0334873  51.0821104
  41.1413002  66.8922329  50.4178476  40.1742601  65.5046177  50.6928873
  40.9020853  66.4537334  52.0777369  40.4531288  60.8047915  51.2377930
  41.0448408  60.1362562  52.0713663  39.1842270  61.1998272  51.3819504
  38.8190413  61.7784071  50.6389952  38.3652186  60.9133244  52.5021791
  38.7402606  61.3648701  53.4206295  37.0423675  61.6146755  52.1820498
  37.2581625  62.6830006  52.1673822  36.7904496  61.3244152  51.1620522
  35.8450699  61.2797499  53.0718040  35.8598638  61.5404749  54.4332647
  36.7967033  61.8590117  54.8660135  34.7089887  61.1801147  55.2082300
  34.6764421  61.3810015  56.2688875  33.5787964  60.5522156  54.6590471
  32.4724436  60.2781916  55.4140472  32.5791311  60.5262947  56.3352776
  33.6666059  60.1104832  53.3411598  32.8396034  59.5620584  52.9148865
  34.8106933  60.4755354  52.5480509  34.7703457  60.1076031  51.5334511
  38.0873466  59.3604517  52.7735519  38.2440257  58.8961887  53.9125490
  37.7913857  58.5821486  51.6880655  37.6109934  59.1100407  50.8461094
  37.6695800  57.1484518  51.8761778  36.8694592  57.0181179  52.6048183
  37.1654010  56.3807726  50.6415844  37.9843688  56.3907194  49.9223566
  36.9444370  55.3501558  50.9192657  35.9846354  57.0239162  49.8977232
  36.2310910  58.0851221  49.9323702  35.8085370  56.4274406  48.4597683
  34.9694109  56.9286680  47.9773378  36.6430593  56.6472530  47.7939177
  35.6178355  55.3550100  48.4194469  34.6378207  56.8850756  50.6512880
  34.3211746  55.8478260  50.5419731  34.7046471  57.1553993  51.7051220
  33.9186907  57.5022936  50.1127720  38.9509106  56.4299059  52.3519135
  38.7919712  55.5235767  53.2103014  40.1028728  56.7801762  51.7999744
  40.0575876  57.4706173  51.0642099  41.4225674  56.4448690  52.3576403
  41.4749050  55.3574228  52.4107122  42.5102234  56.9860744  51.4906979
  42.4396420  58.0737782  51.4871645  43.4600306  56.8117380  51.9962406
  42.5674486  56.3759470  50.0609064  42.8590059  55.3256893  50.0687742
  41.5287828  56.4435434  49.7373247  43.4292030  57.1582365  49.0205717
  43.0598450  56.8965578  48.0290079  43.2145548  58.2083416  49.2188215
  44.8287010  56.8373013  49.1940641  45.1886415  56.1078453  49.7927666
  45.7607698  57.0920944  48.2950592  45.5304480  57.9804993  47.3722887
  44.6102238  58.3894444  47.4500513  46.2427473  58.3758974  46.7753029
  46.9464827  56.6658735  48.3915377  47.1937752  55.8844280  48.9816999
  47.5360298  56.9854593  47.6362896  41.5782928  56.9291878  53.8339567
  42.1152306  56.1879730  54.6732855  41.0121155  58.0561590  54.1486454
  40.6802464  58.6878729  53.4338713  41.2347984  58.6611652  55.4826069
  42.2344160  58.5828733  55.9100819  40.7995272  60.2029324  55.5063868
  41.4480066  60.6983423  54.7837877  39.7517705  60.2831650  55.2167892
  41.1633825  60.7713079  56.9368839  40.8508396  61.8087101  56.8176889
  40.5758762  60.3955460  57.7745867  42.6940107  60.6965876  57.2577381
  43.5881138  60.3707695  56.4515686  42.9569435  61.1071062  58.4449291
  43.9231825  61.1074877  58.7390184  42.1827984  61.3009691  59.0639782
  40.4591608  57.9838371  56.6422415  41.0440540  57.6723671  57.7299213
  39.1848326  57.6284742  56.3774300  38.7171149  57.9456615  55.5403280
  38.4963870  56.6374493  57.2628784  38.3365464  57.1119261  58.2310820
  37.1903276  56.2292194  56.5660238  37.4515390  55.6312132  55.6929493
  36.6978264  55.4687977  57.1720791  36.1511064  57.3159695  56.2850094
  36.5289950  58.2102346  55.7894373  35.1068592  56.6895390  55.3786516
  34.2270398  57.3163748  55.2334118  35.5457687  56.6649103  54.3812275
  34.7170305  55.7546473  55.7812691  35.3585196  57.8152514  57.4747181
  35.9675646  58.2071877  58.2893038  34.6623135  58.5837650  57.1388865
  34.7778916  56.9934177  57.8937149  39.3484139  55.3505421  57.5418901
  39.5141387  54.8892450  58.6810732  39.8829460  54.7039986  56.4625168
  39.8079205  55.2094316  55.5913067  40.5897188  53.4227991  56.5207386
  40.0326920  52.7271509  57.1483517  40.6899548  52.7673435  55.0619602
  41.1628437  53.5454702  54.4627953  41.3544893  51.9124079  55.1867914
  39.3510532  52.2698307  54.4421482  39.3362236  51.9767237  53.1000376
  40.3114319  51.9954348  52.6363373  38.1514931  51.7182016  52.4222660
  38.1075573  51.5184069  51.3618183  36.9939160  51.6443348  53.1299877
  36.0129523  51.5706062  52.6842594  36.9910359  51.9620323  54.5641899
  36.0075068  51.9679642  55.0103235  38.2060242  52.1495485  55.2317762
  38.1574440  52.2991467  56.3002634  41.9210386  53.7047768  57.3060894
  42.3877954  52.8281021  58.0471802  42.6264763  54.8564339  57.1135473
  42.3372555  55.3647232  56.2900829  43.9380932  55.2753019  57.6994610
  44.6414852  54.4544315  57.5597858  44.4688845  56.4235783  56.8958902
  43.7033224  57.1549797  56.6369247  45.3418922  56.8386459  57.3995590
  45.1630259  55.8513832  55.6105042  46.0430336  55.2743196  55.8945465
  44.5120335  55.1349163  55.1095104  45.6056881  56.9370079  54.6367741
  44.7147799  57.4528551  54.2785931  46.1640358  57.7193499  55.1508665
  46.3472509  56.5339851  53.4667730  45.8045053  55.9398699  52.8564024
  47.5528860  56.7978573  53.1323671  48.4399319  57.4183702  53.8227606
  48.2367563  57.6192284  54.7915077  49.3835831  57.5700045  53.4962416
  47.9207897  56.3629627  51.9396734  47.2659731  55.8104229  51.4048672
  48.8214684  56.6322374  51.5703964  43.7914562  55.6349993  59.1981220
  44.6846485  55.3600883  59.9408150  42.6347589  56.1563206  59.5903873
  42.1657133  56.4869976  58.7592745  42.1811247  56.4562511  60.9449863
  42.9706240  56.9118547  61.5426636  40.9285879  57.4124384  60.9713507
  40.2600384  57.1265554  60.1593065  40.1908684  57.4285603  62.2337103
  40.7989454  57.5944662  63.1229830  39.4697070  58.2439899  62.1780252
  39.6657944  56.4887381  62.4043846  41.4086819  58.8365698  60.6101465
  41.8666077  58.9202356  59.6245480  40.5267191  59.4639444  60.4811382
  42.2352648  59.5043087  61.6879845  41.7761660  59.4206572  62.6730394
  43.2138920  59.0351963  61.7896128  42.3038149  60.5602074  61.4263201
  41.9605970  55.2092361  61.7568541  42.3780680  55.1557112  62.9144812
  41.1837292  54.2995262  61.1402225  40.8622599  54.4714928  60.1983166
  41.1122036  52.9842997  61.7349863  40.7956219  53.1534815  62.7641821
  40.1078653  52.2061491  60.8891487  39.1158271  52.6493454  60.8023024
  40.5469561  52.1249580  59.8948097  39.8409796  50.7307434  61.1882734
  40.7859898  50.1921034  61.1180830  39.1015935  50.4489803  62.5334454
  38.2272124  51.0962677  62.6011181  38.9065909  49.3766356  62.5458193
  39.6599317  50.6936073  63.4370565  38.8748693  50.1755762  60.1289129
  37.8596807  50.1084566  60.5200577  38.7528276  50.8131123  59.2532682
  39.2550421  49.1980886  59.8321152  42.4894238  52.2736597  61.8448448
  42.7790737  51.6870594  62.8523874  43.4437799  52.4569702  60.9168291
  43.1877375  52.9682159  60.0842571  44.8486185  51.8401957  60.9609842
  44.6362114  50.7713985  60.9866238  45.4909801  52.1323347  59.6415138
  44.6454525  52.0312357  58.9610958  45.8480406  53.1611538  59.6877813
  46.5518332  51.1018419  59.1611195  46.2020922  49.7967863  58.7122202
  45.1904345  49.4229031  58.6559916  47.2282362  49.0038633  58.1242657
  46.9339466  48.0690336  57.6705217  48.4985018  49.4832277  57.8558064
  49.2755938  48.8668060  57.4285507  48.8837719  50.7501364  58.4083462
  49.8494577  51.1235762  58.1011057  47.8690290  51.5653706  58.9640570
  48.1798077  52.5680828  59.2178011  45.6175375  52.2686911  62.1925306
  46.1668444  51.4443302  62.8960657  45.6054831  53.6156797  62.4255037
  45.1237869  54.2415953  61.7959833  46.3138819  54.2811155  63.5061312
  47.3275232  53.8803434  63.5098219  46.2828779  55.7605267  63.2279062
  46.4194775  55.9205961  62.1584129  45.2451277  55.9885120  63.4712124
  47.2592354  56.4278841  64.0771246  47.2131634  56.0391903  65.0944233
  48.2262278  56.1709452  63.6446667  47.1194792  57.9642582  64.1264105
  47.9216337  58.3900213  64.7292137  47.2733736  58.3095074  63.1040478
  45.7575083  58.3684063  64.5449400  45.1574135  57.6657200  64.9526358
  45.2141285  59.6193409  64.6130180  45.6791115  60.7737637  64.2163897
  46.6068077  60.6838989  63.8272858  45.2468014  61.6854668  64.1716480
  43.9928055  59.6541309  65.1753998  43.6555624  58.8845825  65.7359123
  43.5110474  60.5344009  65.0608301  45.6254387  53.8873863  64.8546219
  46.2804699  53.5778666  65.8625031  44.2813921  53.8285637  64.8585749
  43.8153124  54.1893435  64.0383863  43.4406376  53.2207584  65.9603214
  43.6213064  53.7446070  66.8989611  41.9514465  53.3480597  65.6219196
  41.7852306  52.9517508  64.6202183  40.9573555  52.6510143  66.5318060
  41.1097956  51.5717268  66.5351725  41.1154699  52.8850651  67.5845766
  39.9203849  52.8363562  66.2517357  41.5770960  54.7316694  65.5210686
  41.6301441  54.9712420  64.5929575  43.7651634  51.7778254  66.3531590
  43.9206409  51.4900780  67.5150490  43.9476156  50.9301424  65.3682423
  43.7122202  51.2070608  64.4259024  44.2953396  49.4782543  65.5654478
  43.8554621  49.1131258  66.4935017  43.7661886  48.5976267  64.4155312
  44.2950821  48.9671659  63.5370016  44.0540409  47.5613785  64.5928240
  42.2087765  48.6076641  64.3202591  41.7597675  49.5981073  64.3945837
  41.7557096  47.8388214  63.0743361  41.9488382  46.7772388  63.2287550
  40.6918049  47.8979540  62.8447628  42.3083305  48.2356691  62.2227335
  41.6059542  47.7129221  65.4247952  41.6767216  48.2065010  66.3940573
  40.5508423  47.5130177  65.2380228  42.0504379  46.7227983  65.5257607
  45.7784367  49.2190504  65.9616327  46.1914873  48.0939674  66.2632418
  46.6001940  50.2526283  65.9087896  46.1907053  51.0932875  65.5270624
  47.9736042  50.3647566  66.2371969  48.2697010  51.4109516  66.1603689
  48.2580137  49.8573780  67.6637125  48.1271982  48.7814331  67.7791739
  49.3365145  49.9132013  67.8114605  47.5031900  50.4516315  68.8713217
  46.8559933  51.5119267  68.8652611  47.4610758  49.7302246  69.8985434
  46.7394161  49.9529076  70.5691528  48.0711365  48.9279652  69.9641514
  48.8460398  49.6754456  65.1137590  49.9654627  49.1938877  65.3837395
  48.3078146  49.7118568  63.8949490  47.4609613  50.2168846  63.6761236
  48.9380121  49.1132784  62.7549839  49.5040607  48.2508945  63.1070900
  47.9911566  48.6403179  61.6554832  47.3847198  49.4740009  61.3014889
  48.6292315  48.2691622  60.8534813  47.0506048  47.5103998  62.0231438
  47.4108410  46.2703800  62.6276255  46.2510729  45.6741190  62.7885389
  46.1614990  44.6960783  63.2377768  45.1907063  46.3545322  62.2113419
  44.2612457  45.9653568  62.1424723  45.6836700  47.5600624  61.7624474
  45.2091932  48.4273767  61.3276577  49.9249172  50.0995207  62.0933867
  49.9109650  51.2713718  62.4153709  50.7272005  49.6652460  61.1895132
  50.5555105  48.7106657  60.9077454  51.8903875  50.3151274  60.5647373
  51.5651035  51.3122082  60.2678919  53.0310392  50.3834772  61.5132713
  53.7669849  51.1289740  61.2120724  52.7215338  50.7252359  62.5009489
  53.8180780  49.0620470  61.7800426  54.1685867  48.5797548  60.8675528
  54.6499586  49.2219019  62.4659872  53.0517960  47.9307604  62.3905468
  52.2314644  48.1391382  63.2261753  53.2441998  46.7054605  61.9191360
  52.7703142  45.9358788  62.3699999  53.9375544  46.5990734  61.1924791
  52.0949364  49.5146132  59.2261267  51.9037008  48.2879066  59.1754055
  52.2404337  50.2358389  58.1003284  52.2599649  51.2445784  58.1469202
  52.3261786  49.7926044  56.6840410  51.5538359  49.0323877  56.5671682
  52.0788193  51.0869408  55.8661270  51.3877630  51.6908884  56.4541674
  53.0140877  51.6281891  55.7232237  51.4879036  50.8319092  54.5512152
  52.2431660  50.2330875  53.5063314  53.2615948  49.9682760  53.7493944
  51.6229439  49.7995424  52.3328352  52.1244526  49.1651917  51.6169548
  50.2047443  49.9691105  52.2534275  49.6649647  49.5290089  51.0775852
  48.7776661  49.1664457  51.1310530  49.4441175  50.6801128  53.2216930
  48.3653307  50.7249546  53.1969452  50.0922728  51.0531425  54.4469309
  49.6290112  51.2856674  55.3944159  53.6917639  49.1964340  56.4284563
  54.5481539  49.6704435  55.6737471  53.7945700  47.9379988  56.9062901
  52.9706573  47.5265169  57.3209620  55.0742817  47.1778727  56.8452215
  55.9105730  47.8430462  56.6301250  55.3958941  46.5757990  58.2388353
  56.3559341  46.0630941  58.2984591  55.4498100  47.3671103  58.9865065
  54.3474913  45.6000328  58.7219095  53.5814476  45.0787449  57.9401016
  54.4951677  45.2290535  59.8812437  55.1013708  46.1024380  55.7089043
  56.0208654  45.3100109  55.6082869  54.0115738  45.9746885  54.9810410
  53.2750607  46.6170168  55.2361202  53.7499666  45.0750351  53.8760185
  52.7850485  45.3053045  53.4243345  54.7333527  45.2511501  52.7232742
  55.6236267  44.7214079  53.0622244  54.3554783  44.7057962  51.8584585
  55.0867605  46.6044044  52.2982550  54.2443800  47.2743797  51.3164616
  53.3167076  46.7862701  51.0565138  54.5930004  48.5447693  50.7657003
  53.9281034  49.1246271  50.1427364  55.8009052  49.2160749  51.1611509
  56.1337233  50.3300524  50.4779291  57.0576572  50.5749846  50.5671024
  56.6405869  48.5688210  52.1501875  57.6483679  48.8802385  52.3821306
  56.2559080  47.2804070  52.6007366  56.8835115  46.8171740  53.3476830
  53.5805130  43.6347580  54.3677616  53.7696791  42.7173805  53.5289764
  53.1338215  43.2859182  55.5528355  52.9871273  44.0402222  56.2082815
  53.1519175  41.8771601  56.1605358  53.9304638  41.3605642  55.5992031
  53.4564209  41.8888235  57.7025557  52.6336479  42.3903751  58.2120657
  53.6325836  40.5005550  58.3607483  52.6236677  40.1237154  58.5286379
  54.1379833  39.7804904  57.7171803  54.2119932  40.5368853  59.2832804
  54.7485209  42.5608635  57.9159069  54.4987917  43.4791946  58.0420208
  51.8436813  41.1896706  55.7725382  51.1222267  40.6361008  56.5729618
  51.5172100  41.1803532  54.5217419  52.1913099  41.4805079  53.8320971
  50.2267122  40.5892420  54.0052795  49.3944502  41.1127424  54.4758081
  50.1483059  40.6786060  52.4149513  50.7579422  39.8488331  52.0572853
  49.1635227  40.4501772  52.0073652  50.2534056  41.9641829  51.6402149
  49.2456913  42.9480839  51.8700218  48.4138441  42.7154160  52.5183249
  49.1591072  44.1138744  51.0456753  48.2678652  44.7232676  51.0728168
  50.2489471  44.3653202  50.2287531  50.2799797  45.1988220  49.5426655
  51.3310528  43.4905529  50.1666212  52.1847391  43.6355543  49.5211792
  51.3541794  42.2931671  50.8309412  52.2363186  41.7002058  50.6395626
  50.2320814  39.0765214  54.4969654  51.2652588  38.4290743  54.4661283
  49.0942717  38.4988952  54.7945547  48.2369757  39.0155339  54.6595526
  48.9888382  37.0178390  55.2001286  49.3958187  36.8419981  56.1958885
  47.5153208  36.6554880  55.1494360  47.0254421  36.8137646  54.1886711
  47.4312925  35.5687523  55.1428080  46.6174173  37.2617149  56.2989616
  46.2195063  38.4694314  56.2288427  46.4127588  36.5256381  57.3084831
  49.6241951  35.9232688  54.2830610  50.1778793  34.9161053  54.7443438
  49.4847870  36.1734438  52.9832458  48.9549160  36.9324040  52.5791073
  50.0414276  35.2342916  51.9984865  49.6639872  34.2473841  52.2661686
  49.5717335  35.5400681  50.5828094  49.8290968  34.6553564  50.0004435
  48.4860039  35.5278134  50.4872036  49.8788977  36.8417621  50.0181770
  51.0211039  37.2176337  49.4279051  51.8466997  36.5252805  49.3541002
  51.0123920  38.4928560  48.9991426  51.8547869  38.9650249  48.7032938
  49.7843695  39.0834761  49.3067169  49.2404747  40.3097677  48.9634705
  49.9509287  41.0181189  48.5636044  47.9281855  40.5774355  49.3618202
  47.3693371  41.4814520  49.1698647  47.1418715  39.6552324  50.0276661
  46.0780096  39.7821403  50.1636791  47.7215624  38.4025288  50.3327179
  47.1067095  37.6435089  50.7934189  49.0459061  38.0561113  49.9597836
  51.5823221  35.2263784  52.0241833  52.1714687  34.3847680  51.3641310
  52.2298145  36.1838770  52.6938963  51.7230129  36.8612623  53.2456160
  53.6735058  36.3522148  52.6420546  54.0261936  36.0009885  51.6723347
  54.2244053  37.7811170  52.7478170  55.3113508  37.7641273  52.6680708
  53.7083435  38.6689782  51.6057110  53.6551809  39.7267222  51.8635035
  54.3077898  38.5075998  50.7097626  52.6833057  38.4111667  51.3393879
  53.9569044  38.3889890  53.9389229  53.0391312  38.1449413  54.0794373
  54.3839359  35.6154943  53.7695503  55.5684137  35.4772496  53.6487436
  53.6931801  34.9841189  54.7560930  52.7187681  35.2438045  54.8125696
  54.3370104  34.0057945  55.6978941  55.3302050  33.6800504  55.3887701
  54.4213295  34.7296810  57.0651674  55.2020979  34.3424225  57.7197886
  54.7144175  35.7682276  56.9114733  53.2434940  34.7991085  57.9661655
  52.9596329  33.7573242  58.1152105  53.4714413  35.2405000  58.9363766
  51.8123913  35.6621361  57.2688818  52.5078201  37.3733020  57.1578407
  51.7496824  38.0731082  56.8062687  52.8262043  37.6940942  58.1497240
  53.2804966  37.4801040  56.3964844  53.5641575  32.6210594  55.7840538
  54.0211916  31.6054296  56.3520575  52.4097157  32.4742579  55.1227808
  51.9503832  33.3121514  54.7956038  51.8392754  31.1570716  54.7729921
  51.8560362  30.5624437  55.6863594  50.3318882  31.3048673  54.1888237
  49.7811222  31.8505120  54.9549961  50.3613520  31.9696379  53.3255053
  49.6439934  29.9896288  53.8412619  50.2002478  29.4110465  53.1037474
  49.2668581  28.9745784  54.9032307  50.1425838  28.3839250  55.1721811
  48.8555479  29.4590521  55.7887888  48.5651827  28.2174969  54.5531178
  48.2583952  30.2802181  53.2214975  47.5879955  30.7174063  53.9614487
  48.5076904  30.9410238  52.3912573  47.9652309  29.3180037  52.8016090
  52.7180243  30.4632735  53.7588453  53.2656384  31.0933256  52.8370237
  52.8441143  29.1368175  53.8687468  52.3755884  28.6792541  54.6376514
  53.5878181  28.2038808  53.0263615  53.6305666  28.4041619  51.9557762
  55.0636339  28.0707717  53.6217260  54.8950100  27.7234936  54.6410704
  55.5766439  27.3075199  53.0366087  56.0472250  29.2423415  53.6803722
  55.6230021  30.0271511  54.3066406  56.9290018  28.7712288  54.1146755
  56.3501072  29.7488523  52.2777939  56.9091177  28.9268279  51.8307114
  55.4168558  29.8665667  51.7270756  57.1389055  30.9954858  52.2180414
  56.5866518  31.6064548  52.9320669  58.0840015  30.7221794  52.6872921
  57.2826195  31.6006303  50.8676720  57.6514626  30.9699440  50.1703262
  56.4067221  32.0095682  50.5749655  57.9511976  32.3400497  51.0300350
  52.8853464  26.9107437  53.0321264  52.3326111  26.4702034  54.0585804
  52.9697847  26.1965132  51.8785143  53.7459803  26.4255953  51.2742424
  52.3703003  24.9235368  51.6180849  52.2726440  24.4416142  52.5908756
  51.0163546  25.0996733  51.0064363  51.0574579  25.6159997  50.0473642
  50.5748987  24.1142488  50.8575869  50.1057100  25.8619714  51.8698883
  49.9144888  25.4029083  52.8398323  50.3559542  26.9179535  51.9717693
  48.7314987  25.9948564  51.2178087  48.4440708  25.4672837  50.1487684
  47.7915907  26.7741275  51.7513704  46.9276381  26.6793633  51.2368727
  47.9572773  27.1190739  52.6860714  53.3760357  24.1063786  50.6882286
  53.4427881  22.8801918  50.8616066  53.9911842  24.6669602  49.7816563
  35.8130670  35.4325843   1.9858937  31.5175200  27.8997588  45.4166603
  41.6610146  53.5192537   4.0262523  76.3213730  18.0426347  26.8119669
  66.6699266  63.9870071  50.8153391  63.4125137   5.1593614   7.5196868
  59.2949629  19.5151103  20.9345365  25.7297897  25.4042625  13.6049020
  66.8753910  51.8686342  27.9159236  14.7682178  24.7510624  25.3022218
  34.4351411  21.9310522  16.7126477  57.9582214   8.2094967  34.7327900
  57.3025560  62.4968910  56.7343855  35.3842998  24.5242953  56.8250084
  48.6082649  12.0378458  37.6539159  49.4624090  11.7792845  37.3077822
  48.7182522  12.0153201  38.6045098  33.6906266  28.3193421  59.2152309
  34.6230698  28.1042671  59.2381525  33.2528210  27.4753976  59.1042519
  49.1458321  23.4280157  35.9584332  48.5110998  23.1676936  36.6259503
  48.8550997  22.9802942  35.1639199  17.0092583  24.1234803  10.8623004
  16.8779659  25.0653338  10.7531893  16.3832700  23.7229180  10.2590430
  35.7930350  28.4356642  19.1545343  34.9108720  28.7755942  19.3044305
  35.9271812  27.7995515  19.8570979   3.8291672  61.9433355  63.5162163
   2.9827979  61.9234133  63.0695677   4.4075784  62.4095869  62.9126549
  50.8335304   8.8972044  42.5144720  51.2944078   9.7292799  42.6215744
  51.3460398   8.2718521  43.0268192  53.6681128  56.7278862  44.8821926
  54.5878506  56.5921354  44.6544170  53.1933117  56.5685177  44.0664721
  33.7494516  72.9573298  13.6382699  33.5268879  73.3119583  12.7774942
  33.7681055  73.7213755  14.2145681  49.4779301  17.5197423  48.6592007
  49.3523169  18.1742287  47.9721022  50.4022694  17.2795117  48.5950518
  60.8791351  68.8379526  31.4905405  60.1918745  68.8113594  30.8248067
  60.4183149  69.0505028  32.3021436  16.9415879   5.4502112  36.5964222
  16.4150417   5.6421286  35.8204412  17.2867703   4.5711845  36.4402413
  22.8575373  21.2819219  12.6306748  22.4133635  22.1256471  12.5465822
  23.6420465  21.4743853  13.1442261   0.4571613  49.6298742   4.1621092
  -0.2504721  49.2774916   3.6223754   0.3594454  49.1862249   5.0046408
  18.6203539  59.8534060  22.9026771  18.7603652  60.7429218  22.5780416
  17.6842773  59.6973658  22.7776074  62.7511024   2.7852488  31.0975647
  62.1672773   3.1510204  30.4330420  62.8439045   3.4836969  31.7454767
  70.2507639  59.2687845  10.0399721  69.4376230  59.7598505   9.9221355
  70.0188208  58.5625648  10.6430376  37.6987982  33.0866933   2.1770580
  37.0872808  33.8207626   2.2355130  38.2749629  33.1940866   2.9338503
  76.0115290  31.2870193   9.0744185  76.0876513  30.4077721   9.4450384
  75.2907085  31.6895390   9.5588082  12.5956392  47.1458149  24.3215895
  12.1936333  47.3569059  25.1642418  13.0095375  47.9624987  24.0423942
  17.8757715  46.6612816  20.4720140  18.2205546  47.3627758  21.0245156
  17.1079481  46.3396978  20.9445214  54.0811586  13.2605541  28.8976622
  53.8459253  12.3948896  29.2316079  53.2571363  13.7475812  28.8931727
  76.3879728  59.3666363  17.5694692  75.7191086  59.1840744  18.2294118
  77.2127438  59.1258764  17.9913926  20.7217145  24.2168188  31.3075805
  20.0873566  24.8522520  31.6393137  21.1425447  24.6605635  30.5712223
  31.3551497   9.4524425   3.6047933  30.4806614   9.8409808   3.5815436
  31.7185450   9.6283489   2.7369037  76.2990332  10.5347133  40.8892298
  76.1615896   9.7374511  40.3776503  76.6218328  11.1740887  40.2542257
  45.6042576  14.2889583  58.3514547  46.2917805  13.9623106  57.7710724
  45.0989914  13.5105538  58.5860252  43.1132746  13.6538434  22.1893358
  42.5565434  13.7033331  22.9664016  43.7882710  13.0150557  22.4185896
  12.3087037   1.0244547  18.0641150  12.3593318   0.7111987  17.1610427
  12.4342191   1.9709910  17.9966867  67.9742193  72.2691965   6.1964774
  67.4864244  71.7860365   5.5295110  68.4808636  71.5990067   6.6551650
   9.6583802  61.0608674  -0.0222733   9.7697360  60.3421331  -0.6445696
   9.6307618  60.6341124   0.8340881  15.7899249  17.9461932   4.6818593
  16.1880887  17.0831287   4.7950736  15.6770217  18.2766497   5.5730844
  69.6344709  51.1514568  25.9654903  69.5047903  50.2096128  25.8543825
  68.8128233  51.4632559  26.3448405  38.6102104   8.5907251  64.8943472
  38.7531304   9.2180955  64.1856813  38.2000709   9.1045690  65.5900383
  52.5948858  71.4352179  33.5199070  53.5489178  71.4689445  33.5900402
  52.3192310  70.8950853  34.2605162  50.1908731  34.9626136   6.8095499
  49.9878788  35.2631116   5.9237027  50.5053997  35.7454014   7.2618186
  78.5139894  37.6952577  33.6510444  77.6251745  37.9793406  33.4376526
  78.4978676  36.7460251  33.5288715  50.7357121  54.3374538   4.2553121
  50.5194664  53.4199905   4.0887904  50.4535580  54.4901562   5.1571459
  54.7735786   9.2204458  48.1187296  54.2925119   8.5080594  47.6976490
  55.6304312   9.2158192  47.6920986   9.4156467  75.0144956  31.5696311
   9.4941532  74.0675720  31.4538550   9.3314850  75.1339688  32.5156093
  73.3824778  71.9548512   3.6198696  73.0817032  71.3891506   2.9087067
  73.0309153  72.8185558   3.4038919  58.0961514  59.2532682   1.9760640
  58.6145306  58.6284828   1.4689510  57.4156141  59.5471144   1.3704649
  64.1833496   0.8303881  58.6169529  64.1290855   1.7740411  58.4659386
  63.2716846   0.5415703  58.6579323  19.6858740  14.0144348  64.0081978
  19.4890738  14.6530187  63.3228445  20.3257751  13.4247041  63.6094809
   1.4665678  69.8190451  47.9669857   1.9530481  69.0455484  48.2520628
   0.9991959  69.5323277  47.1823931   5.0029039  69.8218584  13.5708654
   5.6394482  69.1220617  13.4248233   5.2504534  70.1984024  14.4153571
  25.0064278  36.7303491  29.7373295  24.8418665  37.0150495  30.6362724
  25.7881379  37.2148442  29.4719553  12.2909236  68.8402224  50.1332331
  12.0011282  68.4272242  49.3197966  11.5327489  68.7821960  50.7146454
  46.7764235  64.4670725  50.8988142  46.2300634  65.0691175  51.4040518
  46.3583994  64.4288349  50.0385666  47.6690531  67.6592922  12.1372879
  47.9857397  67.2552633  11.3293874  47.9605246  68.5692501  12.0802414
  51.4790392  20.2538276  60.1491690  51.2492132  20.7953000  59.3940401
  50.7744217  19.6083021  60.2043486  14.5013332  23.6462855  19.2942536
  13.7222147  24.1705537  19.4795895  14.7497547  23.8930941  18.4034097
  73.6066294  46.0213280  17.4704611  74.5166397  45.8775854  17.7301717
  73.3343410  46.7921352  17.9684091  52.0119047  61.5309238  18.5293758
  51.4504528  60.8248806  18.2092130  52.8201818  61.4418745  18.0244052
  61.2479591   9.6181935  14.3162727  61.6607380   8.9485526  14.8616409
  60.3111267   9.5229846  14.4880605  41.3762760   9.0667623  62.0723200
  40.8535051   8.2685876  62.1488762  40.7538605   9.7767407  62.2296858
  14.9690843  68.6194468  55.9996319  14.8865902  68.1069994  55.1953745
  14.9924409  67.9659653  56.6986704  51.2369108  18.4310400   6.3633847
  50.9228086  18.9829731   5.6471854  50.4611206  17.9517710   6.6543841
   1.5070167   3.6868805  53.0679464   1.5063708   2.7818307  52.7563095
   1.6936487   3.6176726  54.0042210   0.4992155  72.5121927   8.0949402
   0.7452299  71.9027138   8.7908161   1.2530108  73.0960321   8.0103457
  12.0470166  13.3310199  47.8272295  12.1042013  12.3813832  47.7216244
  12.5901711  13.6835396  47.1222878  71.0152292  50.5744267   2.9789472
  70.8403397  50.7463789   2.0537025  71.6545343  49.8620415   2.9734966
   7.5556695   2.5237462  54.4639397   7.5330448   2.4107778  53.5136986
   7.8591961   1.6797690  54.7983170  26.5643501  15.4228425  30.2116776
  26.7099214  15.9708607  29.4404960  25.6149507  15.4281199  30.3334999
  20.8740044  45.3994703   6.4958882  19.9318337  45.5493307   6.5739363
  21.0555315  45.4976940   5.5612057  78.2444525  19.3346238  43.3266211
  77.7076769  20.1024890  43.1304407  77.6187849  18.6121333  43.3792830
  70.1803827  49.2161274  37.8977489  69.4725132  48.8619804  38.4360147
  70.1551723  48.6945677  37.0955157  59.3249989  49.3623638  20.7950711
  59.7055054  49.2173767  21.6613436  58.4838772  49.7842264  20.9704852
  25.7068491  66.3273430  57.4864769  25.6993508  65.5257797  58.0096102
  25.8357692  66.0253572  56.5873575  64.8758125  42.7663851   8.4473372
  64.6420527  42.0568037   7.8489375  64.2483854  43.4620142   8.2506812
  51.5673399   6.0808045  24.1246963  52.3013020   6.5342718  23.7100887
  50.8592892   6.1343557  23.4827995  45.3096485  19.8528266  54.6381664
  44.7970819  19.6503937  53.8555241  46.1994553  19.5755064  54.4200802
   0.5109110   5.8097094   2.2519997   0.7042894   4.9004909   2.0236182
   0.5273137   5.8249819   3.2089373  17.3574257  21.7802358  41.3109493
  17.6395464  20.9361458  41.6632938  18.0952668  22.0758200  40.7776070
  67.8963232  50.5135965  63.6575890  68.4210777  50.5107880  62.8570557
  67.4507618  51.3607311  63.6489391  62.2248697  44.0721798   4.2919889
  62.7403545  43.8839531   3.5077202  61.6132164  44.7556782   4.0182412
  41.6517305  19.5547032  31.1967826  42.5902176  19.5750177  31.0095167
  41.4559174  18.6286414  31.3392568  35.2225208  42.5646448  12.5913608
  34.3375683  42.2377062  12.7532351  35.7779646  42.0540953  13.1804729
  12.1651578  74.4509411   2.2882502  11.7463470  73.8474655   1.6745363
  13.0878747  74.4494009   2.0336451  49.3478537   6.7457700  64.0155935
  49.2145252   7.4601471  64.6385860  49.2856359   5.9510845  64.5455313
  56.2275219  69.0249395   6.8367785  56.0050297  68.1080341   6.9980675
  56.1523342  69.1263151   5.8879364  66.2710810  11.7697024  45.2711916
  65.3652859  11.9243288  45.5392551  66.2063599  11.4919615  44.3574619
  61.7994499  41.2611008  54.4280338  62.2585583  41.7292023  53.7306595
  62.2089720  40.3961086  54.4457674  76.4786571  74.4559082   1.6544560
  77.1163267  74.8847024   2.2251956  75.8870905  75.1587747   1.3856436
  48.6618185  39.5278025   1.5392429  48.5633278  39.1290212   0.6746593
  49.5599937  39.8585820   1.5495254  21.0400748  67.2604609   3.4272254
  21.7480302  66.8775511   2.9091400  21.4611530  67.9579830   3.9296082
  54.8002338  55.4558372  54.4485760  54.4188118  55.7639074  55.2706718
  54.6252012  56.1602211  53.8245296  58.3947515  50.1297712  33.0795956
  59.2472696  50.5632925  33.0407715  58.0048990  50.2906227  32.2203088
  55.6438017  40.8940649  18.6105812  55.7985115  39.9868321  18.3474648
  54.8406553  41.1425352  18.1529284  71.9346380  49.0573168  10.8444619
  72.1667624  49.4466782  10.0014031  71.2802505  48.3927059  10.6292808
  16.7419672  35.3942704   1.7504810  17.0592403  35.4412341   2.6523483
  15.7997990  35.2481508   1.8353336  28.0163097  75.3338003  52.9823208
  28.5908318  74.6469831  53.3206129  27.2794247  74.8607635  52.5957012
  69.6288872  64.3302631  42.9644251  70.1956511  65.0955725  43.0609226
  69.0934229  64.3272066  43.7578344   0.8959851  37.4171638   4.6559903
  -0.0377709  37.5204802   4.8394498   1.3194123  38.0991125   5.1774180
  25.8157730  71.5887833  18.3536255  25.5842638  70.6893110  18.5851121
  25.1659846  72.1271896  18.8054287  34.5284581  26.7329597   9.7304481
  34.8759604  26.2069798  10.4507399  33.8027668  27.2214675  10.1189899
  57.7609396  73.5140944  11.9616961  57.6034737  74.3340302  11.4935696
  58.1708956  72.9425478  11.3124633  72.9709768  48.3995438  55.2002430
  72.2263193  48.5552931  54.6193314  73.3409500  47.5700045  54.8982286
  55.2479029   3.5873929  54.4000578  54.8000908   4.4061756  54.1872358
  55.6221962   3.2960024  53.5686541   2.3197614  42.4283218  16.6723311
   2.9292741  42.9286718  17.2148943   2.4611606  42.7595568  15.7854700
  37.9567862  46.9894075  63.4856892  37.3868155  47.7010965  63.1943798
  38.6527991  47.4257803  63.9769888  48.6394691  10.7487309  42.9578686
  48.9778757   9.9260163  42.6045227  48.8081121  10.6928039  43.8984346
  43.8823748  47.2250986  10.9761012  43.3946896  47.8435135  10.4320824
  44.6685028  47.7044630  11.2377226  72.9202843  69.6562576  10.9319365
  72.8518248  69.7900677  11.8772614  72.8460217  70.5349636  10.5596554
  17.8150046  40.4134750  62.1810293  17.7290761  41.0314226  61.4550924
  18.1747699  40.9352112  62.8983831  67.1559477  55.9855890  33.1372476
  66.3103199  55.5532789  33.2566261  67.7602386  55.2747726  32.9232264
  60.3646564  72.2891140  31.9040394  59.7962284  71.7735481  32.4761534
  60.0394773  72.1126699  31.0212278  26.0712481  52.0672226  17.1118534
  26.5082359  51.2442160  16.8929338  26.5267730  52.7268124  16.5887153
  53.6210442  31.9731474  61.7206335  52.7475739  31.8585443  61.3462591
  53.8205862  31.1292005  62.1258068  44.4102907   6.6247761  11.3412738
  43.6727571   6.1958247  11.7751873  45.1438522   6.0222638  11.4641452
  62.3876762  74.2116070  31.5088892  61.8859959  74.9518633  31.1674690
  61.7313385  73.5364437  31.6809344  71.1817932  51.2082958  15.3286278
  71.2746477  52.1603107  15.3643727  70.5426455  51.0041904  16.0113156
   5.5809921  14.6108449   8.1523776   6.1070752  14.7837842   8.9331210
   6.1233515  14.9169397   7.4254769  77.8841257  50.8997726  29.9906492
  78.5402822  50.2475214  30.2361298  77.3042440  50.4395485  29.3838859
  11.5908659  55.0630903   0.8818373  11.0441804  54.4729519   1.4005938
  12.3397768  55.2541780   1.4465049  64.9803400  62.6072121  21.3867211
  64.5454741  61.7552185  21.3517261  64.3012190  63.2105398  21.6884232
  57.1578693   8.7569761  40.7898951  57.1283770   9.6806407  41.0393047
  56.4793491   8.6678165  40.1206493  40.1454449  28.7767649  58.6142302
  39.6156096  28.7924671  59.4112682  40.8456707  28.1524563  58.8043690
  17.1500885   1.9745544  16.4178050  16.8203342   1.0806721  16.5098310
  16.5490425   2.3890296  15.7987845   4.7496551   8.0267125  49.5302773
   5.0095588   8.0854130  50.4496431   5.2311248   7.2712749  49.1930342
  57.9094744  69.3114758  11.1224699  57.6476192  69.6194029  11.9901347
  58.4654760  68.5518026  11.2956440   6.5241945  66.3030338   0.6209474
   5.8369684  66.6278505   0.0391852   6.9943178  65.6541252   0.0973712
   3.9918387   0.5382933  14.2008293   4.2130882   0.1500671  15.0473285
   3.7888926   1.4518407  14.4020152  13.8596165  70.1849842  23.4782386
  13.5433757  69.3999910  23.0310130  13.4300220  70.9093237  23.0232501
  49.2079639  32.4699974   9.6721369  49.0194654  32.4279618  10.6096506
  49.2201710  33.4059644   9.4720137  78.1233025  32.4951410  11.8527496
  77.6188755  31.6978598  11.6910982  78.2555151  32.5068450  12.8007019
  36.4256716  50.4032564  15.3418398  35.6612158  50.7082653  15.8305192
  36.8351007  49.7566605  15.9167480  64.4344854  32.2324133   9.9310547
  65.1887035  32.6822042  10.3119409  64.7870255  31.4015961   9.6121693
  48.7276745  20.1714110  53.0702305  48.8128710  20.1933455  52.1170807
  48.7179995  19.2394662  53.2884455  26.1773443  72.0182562  45.2879715
  26.6902232  72.1856356  46.0786486  25.6921601  71.2163877  45.4824877
  76.3350296   4.5139682   3.3003587  76.7304754   4.2682385   4.1367030
  75.8175993   5.2940965   3.5001031  78.9559555  21.2162042  60.2310658
  78.0667496  20.8650494  60.1838541  79.3365860  21.0203385  59.3749189
  75.9590483  50.9534550   2.8265101  75.6039000  51.5670061   3.4696716
  75.2266026  50.7737207   2.2370633  79.7345495  52.6356363   8.0827987
  79.5368433  52.8253698   8.9999390  78.8980961  52.3568106   7.7101952
   3.2535803  61.9760418  13.3097351   2.7396202  62.0844555  12.5095320
   3.2183117  62.8328753  13.7349749  31.2261510   8.6775398  14.2673647
  31.6980648   9.4601583  13.9826965  31.4245415   8.0218118  13.5988641
   1.8175423   8.5695785  22.7497792   1.1013746   7.9522669  22.6005745
   1.5192604   9.3845963  22.3460412  37.7777863  10.4504430   6.0601550
  38.1157136   9.9950767   5.2889997  36.8319416  10.4911768   5.9189200
  28.8438773  73.9121151  57.6691246  28.5113287  74.7737217  57.9206896
  28.3343983  73.6756992  56.8940306  71.1914158  28.3431268  15.8850944
  70.9091234  29.1508937  16.3141096  72.0947170  28.5159183  15.6197345
  12.5837266  51.3644838   4.8667499  12.1965826  51.1081553   4.0297031
  11.8902504  51.2108994   5.5084157  20.4223061  10.2594721  23.0981731
  20.5029964  10.6382322  23.9735389  19.4812763  10.2595603  22.9229760
  52.7402687  56.3850546  -0.1720917  52.3575449  56.5128422   0.6959089
  53.6842155  56.3569880  -0.0158734  33.3660674  47.0433807   3.4587407
  34.2067075  46.6148615   3.2977271  32.9049039  46.9881964   2.6217729
   2.6375920  38.5824609  50.9192085   2.4944073  37.6480007  50.7691622
   2.1272513  38.7798929  51.7045784  11.2076771  49.9037457   7.2105956
  11.4270818  50.3198957   8.0442113  10.2552402  49.8109531   7.2325778
  72.9458761   2.7709550   8.7035739  72.3757744   3.2549962   8.1061459
  72.9278755   3.2779577   9.5152736  63.5349941  11.6683185  45.6970358
  63.4495544  11.2357318  44.8474503  63.3378029  10.9830785  46.3356256
  27.1562386  56.8438005  26.7130804  26.8443513  57.7354050  26.5581584
  28.0672932  56.9527388  26.9857454  63.1546736  49.0175438  11.7936218
  62.7090788  49.8421144  11.5992999  62.4594450  48.4365892  12.1024585
  65.8935452  74.3472910  25.8175755  65.3388500  74.8399162  26.4224434
  65.5777168  74.5937061  24.9482298   9.7867703  27.4774575  13.9860964
  10.3839052  27.8906751  14.6097267   9.9338317  26.5384841  14.0998220
  31.9502163  64.2225885   5.9050274  32.8139186  64.6238613   5.8089405
  31.8989635  63.5899925   5.1884872  38.8294029   2.7291301   0.7062342
  38.8241172   3.0734828  -0.1868645  38.9686155   1.7881638   0.5993039
  63.5519934  15.6388259  40.1134396  63.8710785  16.4492714  39.7164559
  64.3207407  15.0694704  40.1464987  10.8593166  11.6625559  28.0954146
  10.8984530  12.5571787  28.4335709  11.7069924  11.5295708  27.6711583
  50.4378796  50.2225637  13.0194056  51.1156511  50.8860064  12.8901684
  49.6596432  50.5905104  12.6008523  22.7023458  66.4175797   1.3656688
  23.2784486  65.7884502   0.9314640  21.8269253  66.0403252   1.2787789
  71.1424303  23.5541439  16.2438715  71.3462400  23.8989186  17.1132517
  70.3701687  23.0049729  16.3789964   9.8966485  54.9193335  45.7542086
   9.7326207  55.6914234  46.2956953   9.0990180  54.3963528  45.8348989
  58.0183029  53.5269070  57.7277756  58.6568403  53.5144901  57.0147896
  58.1259251  54.3884754  58.1307030   1.5190190  68.8382530   4.0826458
   1.0217521  69.6539545   4.0227497   0.9517580  68.2477856   4.5784229
  76.7337942  46.2683964   8.6214453  75.8854389  45.9776449   8.2867986
  76.5777016  46.4444542   9.5492756  71.0769987  63.5090971  40.5679369
  71.0375261  62.6983309  40.0606585  70.1914644  63.6180782  40.9146070
   2.3891667  50.9052610  49.5102692   1.7189799  51.0844517  48.8507414
   3.1792831  51.3239717  49.1687536   6.7501259  17.9096103  22.5215435
   7.2890455  18.6711705  22.7356100   6.7409331  17.8840244  21.5647292
  70.4320097  55.6079626  28.2843399  69.7273064  55.2062178  28.7925005
  70.1053905  55.6134892  27.3846054   9.3035978   5.3887051  23.9604354
   9.4783211   4.7578776  23.2620382   8.4008646   5.6690150  23.8096690
  10.0656414  46.6716480   7.0285356  10.0833547  45.7899618   7.4007511
  10.7134414  47.1594048   7.5371438   2.7870521  46.0553646  61.5311098
   2.4868667  45.2845573  61.0494614   2.1012300  46.2146902  62.1795654
   8.3275843   0.8067036  11.1926341   8.3829886   1.6569947  11.6287160
   9.1983205   0.6722093  10.8185208   6.8890339  35.3499031  21.8953180
   7.0534325  35.9546280  21.1717772   5.9396428  35.3723764  22.0152473
  29.4093418  21.9428039  41.7047739  29.3532181  21.0201573  41.9533825
  29.9596596  21.9467807  40.9215975   2.6863667  50.7370234   6.9102317
   2.8139409  51.0388279   6.0108578   2.9651424  49.8214102   6.8974352
  71.5672874  59.1894579  63.7063408  70.8759403  58.6074686  63.3908224
  72.1182823  58.6313486  64.2551088  29.6923447  71.1058140  32.3729563
  30.5948925  71.1742496  32.6843333  29.2510509  70.5714655  33.0332327
  76.1986113  45.0549364  59.4473600  75.4078722  45.3155327  59.9196529
  76.8665552  44.9691391  60.1275921   9.4141972  66.0118437  35.9551215
   8.9353526  66.8040657  35.7115436   9.7556436  66.1977673  36.8298078
  24.8256135  17.5284040   2.2545484  25.4788518  17.8473842   1.6318402
  25.0222564  17.9939437   3.0674678  17.0294511  39.7847176  27.9930520
  16.5814209  39.1082191  27.4852633  16.5035021  39.8755074  28.7876391
  25.8848810  13.3968711  60.3921938  26.6013408  13.2370329  59.7778940
  26.3175082  13.6941886  61.1926126  30.1061535   1.6670008  14.4750321
  30.5570626   1.6396628  13.6311328  29.9936795   0.7475832  14.7163880
  18.9815712   6.4828038  50.8318901  19.0259576   7.0904177  51.5701771
  19.1545916   5.6240606  51.2177086   0.8434235  70.1945972  23.3809781
  -0.0907321  70.3034496  23.2028317   0.8833204  69.4910669  24.0288138
  21.6922092   0.8599465   7.8605628  20.7509375   0.8793239   7.6877505
  21.9365287   1.7801231   7.9596323  63.4630394  70.7453442  64.2025518
  63.1191969  71.5124178  64.6603680  64.0244722  70.3137589  64.8465681
  37.9955626  18.1966603  42.4423790  38.8027430  18.4325266  41.9851446
  38.0269170  18.6974907  43.2574940  52.5860023  63.1372070  64.8809004
  52.4012899  62.7489805  64.0256834  53.4829187  62.8670788  65.0778770
  46.5037107  11.4930332   2.2100270  46.3366652  11.5764189   3.1488425
  45.8465576  10.8677340   1.9044371   6.8646228  16.7807448  47.8625345
   7.6527423  17.1468854  48.2638311   6.9434124  15.8364677  47.9980469
  34.0150690  38.7612510  16.4509344  33.9391661  38.5170197  15.5285347
  34.9492693  38.9258575  16.5790236  76.6696215  54.5826387   2.2786376
  77.2691917  53.9406252   1.8984184  76.9042158  54.6094513   3.2062581
  58.9237642  56.3251352  58.4507418  59.1948891  56.2885714  57.5334692
  58.6078262  57.2205734  58.5716009  58.6140966  39.7134566  51.2573624
  57.8320789  39.7635150  50.7076597  58.2891226  39.4258881  52.1105528
  11.1428761  49.5050764   3.4523594  10.3942466  49.5890665   4.0428948
  10.7694459  49.1655827   2.6390180  48.3882904  30.2632427  13.5342944
  47.9859495  29.3995380  13.4428239  48.8063526  30.2427697  14.3951285
  68.4826851  72.3260593  21.5955257  67.7727032  72.8033447  21.1661601
  69.2706203  72.5907850  21.1208534   5.8354014   8.9922816  22.3889780
   6.6871464   9.2805457  22.0608544   5.2221268   9.6603209  22.0826292
  64.0970469  51.3727760  13.0907440  63.7872601  52.0369196  12.4749696
  65.0464249  51.4925289  13.1145930  63.3198500  64.0673780  37.0361352
  62.3794222  63.9183426  37.1341968  63.5409880  63.6594105  36.1989427
  30.7338572   5.7142562  63.7182570  31.6899037   5.7564682  63.7388325
  30.5297875   4.8028356  63.9277792  37.3879457   2.4104433   8.3338475
  37.7356529   3.2127711   7.9444885  37.0364714   1.9172859   7.5925690
  64.3223810  51.8604469  52.8512669  63.4148884  52.1624804  52.8129673
  64.2663193  50.9151936  52.7113152  39.1672802  73.5340738   0.1549919
  40.0688696  73.8555813   0.1570346  38.6383533  74.3055296  -0.0482843
  57.6627779  10.7069421  23.9778972  58.3997774  10.5194712  24.5592046
  57.6446486   9.9690080  23.3685064  18.9822793   9.6575993   5.7025862
  18.6641204  10.1610529   6.4519465  18.6596334  10.1355207   4.9385685
   2.7821922  71.0300112  30.4981375   3.1124288  70.8746099  29.6132493
   1.9565091  71.4962053  30.3672075  16.5950978  62.6594734  12.7626503
  16.8943906  63.3860111  12.2160268  16.3559437  63.0682707  13.5944676
  15.3569937   1.8245268   7.5336361  15.7958066   1.0513096   7.1789384
  14.5708871   1.4803728   7.9576963  64.0475416  25.6000137  63.6581135
  63.9503431  25.1314116  62.8291416  63.5991621  25.0483489  64.2990923
  12.0139766  25.9924245  35.8325410  11.5733981  25.5259943  35.1222134
  12.6621664  26.5421844  35.3922606  53.4061432  24.6159601  47.0740318
  53.5127735  24.9163151  47.9766083  53.6073542  23.6807442  47.1074677
  61.2258291  24.3046069  48.2119036  60.7039881  24.6146059  47.4717569
  62.0270252  23.9639354  47.8140831  43.9974165   0.5693979   3.3486772
  44.4440126   1.1338064   3.9797312  43.8624573   1.1268283   2.5823295
  19.2109001  67.9667664   7.4527782  19.3913949  67.1262074   7.0319301
  18.7721276  68.4836102   6.7770672   2.1747896  57.3325014  27.9063845
   1.4016649  57.8964853  27.9271817   2.6564685  57.5569391  28.7025285
  71.6552925  37.8536654   1.8016934  72.1510744  38.6579132   1.9553608
  72.3238325  37.1844292   1.6553900  59.4525576  27.0427251  37.1810126
  60.3186941  26.9907737  36.7768645  59.5578623  26.6120315  38.0293298
  63.2473183  65.4681683  62.2340775  62.5333357  65.5682850  62.8637123
  62.8382730  65.0599146  61.4710331  10.9012115  53.9967823  58.7292290
  11.5292668  54.1070366  58.0153513  10.1262736  54.4804621  58.4433031
  38.9548588  17.2507548  52.3641300  38.8519120  17.3428166  53.3113146
  38.7353563  16.3360286  52.1871376  58.5148001  50.7719612  55.5163193
  58.9560843  51.6132259  55.6336880  57.6544714  50.9998798  55.1640081
  53.6994314  69.2050314  23.0570030  54.4168901  69.7704601  22.7710414
  53.7364531  68.4534168  22.4654508  28.8867331  56.5467787  10.7902908
  29.3460584  56.4521074  11.6247296  28.0440736  56.9363022  11.0235882
  46.9774294  16.9448268  56.7035437  46.6108227  16.0713172  56.8406868
  46.3144779  17.5403750  57.0528936  56.9422960   9.2109233  30.8257627
  57.0462751   8.2756150  30.6507826  57.4780607   9.6403706  30.1588583
   2.8581449   9.8450118   2.4321820   3.3399183  10.0656986   3.2293165
   3.2863230   9.0539956   2.1047857   4.7716588  71.8685579  21.9825387
   5.3616035  72.3302174  21.3866615   5.2075684  71.9133329  22.8335428
  78.4288311  37.7920794  18.4605730  78.5243893  37.0745921  19.0869212
  78.7779474  37.4424314  17.6407576  53.4879303  18.2223821  52.7951431
  52.7767086  17.7799022  53.2584047  54.2800093  17.7682221  53.0825090
  18.6495185   7.6361424   0.8158111  19.0815806   8.4793752   0.9518693
  19.0369809   7.0594829   1.4742701  42.5839901  11.1465871  30.6958055
  42.0926094  10.3836012  31.0001564  43.5014105  10.8802068  30.7559299
  24.4097424   7.6371700  45.2275848  24.8353839   7.2481102  44.4635868
  24.4819522   6.9683146  45.9085035  53.2732201  66.3333893  21.9105291
  53.2078743  66.1225176  22.8419232  54.2089319  66.4682245  21.7605567
  67.5531197  15.0317061  58.8106394  68.1645870  14.5152783  59.3356514
  68.0669594  15.3153241  58.0544901   9.9694014  71.3851261  19.2714202
   9.7889078  71.4234447  18.3321726   9.9664283  70.4504776  19.4779503
   7.2736305   0.7918601  47.0024872   8.2201123   0.8182417  47.1428680
   7.1427572   1.2409219  46.1673546  62.0104599  50.5799341  28.4327555
  62.8937197  50.8219051  28.7112164  61.6381979  51.3906431  28.0857682
  21.8087506  22.0445061  48.4033918  21.0910392  22.4644876  47.9293299
  22.0429587  22.6713872  49.0877867  62.5761271  39.6593285  33.4128332
  63.3663177  40.1958942  33.3501744  62.9013491  38.7633896  33.5009050
  74.3789768  74.8904610  28.1423712  73.4960890  74.8713732  28.5116577
  74.4996166  74.0191317  27.7649283  22.0622611  40.7829332  60.7111835
  22.7214646  40.2576876  60.2575302  22.1654081  41.6625357  60.3480196
  54.0741444   1.8407635   2.5685683  53.1523752   2.0410210   2.7312657
  54.2213583   1.0084957   3.0178905  68.1353664  16.8076205  65.0185156
  67.4208975  16.9387281  64.3951511  68.4404087  15.9162676  64.8491955
  62.3590565  29.6735024  58.9922237  61.5422106  29.9389434  59.4147635
  62.1266699  29.5621395  58.0703640  48.7768650  71.8885851   8.7175071
  49.0889645  71.3278437   8.0073011  48.6359215  72.7409554   8.3053929
  56.5029287   9.9419808   5.4860413  55.9036064   9.2237115   5.2832323
  55.9304237  10.6750011   5.7122129  75.3156519  71.6993046  64.3094397
  75.7705450  72.1480799  65.0221205  75.3629017  70.7718849  64.5415878
  26.4771748  63.5525751  62.6248264  26.3312936  62.6071739  62.6589870
  27.1096134  63.7227106  63.3229017   8.5830355  28.9709568  47.8895617
   9.4539189  28.5738516  47.8995943   7.9810947  28.2299280  47.9586649
  54.5054007   1.7309809  47.3972797  54.2435646   0.8131467  47.3247957
  54.2435503   2.1213171  46.5634346  23.4770632  47.2199678  61.5128231
  23.1772399  46.8847990  60.6678391  22.6882339  47.2440577  62.0544863
  75.0546169  62.3725700  58.6711979  74.9334621  62.8228951  57.8352785
  75.5071068  63.0102015  59.2233801  72.6740217   4.4059879  11.2447262
  73.3976126   4.2125896  11.8407488  72.0923471   3.6496139  11.3208139
  69.5577049  60.6028318  32.8026605  70.5083275  60.5068970  32.8605247
  69.2475080  60.4580212  33.6965513  69.1781473  27.9999375   7.2243232
  69.1075182  27.2442675   6.6410530  69.6244383  28.6656022   6.7009252
  55.6910324  17.6990044   2.9244193  56.4938974  17.1791184   2.8875977
  55.3463697  17.5454164   3.8041070  61.4258671  57.0712805  13.5103858
  62.1215153  57.1153688  14.1664064  61.0429192  56.2016010  13.6254418
  57.6084328  65.0604630  21.5561533  57.1589470  64.6971369  22.3191643
  57.1338701  65.8684778  21.3608742   7.2306353  29.7420454  50.9667253
   7.4320692  29.0568304  50.3294373   8.0455691  29.8629427  51.4540672
  35.0366378  72.6858377  21.3349581  34.1278577  72.9512882  21.4759755
  35.3963089  73.3598661  20.7582831  48.7927580  48.1212234   4.0264726
  49.1543007  47.4941635   3.4001225  47.9686022  48.4060287   3.6316487
  43.1469965  21.6525364  51.7913198  42.3813248  21.4517546  52.3295212
  42.9863119  22.5388050  51.4673758  20.5059695  19.1792107  32.9827309
  20.3010225  19.0472245  33.9083695  19.8238659  19.7727823  32.6686645
  32.1277690  20.3013444  15.8549035  31.3447571  20.8188319  15.6669426
  32.8043056  20.9511614  16.0453463  41.8335390  13.0442464  11.0177672
  41.5687847  12.9020607  11.9265687  42.2716093  13.8952768  11.0262656
  25.5599236  70.0326109  32.0738840  25.1262474  70.1256990  32.9221129
  25.7559776  69.0981388  32.0063925  58.0936003  32.2229767   4.8617771
  58.5496759  33.0030251   5.1776111  58.7942696  31.6177320   4.6189302
  44.1097450  40.9319115   7.3543537  44.4684887  40.1140785   7.6988608
  43.2190228  40.9683609   7.7029479  20.6889391  49.9709558  19.9928927
  20.0163698  49.8444176  19.3236625  20.6238127  49.1937876  20.5478692
  15.9554136  19.8102367   9.6933407  16.6974616  19.2410517   9.8973638
  16.3496530  20.6653643   9.5214051  74.9879599  39.6384573  25.3774977
  75.1338720  39.9877715  26.2566566  75.1210594  38.6950302  25.4694819
  20.8190322  53.0234432  51.0066557  20.1101136  53.2874155  50.4201508
  21.4954233  53.6886692  50.8793831  58.3609152  39.2239356   0.6689771
  59.2824650  39.4795060   0.7097125  58.2800150  38.5166121   1.3088058
  60.7429886   9.6277964  44.8593807  60.6062889   9.7528267  43.9202785
  60.3463650   8.7773019  45.0480080  39.7562861  24.5832300  55.2470255
  39.2366004  24.6290445  56.0495567  39.2518187  24.0126038  54.6672583
  25.0024247  62.7524519  12.8924298  25.8432579  62.5689363  12.4734354
  25.2348280  63.1402874  13.7361145  72.6903296  16.3449073  56.6695833
  72.2230005  17.0244026  57.1555042  72.2440815  16.3055158  55.8236837
  25.1555061  55.3312063  27.8590608  25.7021546  56.0959864  27.6787376
  24.6770906  55.1811409  27.0436907  22.1901965  53.6662245  15.8081496
  21.2873459  53.7499762  16.1148667  22.2095823  54.1537333  14.9846256
  58.9561796  27.9079819   0.0274600  59.2472553  28.6403966   0.5706678
  59.6108150  27.2253942   0.1749654  73.2017136  26.4639354  19.2890716
  72.7867222  27.3263836  19.2749417  73.7245512  26.4628220  20.0908661
  48.9720821   1.4564537  64.9174976  48.7424040   0.5369715  64.7832108
  49.9291134   1.4686687  64.9042511   9.9358380  72.2681379  31.2854624
   8.9924979  72.3373652  31.4322591  10.1412201  71.3526964  31.4752507
  63.2038355  32.4891281  43.2375050  63.6442995  33.3125925  43.4475803
  62.3284578  32.7515817  42.9527950  24.8721695  68.8144350  54.2391729
  24.9931049  69.0839148  55.1496601  25.4725790  68.0776405  54.1256952
  27.4231625   0.0720757  56.2189007  26.9887900   0.5936406  55.5439758
  26.7273450  -0.4745299  56.5839958   8.3422989  52.7285767   1.7538783
   8.8244611  53.1147718   1.0227107   7.5946444  52.2931623   1.3444176
  64.7012806   5.2914864  49.4794798  64.4925880   5.6301272  48.6088467
  65.5681324   4.8974690  49.3817616  31.3084412  49.4527102   8.6042774
  31.3053465  48.7418842   9.2453313  32.0354009  49.2432261   8.0178672
  35.3689718   1.1622417  11.3874602  36.0280895   1.8556270  11.4192939
  34.5622849   1.6101171  11.1327159  21.8268991  20.1966906  51.6294861
  21.8256879  19.7889566  52.4955034  21.8891311  19.4620883  51.0189819
  11.8731833  39.8406029  57.5723696  11.1792326  39.9265361  58.2260370
  12.2205031  40.7271051  57.4738216  16.0880959  59.3316460  22.5114155
  15.6599605  58.5211134  22.7870417  15.3741634  59.8823118  22.1900105
  13.4315395  29.5509815  11.8128240  13.9036703  29.6438789  12.6402867
  14.1109014  29.3425560  11.1715305   6.6983211  46.4006281  51.7536211
   5.8814031  45.9017754  51.7488527   7.3499173  45.7898617  52.0980310
  55.3142500  27.9198313  39.1656208  56.0531664  28.3791757  38.7665772
  55.4727697  27.9838967  40.1074266   3.9131564  20.7121611  21.4081025
   4.5666316  20.4486942  20.7601929   3.0807358  20.4088926  21.0457015
  29.0538430  72.6661158  12.5897908  29.0035844  72.8449440  13.5287929
  29.3050623  73.5033178  12.1996415  69.3958092  53.4491014  23.9316058
  69.4051743  52.5601578  24.2864609  68.9601564  53.3638859  23.0835629
  30.4407597  72.9464197  49.5624685  30.3736162  73.8863897  49.7303486
  31.1771297  72.6587343  50.1021242  40.4323244  72.9218721  49.9313307
  39.5838332  72.8085089  49.5030260  40.2724123  72.6873398  50.8454752
   7.6209897  30.3333640  41.8393373   7.1203780  30.8724833  42.4516869
   8.3768034  30.0351810  42.3453665  29.5005608  15.4480910  42.8223467
  28.8021374  16.0722184  42.6251173  29.0733624  14.7667718  43.3415174
  59.6902943   4.2679548  37.9742098  59.5921278   3.3213913  37.8711891
  59.4159937   4.6302930  37.1317720  17.4766791  22.7343059  46.9127989
  17.1623135  22.3928285  47.7499390  17.1667778  22.1018481  46.2645769
  48.6432123  31.5244603  63.2060337  48.4876442  31.9578409  64.0452099
  47.7902269  31.5302229  62.7717352  55.9925699  25.1231003  56.8457651
  56.3784170  24.9100304  55.9960890  55.8985043  26.0755944  56.8340206
   4.3402877  14.3988383  46.0091925   4.1078293  15.0549698  46.6662216
   4.6894404  14.9065948  45.2767277   1.8650430  59.5491934  15.9875667
   1.3499185  59.7207928  15.1992571   1.5992318  58.6712265  16.2609708
  27.6924062  14.4867623  33.0238795  28.1029272  13.7903523  32.5113201
  27.0719767  14.8947811  32.4198771   6.6329885  72.9843950  50.1365185
   6.2094885  72.2117329  49.7625160   6.7401707  73.5809660  49.3956757
  24.9550843  65.4588366  52.1513462  24.2884731  65.5051899  52.8367043
  25.3739715  66.3193893  52.1660614   7.0802158  44.5480728   1.3500722
   6.8206650  44.0288448   0.5889743   6.3666445  44.4278622   1.9766477
  42.0322180  31.2335515  63.2979107  41.7202330  30.3487015  63.1083441
  41.8840694  31.3436627  64.2371464  77.4369192  69.8216534  14.2842782
  77.9094696  68.9938593  14.3719304  76.8641615  69.6916151  13.5284519
  47.6729870   9.7439253   7.6674366  48.0255699   9.0893739   7.0645428
  46.9610977   9.2927647   8.1211978  29.9141169   8.2687610  10.9954274
  30.5119967   7.7852523  11.5655053  30.4869604   8.8055617  10.4477727
  18.9101267   2.8840563  61.2893343  18.3169007   2.1873832  61.5703344
  19.3864083   3.1277275  62.0830679   0.0619184  10.7719898  34.0742135
   0.8837829  11.2141180  34.2870355   0.3284319   9.9932218  33.5856223
  30.1825023  24.4926786  24.9969506  29.5108485  24.4400501  24.3169928
  30.7497120  23.7394595  24.8321342   1.3441694  10.0098753  58.7182522
   1.4112918   9.9592417  57.7647543   1.0692072  10.9102106  58.8915300
  47.0261765   1.1128197  34.7109652  46.7682934   1.8577646  34.1680264
  47.3698378   0.4710582  34.0894580  58.0835629   4.0493944  55.2447367
  58.2871103   3.5463202  56.0332251  57.1989059   3.7727344  55.0058365
  50.9579229  37.5844455  61.5020132  50.0331116  37.3912144  61.6556883
  50.9954357  37.8638673  60.5872726  37.6929259  28.0623102  52.7744389
  38.0480242  28.2457566  53.6441994  38.3457541  27.4952888  52.3639107
  45.1014805  22.4543905  55.6829596  44.2770958  22.7979612  55.3386021
  45.2491045  21.6472602  55.1900339  61.2642193  22.8583789   2.4283665
  60.6201935  23.2338262   3.0287838  61.5505648  22.0522404   2.8577605
  22.0499206  54.5454168  56.9521189  21.8430924  54.2077160  56.0806751
  22.9499793  54.8627758  56.8786001   2.2097929   0.4671859   0.5770425
   1.6590381   0.0935247  -0.1109096   1.9692609  -0.0179501   1.3663583
  70.4143095  42.2140646  54.8397636  70.0535774  41.7507219  54.0838385
  71.1412096  42.7246618  54.4831991  60.3312492   7.7506357  28.0509019
  60.8398438   6.9444990  27.9630995  60.6499481   8.1478190  28.8614011
  48.6921215  44.1376781   2.7845389  48.3199215  43.2579660   2.8461966
  49.2755365  44.2044306   3.5404503  17.9793346  50.3698063  62.9302168
  18.4106910  51.0948038  63.3824825  18.4266698  50.3141880  62.0858049
  45.0097895  23.3793831  45.7856846  45.2782154  24.1207075  46.3284683
  44.1290808  23.1641984  46.0927439  12.5064552  64.4134951   0.5691735
  11.9535923  63.8679218   0.0097767  12.5058532  63.9664745   1.4155795
  26.8957901  73.0107880  55.5757713  27.3324871  72.3308897  55.0626802
  26.4682436  72.5356627  56.2882996   0.8643989   5.6151307  44.5967197
   0.2683552   6.3631451  44.5587969   0.5429163   5.0182152  43.9210176
  56.6186094   6.3555145  61.6898918  55.6893063   6.3754374  61.9184303
  56.8496895   5.4267895  61.7073298  62.3809719  25.2338004  17.3581111
  61.7200470  24.9469924  16.7279148  63.1949997  24.8361182  17.0491707
   8.1343389  62.4823189  53.8951159   7.6966548  63.3319283  53.9482975
   7.4298310  61.8429470  54.0004921  65.6681967   1.4871870  43.3922768
  66.1346865   1.0802332  42.6622009  66.3533783   1.9156793  43.9052582
   7.3008460   7.7327693  10.5930841   8.0291420   7.9837775  10.0249183
   7.5810719   7.9927379  11.4706492  13.1931043  30.9331870   1.9569457
  13.6847711  31.4554143   2.5908035  12.4968255  31.5164137   1.6548274
  62.0841074   5.3381056  50.3082275  62.8360367   5.4901218  49.7357607
  62.3834848   4.6695900  50.9244204  24.9537742  74.9318646   8.7593240
  25.5119788  74.1578596   8.6847717  25.5037057  75.6539469   8.4553397
  18.3618629  74.8210573  13.9323974  17.5069547  75.1113892  13.6144841
  18.1916523  74.4997931  14.8178625  52.5571442  34.0471792   0.5934734
  51.6820717  34.2572379   0.9195925  52.7581835  34.7509551  -0.0233847
  70.6944466  25.3798246  34.4925070  71.3953161  24.8468685  34.8679662
  70.8048248  25.2884197  33.5460973  64.7731209  30.7084322  36.3087511
  65.4375315  30.7717156  36.9948936  65.1797533  30.1689506  35.6306338
   1.4600670  61.0489893  40.2424526   2.2965279  60.7981634  39.8504686
   1.2707314  61.9109440  39.8717475  67.6301003  24.6013498  30.9882569
  67.0614100  24.3456316  31.7144990  68.5167789  24.4357634  31.3085961
  57.5849009  63.9945793   7.8332859  57.1928453  63.3726454   7.2203231
  57.1585369  64.8281431   7.6342511  62.0355415  71.4588785  50.9006548
  62.5789547  71.6833830  50.1453209  61.1397505  71.4719152  50.5635929
  68.2520533  74.1104364  58.4410286  67.4609041  73.9182615  58.9444017
  68.5228157  73.2630682  58.0876303  28.1267428  73.8404226  61.3022327
  28.1843448  72.9228306  61.0358906  28.4652209  73.8516521  62.1975231
  57.3660469   4.7475994  48.7003517  56.5309906   5.0312114  49.0724802
  57.6847792   5.5105126  48.2180643   1.5081568  16.2807381  58.3324385
   1.5441045  16.7353320  59.1740322   0.8026954  16.7168677  57.8545809
  11.8675256  47.2262716  15.4382944  10.9569621  47.1099329  15.7095361
  12.3732126  46.7185354  16.0728931  71.8589830   4.9436373  50.2852106
  71.7582846   4.7877413  51.2242460  72.7589083   5.2553630  50.1893234
   3.0504525  69.8470974  40.4874086   2.5322273  69.2128944  40.9828472
   3.7756419  69.3356800  40.1285458  44.6364880  61.3180923  25.3541684
  44.4555330  60.7377100  24.6148133  44.3211269  62.1754789  25.0683999
   3.3688554  35.1761150   1.3915570   2.5235686  34.7319555   1.3248926
   3.5078648  35.2865577   2.3321477  56.6653061  48.4036016   6.1155164
  56.5569687  49.2549992   6.5393269  55.8473635  48.2684135   5.6370586
  50.4211664  28.2434916  63.4298372  50.2962112  28.1138110  62.4897337
  50.5606174  27.3623228  63.7767220  61.1913443  34.9907756  64.8019361
  60.9851599  35.0833225  63.8717985  60.6197071  34.2853332  65.1049376
  28.9855170  33.5947251   6.7801344  28.7688661  32.7638650   7.2031754
  28.9442229  33.4042645   5.8429837  44.3726015  15.9599686  63.7536097
  44.5427990  16.5883327  64.4553375  43.4317112  15.7918882  63.8056087
  31.3235044  15.3367543  34.8120141  30.5643034  15.2433372  35.3874421
  31.6406894  14.4423449  34.6868777  53.8462877  11.2621307  52.1377373
  54.5412159  11.9062686  52.0021391  54.3031931  10.4765403  52.4382639
   9.9793303  37.6859331  47.0116138  10.8739841  37.8811717  46.7328548
  10.0779808  37.3062682  47.8847408  71.1579037  32.1227026  51.6577673
  71.0973883  31.1969209  51.4221954  72.0559454  32.3682332  51.4353514
  19.5358193   1.6690838  49.7198915  19.3971837   0.9416797  49.1133499
  18.6880350   2.1115847  49.7609711  66.3342714  10.8798718  62.2698879
  66.2444973  11.6929674  61.7728519  65.4908514  10.4398775  62.1637106
  48.8417006  10.8735633  63.4652853  48.6539459  11.4635253  62.7352667
  48.0205250  10.4037726  63.6108780   8.2186788  69.1650057   1.6915093
   8.2837570  68.6385775   0.8947203   9.1167045  69.2160034   2.0188931
  34.3099833  10.3394055  39.0144181  33.7985587  11.1110735  39.2577362
  34.5583129  10.4942548  38.1030512  38.3565307  56.9024897   7.0606577
  38.9496660  56.5124321   6.4185667  38.8997626  57.0383835   7.8369719
  18.4591031  58.8694334  19.4964302  17.8185511  59.5203686  19.7831476
  18.7364447  58.4348965  20.3029609  71.3039494  56.0342646  44.0215254
  71.9969606  56.1088753  43.3654737  70.9318542  56.9143724  44.0780163
  61.6496944   8.3290601  55.7319880  61.1160755   7.5774330  55.9899426
  61.6647243   8.2951498  54.7755098  28.4687173   6.4195966  64.7974584
  29.1582524   6.0455703  64.2489369  28.8561284   6.4648342  65.6715839
  52.1100378  50.6196785  42.4467754  52.7975225  51.0171795  41.9123697
  51.8277025  49.8555326  41.9441843  73.7283897  30.7814455  36.5550399
  72.8185272  30.5328727  36.7181063  74.2258644  29.9761343  36.6972661
  73.4576321  38.8236499  56.7853594  74.3374443  38.5019445  56.9820023
  73.2575512  39.4266987  57.5012732  59.4160557  10.4281867  11.6328418
  58.9020824   9.9944723  12.3139846  60.2451038   9.9499929  11.6173506
  78.1959248  52.0650768   1.3455266  77.9095173  52.1376657   0.4350686
  77.6096869  51.4132309   1.7297812  42.0796537  17.5927448  45.9959936
  41.4007282  16.9411373  46.1712074  42.3307991  17.9156113  46.8613958
  68.3971834   8.9480889  27.1591091  69.2099571   8.6532807  26.7483568
  68.6498976   9.7228205  27.6612639  40.1238489  73.4024620  16.6385889
  39.4278479  73.6403656  17.2511375  39.9799514  73.9691639  15.8807135
  15.5023754  11.9718146  54.2399931  14.8139381  12.0606577  54.8990774
  15.2420878  12.5701082  53.5396194  25.9844351  74.7610044  62.8179789
  25.3632855  75.0851870  62.1658182  26.4866567  74.0889835  62.3571205
  60.5476904  12.4577355  45.9735394  61.4863491  12.5697160  46.1239195
  60.4710579  11.5923214  45.5717707  67.8004026  45.0322247  61.6015816
  67.7707148  45.7824850  61.0078955  67.1200085  44.4425726  61.2766027
  43.1353664  66.6388416  20.1113987  42.7204561  67.3642492  19.6446395
  43.0252504  65.8860540  19.5305252  18.0125952  55.9246969  21.7022491
  18.1724763  55.0580311  21.3286686  17.1036363  56.1197996  21.4743042
  79.0330076   6.6531146   7.7237797  78.3764696   6.9798583   7.1086144
  78.8153028   7.0769846   8.5539430  68.6511517  37.0895267  54.1789436
  69.1373634  36.6953087  54.9031162  68.6683226  36.4257550  53.4894943
  59.2569256  33.3700442  49.7776556  58.7243080  34.1624022  49.8463726
  60.1592779  33.6888695  49.7590542   6.9698143   9.4785142  33.4137177
   7.0839405  10.4259658  33.4881616   7.1016121   9.1507614  34.3033457
   6.8418717  48.2610989  49.7808504   7.0123470  47.8161764  50.6110430
   6.1807823  47.7192450  49.3500519  35.0654960  15.0698972  14.0869331
  34.1444397  14.9640107  14.3249965  35.3525114  15.8403766  14.5770526
   6.5354842  31.6181588  19.6611619   6.5699190  31.6164875  20.6177425
   5.6547666  31.9304824  19.4537449  43.2774830  22.6607275  38.9089322
  43.2527876  23.1734395  38.1010032  42.5935936  22.0007992  38.7948060
  63.7954712   4.9259657  21.4371395  63.5764933   4.8368245  22.3646808
  64.7143650   4.6636838  21.3816953  78.1130409  29.0316319  56.4368725
  78.9165545  29.5124626  56.6353750  77.6776838  29.5588923  55.7670259
   7.8168994  31.5794063  34.6762276   8.1859696  31.6015983  35.5591345
   8.5348719  31.2694979  34.1242266  34.3937850  29.8284912  48.5340834
  34.2343664  30.2186084  49.3935156  34.6253085  28.9191389  48.7230444
  14.1162205  71.2081575  31.1521292  14.8334551  70.5784512  31.0794854
  13.6190534  71.0994864  30.3414226   0.6326686  23.3233380  46.0075998
   0.2017601  23.8074064  45.3031635   0.5945894  22.4087238  45.7278442
  60.3954840  55.9210777  62.2701550  60.3871346  55.1329899  62.8133678
  60.8457327  56.5754128  62.8043413  48.3466816  58.6500359   8.3942288
  48.9530087  58.1008148   7.8972828  47.4779892  58.3644581   8.1112921
  57.8328848  72.3520899  60.9026384  58.6002350  72.4772882  61.4609671
  57.6959944  71.4047813  60.8925819  78.5735416   0.1292959  60.6184292
  78.7948990  -0.6424914  61.1395597  79.2955303   0.7382729  60.7737160
   8.1809515  47.6425552  36.9934988   8.1536967  47.1248531  37.7981567
   8.4897494  47.0306396  36.3253427  42.4951172  46.1090326   6.3669407
  43.1644964  46.1515284   7.0498478  41.7983055  46.6867447   6.6782850
  20.0369525  23.6132622  57.7946234  20.7065415  23.9820290  58.3707237
  20.1222801  22.6661396  57.9037619  10.7443845  28.6372232  36.6769743
  11.4071381  27.9543400  36.5737391  11.0824287  29.1951275  37.3774743
   3.3533165   1.5482192   5.2906960   2.7628762   0.7948203   5.2892369
   3.6143458   1.6461785   6.2063920  46.1354733  67.7422428  45.3040838
  45.7773542  68.5981512  45.0686979  45.4164028  67.1303034  45.1469421
  15.5274820  31.2902927  61.0513926  15.6411695  32.1049261  61.5409660
  14.9476731  31.5251756  60.3269053  76.3008881  70.7738256  52.2482681
  76.8434191  70.4755306  51.5182590  75.6680584  70.0679302  52.3804569
  73.2716608  64.9264431  14.2689133  72.3877287  64.8387861  13.9122450
  73.7701273  65.3525352  13.5716259  70.1563215  51.2529564  45.2256441
  69.9534416  50.7317448  46.0024405  70.3301191  52.1309423  45.5650091
  37.0724344  73.0517483  63.0871630  36.1920810  72.6860857  63.1737757
  37.2299862  73.0758381  62.1433258  52.9598904  54.6444225  23.4569120
  53.4777880  54.2229271  24.1427398  53.1101942  55.5810595  23.5847688
  51.1742973   9.5312381  49.4958544  51.4355326   9.0614158  48.7038565
  51.0690022   8.8467598  50.1566362   3.6563703  57.5927114   8.4010309
   3.8607118  57.3500490   9.3041325   2.7712023  57.2578859   8.2574898
  17.9926205  32.4391580   2.5628689  18.8740313  32.6975346   2.8322920
  17.9856515  32.5650477   1.6140088  48.8462448  33.6905432  56.7553425
  49.3804026  34.0906620  56.0691833  48.5546160  34.4274449  57.2921467
  17.6393449  72.6980972   0.2109290  17.5405979  72.0638657  -0.4991633
  17.0789921  72.3630905   0.9109331  19.2680585  48.0481386  10.2449405
  18.3630061  48.3537483  10.3058875  19.7418857  48.5724306  10.8905697
   6.7900926  67.1760321  13.5742557   7.7083665  67.3541069  13.3710456
   6.7394495  66.2222910  13.6378372  32.3021531   1.0884104  26.0370851
  32.1417904   1.6158228  25.2545547  32.8709817   0.3798980  25.7359624
  41.6104317  27.1482325   9.4148386  42.1032667  27.9612923   9.5256358
  40.8020401  27.4158382   8.9776701  31.6979599   4.0791968  36.8091488
  31.9867420   3.3605832  36.2466264  30.9862065   4.4938499  36.3216019
  56.0476065   6.7840284  45.8352327  55.8822823   7.2968030  45.0440550
  56.8269730   7.1837962  46.2212420  64.4670773  55.9420443  57.7621412
  64.5228672  55.8953762  58.7165785  65.1187944  55.3127766  57.4530792
  59.5546389  64.7650337  54.7939491  60.1502705  64.1372108  54.3849325
  58.8820791  64.2232370  55.2066803  69.8630571  31.7917442   6.9568515
  69.0696001  31.2743187   6.8192607  70.5318499  31.1475086   7.1890354
  59.4236803  27.5709534  12.8203118  59.3170977  28.5220242  12.8019214
  58.5311270  27.2311115  12.8842568  47.0154333  32.4319839  60.2588463
  47.9698038  32.4013853  60.1920128  46.8226290  33.3312082  60.5242729
  19.4689119  46.0988951  23.6998320  20.2493548  45.8372402  24.1883779
  19.7065008  46.9349194  23.2987738  37.0558357  64.6945906  11.3629913
  37.3891401  65.0789165  12.1738124  37.2037029  65.3688478  10.6998587
  78.6545515  28.3140421  62.9173136  78.9706421  28.6944985  62.0978165
  78.2753611  29.0526199  63.3937025  53.8548565   6.4874977  62.4338770
  53.6517763   7.1883982  63.0533361  53.1651926   5.8383024  62.5722313
  19.0325940  37.3956299  24.2993593  19.0746284  37.8523350  23.4591889
  18.0964684  37.2819257  24.4635892  22.4476743  12.1639144  49.5787382
  21.5068483  12.3343754  49.5337963  22.6933527  12.4100506  50.4705286
  55.8018732  31.3078904  42.5060606  55.0308275  31.8564057  42.3616648
  55.5595732  30.7423496  43.2393312  58.5062742   7.8696287  22.5068736
  58.4402180   8.1336296  21.5891743  57.6172590   7.6066548  22.7450371
   1.6485076  62.8980923   6.7628634   1.5547580  62.6879168   5.8337402
   2.1635260  63.7048388   6.7751545  60.5412626  10.0640690  22.8186131
  60.6480169  10.8354807  22.2620511  59.7017097   9.6900952  22.5511575
  72.9687977  39.7770882  18.6406851  73.4380150  39.6808815  19.4694245
  73.4744215  39.2556620  18.0172372  18.8587070  15.9516549  20.6601620
  18.2618558  16.4965653  21.1730695  19.2468405  16.5536916  20.0252318
  45.6191587  16.1273813  13.1418276  45.9280968  16.9801962  12.8360522
  45.9398365  15.5075026  12.4867344  70.2054119  38.8561630  56.5458345
  69.8874235  38.2521033  57.2168255  71.1443663  38.6788893  56.4895487
   2.6533359  43.4451723  51.8822718   2.6956657  43.6573172  50.9498358
   1.8126994  42.9999352  51.9886827  27.7577829  60.3542423  16.4683187
  27.0884824  60.7765579  17.0067620  27.5529933  59.4206476  16.5202165
  12.8291661  58.5885192   0.3160522  13.6291749  59.1140652   0.3125713
  12.9308850  57.9925252  -0.4260209  11.4686608  72.2303534  62.3532343
  10.8072126  72.4321842  61.6914320  12.0340943  73.0025196  62.3700094
  34.6699667  18.2134748  50.4868889  35.2557659  18.5479534  49.8077774
  33.9118123  18.7970793  50.4579353   0.2764979  60.2441454  13.8560176
   0.5279323  59.8158216  13.0377555  -0.4055156  60.8656073  13.6013234
  77.8036165  34.0678883  62.4296141  78.4737396  34.6321034  62.0438242
  78.0799007  33.1795001  62.2045231  47.9296780  16.1774397  64.4872379
  47.4125957  16.8379712  64.0261984  47.7006388  16.2945843  65.4092216
  13.6766243   5.3966099   2.0939219  14.2881560   5.2574104   2.8170294
  13.1329215   6.1313540   2.3781216  77.4148130   5.3327739  52.2794485
  76.6261721   4.9930242  52.7023506  77.1623039   6.2002850  51.9633818
   1.8149242  12.1389937   1.2500605   2.3554966  11.4338255   1.6060822
   1.0936498  11.6890669   0.8101048  51.7534685  74.4970131  63.6904526
  51.7216301  75.4334641  63.4947968  50.9226084  74.3157434  64.1298151
  15.8974338  66.8066359  14.8797965  16.0431707  65.8859158  15.0971925
  15.1049554  67.0439053  15.3613687   1.4149705  28.0223036  28.8233852
   2.2135672  28.4348893  28.4943724   0.8154586  28.0320454  28.0772471
  55.7904673  38.0638814  48.1068611  55.5842686  37.1673036  48.3711767
  56.6802216  38.0120420  47.7577448  37.4223447  31.3127732  41.1085939
  37.9560161  30.6766152  40.6324291  36.9014144  31.7434597  40.4308224
  28.8053393   9.0783858  19.3211341  29.6562934   9.0744013  19.7594178
  29.0156627   9.0199083  18.3891594   4.1970575  72.7987003  54.0137196
   4.5750284  73.4569979  53.4306097   4.9244252  72.5298738  54.5748806
  59.0132475   4.5754123  27.4910951  58.6846495   5.4734010  27.4478459
  59.8214817   4.5911756  26.9785094  39.3541241  -0.1094338   9.6884406
  39.5095599   0.7772306   9.3630338  38.7643993  -0.5010649   9.0441716
  50.7388163  55.2551365  15.8303332  51.3208485  55.0481081  15.0991642
  49.9982977  55.7075071  15.4263234   1.2350927  32.4408054  34.4183922
   1.7580855  32.5038791  35.2175999   1.6278379  33.0801487  33.8240671
  75.2589369  56.1866426  51.2340641  74.5692539  56.8075228  51.4687586
  74.8285675  55.5586672  50.6538391  13.5012615   6.2318122  49.4756079
  14.3503749   6.5184993  49.8118353  12.9145575   6.2850213  50.2300501
   7.2889441  55.0863409  16.3686788   6.7733109  55.3245258  17.1391463
   7.9715854  55.7556438  16.3210630  19.6495461   7.8228354  54.5217037
  19.2169452   7.5496918  55.3307056  20.1282692   7.0461905  54.2320871
  14.4702601  71.8967247  13.0833244  13.5653543  71.7331266  13.3490539
  14.4023860  72.5635242  12.3999453  60.7950306  68.8083887  15.0462270
  60.2956152  69.6158600  14.9245560  60.4054880  68.1903410  14.4277549
  61.1748552  36.9246578  51.9001961  61.3579178  37.0700431  50.9719801
  62.0005178  37.1244669  52.3413181  60.9922457   6.8295962   8.6280036
  60.9047556   7.6987320   8.2366204  61.6796494   6.4041907   8.1154275
  64.8007393  52.9937315  20.1305342  64.2716455  53.4050608  19.4470835
  65.1223755  53.7253666  20.6573129  61.2758255   2.2809194  62.1048307
  61.2579346   2.3450381  63.0597115  62.0134115   1.7002960  61.9175434
   8.0095148  14.0992725  56.8496466   8.9621043  14.1540289  56.9258499
   7.6848942  14.3604052  57.7114248  34.9166203   5.0880849  26.4696908
  35.6181574   5.1333553  27.1193266  35.3511906   5.2642566  25.6352186
  11.1276388  44.0708590   5.3123832  12.0459938  44.1663313   5.0599146
  11.1549592  43.8926792   6.2524569  64.9662638   4.6589538  35.0484467
  64.6433830   4.3919235  35.9090710  64.8272610   5.6056821  35.0236535
  35.2799129  67.7618837  37.6211309  34.9497151  68.4216833  37.0113182
  35.7425928  68.2651758  38.2910967  44.7879314  12.2630429  55.5406904
  45.5043268  11.8545580  56.0266399  44.9426079  13.2033110  55.6312704
   0.7307975  67.9147005  50.6115723   0.6639125  66.9662905  50.7223511
   1.3293704  68.0279827  49.8732567   8.5686809  11.1182368  57.8492689
   8.1132615  11.9403267  58.0309057   9.4815487  11.2948215  58.0766916
  73.1617737  74.7825861  21.8849134  73.0807304  74.9161911  22.8292727
  72.2811031  74.5372438  21.6012764  78.6991072  35.0861645  32.8421497
  78.8030863  35.3132963  31.9181204  79.5033932  34.6177506  33.0656242
  20.4758310  49.8035145   1.7614700  20.0199032  50.1037979   2.5477198
  21.3992310  49.7838974   2.0128325  53.8174009  20.8717322  17.4233699
  53.6374187  20.7175517  16.4959717  53.1627178  20.3475881  17.8847730
  10.4845858  68.4475660   9.4377720  11.2704241  68.0075645   9.1135985
  10.7165742  69.3761826   9.4469482   8.8836455   8.8917500  17.8296614
   8.0572224   9.0155941  17.3628438   9.4432789   8.4277785  17.2069478
  48.2861137  65.8303547  28.7816000  49.0854597  66.3521338  28.7107086
  47.9812574  65.7354021  27.8792262  20.5964255   4.3530083  23.8587642
  20.7754731   5.2572930  23.6009979  20.5104780   3.8804808  23.0307770
  31.2967610  47.0205641   9.9772751  31.4380717  46.3138628  10.6072271
  31.0860634  46.5725756   9.1580397  16.6953623  19.2222631  33.2807064
  17.4414301  19.8187602  33.2190156  15.9643519  19.7134495  32.9057503
  65.5058241  33.2746315  27.7188635  65.5250597  33.4319329  28.6628532
  66.1549568  33.8807249  27.3617768  69.9070978  21.3522315  54.6690130
  69.8806953  22.3022485  54.5549774  69.1145754  21.0367489  54.2347145
  46.3256407  24.8307991  56.8223619  47.2346497  24.5344329  56.7765284
  45.8121920  24.0726829  56.5433264  27.9074264  63.1132126  21.0809970
  27.3413825  62.3452234  21.1585927  28.5116887  62.8946781  20.3715301
  71.4100075  63.1238890  29.5263124  70.5930185  63.5545397  29.7778940
  72.0211506  63.3393717  30.2308035   6.8248576  38.3442211  41.8767357
   7.5391507  38.8941526  41.5548801   6.5321565  38.7769413  42.6788044
  26.0953093  66.2071800  14.1500413  26.1038923  65.2669334  14.3292058
  26.8240595  66.5555334  14.6636617  15.2570796  40.6921482  42.7647161
  15.4096901  40.4779911  41.8443489  14.3804777  40.3537703  42.9471970
  65.3614712  47.6861477  10.8737397  64.8032522  47.1399403  10.3203177
  64.7484016  48.1921959  11.4069319  44.7238588  17.8938675  29.1663742
  44.3797398  17.0159101  29.0020442  45.5020475  17.9537022  28.6122346
  12.9064262  39.2331862  49.1068363  12.6392591  38.4812236  48.5782480
  12.7137065  39.9928451  48.5572815  52.9684830  26.3000536  39.4374728
  53.7008715  26.7705917  39.0394378  52.9394245  25.4642153  38.9718962
  44.7847891  73.3920670  28.8076925  45.3174734  74.0768433  28.4032750
  44.4461870  72.8849173  28.0698681  65.5341816   6.8567652  51.7683506
  65.4548788   6.1528552  51.1245728  65.2581739   7.6435405  51.2982082
  33.2801437  72.3097181  18.7975812  32.4520826  71.9443130  19.1090715
  33.1370497  73.2561445  18.7914181  15.1325190  26.0400248  36.7546320
  15.0255728  25.2745605  36.1899543  14.5277500  25.8882666  37.4808931
  22.5888610  74.6317101  52.6036453  21.8381596  74.0962029  52.3469114
  22.9375434  74.9670172  51.7776775  71.0511827  63.3555460  10.5424583
  70.4841471  62.9769182   9.8706377  71.5302515  62.6082182  10.9005415
  21.1949301   8.0549431   5.3896528  21.2370229   7.5817025   6.2206185
  20.3588057   8.5198665   5.4208851  63.3446932  51.6351175  10.0201797
  63.0490732  50.8186626   9.6173805  62.5441885  52.0425987  10.3509045
  64.2150974  31.5662980  64.3793154  64.0508556  30.9360862  65.0808048
  63.4209728  31.5427685  63.8454199  46.7142153  64.9118423   7.3483956
  47.0038366  64.2945862   6.6765749  47.1030760  65.7473469   7.0896399
  77.1404600   8.2976961  28.8205314  76.6936731   7.5139338  28.5006428
  77.8453398   7.9622900  29.3744969   0.6622511  32.7000308   4.7498110
  -0.0570162  33.2265210   5.0986558   0.8217888  32.0372891   5.4217899
  59.9790478   3.7573588  44.5452499  59.5334196   3.0490547  45.0099611
  60.8983707   3.6672753  44.7961760  42.0773077  20.4079103  37.6560402
  41.2948513  19.8856902  37.8328943  42.8004551  19.7836375  37.7157760
   2.8307220  16.2606359  50.4344940   3.3341515  16.2412119  49.6206093
   3.0392724  17.1093428  50.8249235  46.5947199  67.6823950  23.7598062
  45.9679890  67.8628016  23.0591655  47.2182322  67.0687819  23.3712888
  17.9105532  23.5544991  21.4395690  18.1302619  23.2907319  22.3330927
  17.0941210  24.0461254  21.5288687  52.5734472  13.7873447  50.6277418
  52.7556705  12.8609526  50.4701757  51.6895723  13.7984991  50.9949923
   7.9779655  13.6145616  38.9031792   7.3973030  13.0419922  39.4044042
   8.2118195  14.3129849  39.5145297  75.9824991   8.9237046  31.3877678
  76.4565659   8.6968946  30.5877376  76.3376141   9.7750407  31.6434073
  49.4592190  53.0810499  10.8758974  49.7173405  52.5430298  10.1274729
  48.7464666  53.6269712  10.5439544  55.0793743  14.3887424  31.8911910
  55.5740070  15.2051699  31.9620371  54.4615746  14.5442200  31.1767817
  50.5704212   9.9099779  29.9751282  49.9399376   9.3398446  30.4152107
  51.3378477   9.3553025  29.8350358  32.0412135  70.5900097  15.6695712
  32.7728009  70.9121799  16.1960852  32.4419665  70.3172302  14.8442090
  71.8363619  61.3446569   1.8600991  72.5960779  61.1441135   2.4067704
  71.6697550  60.5360937   1.3756441  12.4290526  33.3685946  64.6776104
  12.0397496  33.2874346  63.8069296  12.3013973  34.2877507  64.9123240
  14.5749211  45.1744175  51.6438055  14.3347466  45.1261616  52.5691271
  14.2035604  44.3808889  51.2582684  75.9292918  57.4038895  64.8330906
  75.9775477  56.9832834  63.9746077  76.4339905  56.8301781  65.4096009
  28.7988257  60.2735043   4.5386451  28.5291195  61.0664225   4.0752050
  29.5948815  59.9917269   4.0879515  29.0073299  10.5692482   6.6539752
  29.7789073  11.0454416   6.3471502  28.2795143  11.1738944   6.5093428
  74.2817545  66.0146809  11.7441750  74.8048019  65.3313541  11.3249850
  74.8952103  66.7369699  11.8791163  79.6527863  15.1047373  64.7455168
  79.1537619  15.1149726  65.5622768  79.0201616  14.8301220  64.0817404
  77.1080112  64.2676163  46.8706417  77.2868109  64.6393299  46.0068750
  77.6932669  63.5127020  46.9323397  28.8141274  70.9679508  19.3234396
  27.9046297  70.6704283  19.3462932  29.1327000  70.6985044  18.4619629
  32.4713612  67.1661711  34.6671844  31.7965126  66.7797661  35.2253103
  32.0560670  67.2442245  33.8083053  54.1057396  15.0667357  22.0460963
  53.2011127  15.2480865  22.3010373  54.0867376  15.0529921  21.0891819
   2.3529592  54.4388771  11.8608260   2.5996995  54.2830944  10.9491885
   2.9527649  55.1232243  12.1577060  59.6235180  15.0591075  61.8119717
  60.2056503  14.9432492  61.0610199  58.7746572  14.7368658  61.5089512
  23.2601643  22.8772330  53.0111742  23.1917048  22.1599150  52.3810959
  22.5886297  22.6858473  53.6658859  31.8384624  53.4897232  19.3352699
  31.3776660  53.5965633  18.5031140  31.5654254  54.2431831  19.8587012
  19.1898978  32.1448898  61.6128731  19.0576303  32.6605916  60.8173943
  18.5939479  32.5344014  62.2526836   3.7123111  24.7062182  38.3256531
   4.4367293  25.1787972  38.7356782   2.9457846  24.9431682  38.8476920
  78.5925198  56.0020828  48.5401249  79.0373182  55.1592636  48.6298466
  77.6893091  55.7740068  48.3200836  64.2821407  70.7152891  16.0288441
  64.0901852  70.4046249  16.9136453  64.4364977  69.9174166  15.5230784
   5.1515180  36.5733051  40.1130009   5.5249619  37.1168065  40.8068132
   4.4848788  37.1275353  39.7072244  57.6974773   4.8823598   0.4628310
  57.5302649   5.5029017   1.1721957  57.3669291   4.0467891   0.7926650
  52.0058393  66.7970324  19.4880426  52.4508715  66.5365314  20.2944636
  51.9103384  65.9830618  18.9935112  66.1294365  20.8618498  61.5657282
  66.7446852  21.0779619  60.8650160  65.7146645  21.6959286  61.7859745
  61.4420938  73.4396219  34.5108557  61.8636847  72.6125383  34.7441435
  60.7576752  73.1925297  33.8889647  40.9553432  33.1454754  61.2756252
  40.0025749  33.2353306  61.2559843  41.2086630  33.4690404  62.1401262
  32.9001522  29.7782063   4.9319786  33.6737275  29.8942590   4.3803072
  33.1359196  29.0679049   5.5287337  20.6371808  26.1990666   1.7681473
  20.9174180  27.0930243   1.9644637  21.2591743  25.8925319   1.1083060
  24.3522048  50.0421333   6.2949699  23.5685039  50.4931450   5.9809083
  24.0184093  49.2610312   6.7362028  42.3074675  48.3165598  13.9323020
  42.4807501  49.2269897  13.6928785  43.1634808  47.9668713  14.1796660
  73.0913067  68.1274700  38.8814282  72.8632641  67.7356482  39.7244573
  73.9396572  68.5442066  39.0326500  77.1348429  51.1991882  35.8717918
  76.5535212  51.0469341  35.1267338  78.0151796  51.1805964  35.4964256
  16.8485689  19.3410790  20.3662872  16.8549502  19.4765449  19.4187427
  16.1599660  19.9235559  20.6868744  10.7315588   5.2633631   0.0109682
  11.1791480   5.7950556  -0.6472104  10.8504963   5.7452273   0.8294379
  21.7999649  14.7095084  20.7106519  22.0239496  14.8046780  21.6363978
  20.8721328  14.9400735  20.6637883  34.0819597  43.4473276  63.2261896
  33.3003330  43.9165306  63.5179710  34.1913366  42.7433586  63.8654852
  30.4650211  67.7587605  20.8394814  30.8943820  67.3194313  21.5735602
  29.5443964  67.8102398  21.0964465   7.7473801   8.0808610  64.9500465
   8.0669463   8.9574468  65.1638365   8.3045352   7.7925336  64.2270803
  42.6523781  68.3758783  22.4743724  42.6407623  67.7502346  21.7500329
  43.4500027  68.8868427  22.3367524  55.5779886  53.1287575  18.2955587
  56.0655642  52.7372313  17.5708485  56.2434006  53.5775900  18.8171041
  17.4879265  15.4622078  17.7323198  16.7494619  15.8507681  18.2012796
  18.2080257  16.0783052  17.8669083   8.2524329  22.9940200  19.8378825
   7.7381057  23.6726785  19.4007063   8.4572399  22.3654819  19.1456223
  13.0088913  66.8989849   4.1282240  12.3269236  66.4643383   3.6161354
  13.7560368  66.9559097   3.5326022  51.3673925  72.8242779  12.4045885
  51.6210747  73.6314297  12.8522348  51.4108753  73.0428553  11.4736927
  75.0762939  72.6482439  23.2476115  74.3763161  73.2100630  23.5801983
  75.5512762  72.3686743  24.0302134  54.1857100  68.1441069  36.0798955
  53.8331270  67.7784443  36.8911958  54.1323471  67.4252462  35.4501176
   0.5993903  63.8293314  34.5780849   0.3228984  63.9197111  35.4900146
   1.3670540  63.2588148  34.6159768  60.8175278  39.8407483  49.4223309
  59.9962711  39.8977590  49.9107218  60.9259987  38.9065146  49.2443657
  12.1511447   8.1902140  12.8934658  12.3135841   7.2536981  12.7804077
  11.5756929   8.4231579  12.1648896  13.5299969  43.9078188  20.3932834
  13.3772540  44.8002148  20.7039738  13.9942074  43.4798861  21.1127400
  40.6913185  22.7601671  61.1938715  40.9224796  22.1659446  61.9077969
  41.5319443  23.0209184  60.8175898  72.8537989   4.4913048  20.7654023
  73.5529232   4.0914091  21.2826419  73.1789732   5.3679216  20.5603790
  68.3192158  58.7869549  17.6314342  68.2393217  58.1520510  18.3432925
  68.6670637  59.5741224  18.0504870  64.9037027  52.2565651  46.5777969
  65.1455879  52.8117800  47.3190546  65.4031324  51.4506245  46.7091990
   0.0270386  10.8333921   3.7201300   0.0139984  10.2581751   4.4851053
   0.5835591  10.3785884   3.0879346  44.7320986  63.5213804  37.8867078
  44.9248123  62.5951433  38.0322313  45.4600048  63.9853430  38.3003759
  24.4763780  48.1182003  47.5141954  24.6546268  48.4341192  46.6283894
  24.5978880  47.1703243  47.4594069   8.7879664  53.4705544   8.0865842
   9.7149360  53.6329317   8.2614899   8.3838731  53.4317780   8.9534390
  10.4115319  15.4717135  56.8849516   9.8445922  16.2329006  57.0090723
  10.7853782  15.5913246  56.0119343  30.1063299  27.7408242  58.5277700
  30.8252168  28.3707619  58.5788965  29.4006228  28.1410074  59.0357685
  20.0272584   5.3710365  30.9868264  19.7173727   5.9204876  31.7067623
  19.5835638   5.7177621  30.2127790  26.5300322  18.5089350  50.7529068
  25.6642270  18.3661938  50.3704977  27.1212530  17.9900169  50.2075481
  16.1339653  48.9703274  11.4270449  16.2816179  49.2942810  10.5385160
  15.2575684  49.2819118  11.6530359  36.3540387  18.4813619  30.0986147
  37.1407700  18.9436567  29.8095345  36.1558819  18.8586295  30.9557247
  53.9634180   6.6518229  22.2485471  54.0035534   5.7680428  21.8830967
  53.8002777   7.2162879  21.4929032  14.9910831  37.2722840  64.1769695
  15.6858039  37.4394917  63.5400724  14.7484159  38.1400228  64.5000410
  31.6992998  50.6301832  11.0776174  32.4821854  51.1120749  10.8109641
  31.3034415  50.3423595  10.2550089  43.7857533  13.8730896   4.3237823
  43.3956051  13.6707962   3.4734350  44.3517447  14.6262455   4.1545343
  20.3067708  10.0219810  35.2238894  20.0942039   9.5860964  36.0491490
  19.4870651  10.0120664  34.7297096  69.3623638   5.8151555   1.9341259
  69.1295195   6.7351681   1.8092597  70.0514889   5.8305132   2.5982818
  44.8119783  74.5139837  11.6362906  44.3603230  73.7905931  11.2016153
  45.5383444  74.0982533  12.1008289  76.6490221  73.8772964  41.8133211
  77.4105740  74.4168949  42.0256901  76.4458513  74.0970087  40.9041023
  62.1675348  49.4107294   3.0893984  61.6595364  50.0622559   2.6059872
  61.9734144  49.5900917   4.0093866  36.2801719  57.9676247  19.8592305
  36.9869566  57.5276804  20.3316069  36.2240577  58.8332081  20.2640080
   6.7207056  38.2652092  30.2978587   6.3757330  39.1419840  30.4666543
   6.8462282  37.8856754  31.1675882  30.8789015  48.3294010  64.7624445
  30.5221272  49.2173433  64.7847414  30.2691746  47.8400850  64.2101431
  22.1417379   9.4166732  57.6587486  22.3439002   8.5557449  57.2924614
  22.2582817   9.3087357  58.6026764   3.2139206   8.4709841  56.8833780
   3.7487635   7.8778726  56.3557482   3.5909849   9.3367583  56.7268848
  21.6546273  13.9345455  28.1121659  21.8331361  13.0273378  28.3598399
  22.0220709  14.0193689  27.2323823  54.8853159  58.5945797  28.2199430
  54.2475176  58.5160923  28.9293694  54.8636007  59.5208931  27.9797387
  57.9900837  63.7079334  36.3698578  58.0903292  63.9411116  37.2927928
  57.1875858  64.1522646  36.0963607  43.0244589  61.7675734  19.0578759
  42.3348665  61.5763855  18.4221506  43.3254671  60.9074020  19.3506801
  60.9892941  42.5093222  15.2438688  60.9420347  43.4538555  15.0960445
  61.2390232  42.4230766  16.1638856  56.9810486  53.4835005  12.9738581
  56.5872097  53.7479734  12.1424878  57.8724337  53.2212210  12.7439141
  49.0929842   6.2224370  55.4108620  49.0586424   5.3246808  55.0805807
  48.6751032   6.7454815  54.7267294  45.9659767  17.9516959  40.0196409
  46.5506220  18.6700547  40.2612638  46.5025187  17.1645117  40.1129103
  68.8169479  44.5678902  43.1646776  69.0674067  45.0574446  42.3811960
  68.1587124  45.1173401  43.5901928  51.6803408  44.8057747  14.3721807
  51.0260820  44.1366768  14.5733929  51.2924337  45.3133583  13.6593592
  26.7601657  33.4097457  64.1751862  26.1867929  32.8818202  63.6195135
  26.2128782  33.6522222  64.9221230  47.0028067  27.5694060  59.3014431
  46.8470192  28.5086656  59.2026806  47.5840330  27.3453045  58.5746765
  32.9786897   4.3839592  21.4690518  33.6934209   4.6493772  20.8903074
  32.5293159   3.6872077  20.9906864  52.5148106  61.0310650   1.8656288
  52.8480959  60.6158543   2.6610854  51.6300488  60.6799603   1.7648460
   7.0779926  24.7489429  27.7973557   7.3899335  23.8693047  27.5848389
   6.5637326  24.6341395  28.5964727  76.2617111  45.2067518  17.9722655
  76.6978884  44.4744253  17.5367427  76.9226885  45.8986473  17.9972196
  24.1269064  56.7684460  17.0424736  23.7539434  55.9128237  17.2547138
  23.8557577  57.3339605  17.7655935  55.4053926  70.8836794  30.6420159
  54.5141411  70.9136391  30.2941656  55.7338953  70.0220728  30.3852034
  53.9093590  54.4221735   2.5593928  54.3247509  55.1820946   2.1517165
  53.6964703  54.7126341   3.4462655  52.9735231  36.3788700  63.0908012
  52.3659801  36.7738652  62.4654198  53.7305212  36.1260819  62.5623274
  59.8008680  73.9113760   5.1746398  60.1177788  73.5814238   4.3338469
  58.8525629  73.7861586   5.1390207   4.6408418  17.1092045  33.5918760
   5.0705874  17.6337612  32.9163098   4.0089640  16.5729642  33.1129074
   1.9023107  35.8972001  50.3972197   2.6225662  35.2722049  50.4799604
   1.1919753  35.5134916  50.9114408  44.8475027  47.4810839  14.6085668
  44.7477627  46.7022467  14.0611243  45.4098940  48.0628538  14.0972090
  13.1039977  10.1323819  10.2762246  13.3311558   9.2040646  10.2227604
  13.9036429  10.5899715  10.0165880  69.5964718  73.9466524  31.4365792
  69.4625616  74.3650532  32.2870183  68.8485384  74.2291546  30.9102488
  32.5353789  14.0481353  19.5414567  32.0053697  14.7014403  19.0848231
  32.7843547  13.4232247  18.8604808  74.7068214   4.0596318  13.0728447
  75.2240372   3.2745239  13.2526338  75.2497387   4.5721358  12.4738348
  67.8689671  60.7617188  21.1657548  68.4599447  60.7301283  20.4134393
  67.4683952  61.6298342  21.1193728  15.8170342  26.3244009  46.9457150
  15.1293421  25.7671595  47.3101282  15.8661270  27.0680499  47.5463867
  19.3833637  19.6614015  47.6256084  18.9419401  18.8131821  47.6691818
  19.5939624  19.7744727  46.6987324  17.7361250  24.7040486  59.0496683
  18.3540654  24.4484758  58.3647871  17.3358917  23.8811040  59.3303919
  26.9439960   6.7273086  23.3611250  26.0290360   6.5020847  23.5295081
  26.9072437   7.5971997  22.9634166   4.7237977  68.7205648  62.4497700
   4.7227839  69.0449381  63.3503342   3.8089904  68.5010290  62.2732401
  21.1702275  25.6591320  62.2308207  21.4298797  24.8210239  62.6134253
  20.2228761  25.5862451  62.1148634  31.0253644  55.8911085  64.5277166
  30.5122995  55.4473782  65.2030706  30.5155969  55.7765341  63.7256956
  70.7330465  21.6208816  64.3180704  70.4646873  20.8025694  64.7358990
  71.6765499  21.6700840  64.4717264  10.7351458  33.0454302  17.2085822
  11.1636519  33.2144713  18.0476522   9.8625314  32.7305412  17.4444234
  62.5918818  20.4746580  19.3935299  61.7730808  20.4565120  19.8889804
  62.8179598  19.5526910  19.2706573  40.3429651  68.0537653  15.2856946
  40.8932018  67.2723150  15.3386950  40.5005693  68.3985043  14.4067490
  71.9573402  55.7006884   3.9639434  71.7254543  56.4926767   4.4489318
  72.7476740  55.9392738   3.4794983  43.9356041  32.5343800  62.1056271
  44.6510410  31.8998814  62.0632696  43.2395554  32.0792294  62.5795269
  68.6360645  40.5523157  31.3629174  68.5912895  40.1908636  30.4777169
  68.7109327  41.4975786  31.2321496  60.2845097  66.4478540  60.8654833
  60.1617241  66.8610764  60.0108433  61.1829662  66.1183119  60.8453178
  14.6452117  59.5907688  52.2154188  14.7760272  58.9876270  51.4837456
  13.9204276  59.2110777  52.7121639  69.7209024  64.8329687  16.1032319
  69.8978758  64.6328640  15.1840639  69.5466518  65.7741117  16.1142123
  21.9291687  24.9881911  59.4325686  22.0592761  25.1592422  60.3653288
  21.6466260  25.8286881  59.0720606  53.3655930  23.6609983  56.1952019
  52.6483917  24.2539740  56.4193392  54.1575241  24.1819572  56.3281441
  52.1153545  58.1363392   4.0191147  52.6866531  57.5474453   4.5121139
  51.3091373  58.1743193   4.5337102  69.4631672  67.7214575  15.7331443
  70.1186037  67.8958368  15.0576985  69.8990965  67.9490995  16.5543497
  78.3922672  50.6862783  17.5668764  79.2373896  51.0513592  17.8290093
  77.8259182  50.8241987  18.3261240  51.8751860  57.7632189  26.0635900
  51.9630432  57.7561808  27.0167232  51.5074015  56.9055367  25.8506227
  74.8855686   6.8112773   4.0079042  74.8708010   7.7568150   4.1561311
  74.4872665   6.4392364   4.7947806  29.2694068  18.0492902  61.0029268
  30.0072885  18.4929419  61.4211798  29.4937944  17.1197116  61.0449505
  59.5189762  22.9210401  14.7139299  59.5862389  22.2157764  15.3576016
  58.5777760  23.0581737  14.6063638  69.3759155  61.0295296  18.9551008
  69.1319132  61.9203568  18.7038541  70.3274679  61.0044050  18.8543856
  15.9764659  17.1387947  34.9768543  16.0844755  17.9890776  34.5507264
  16.3024437  17.2736967  35.8666682  22.9421091  10.5745637  34.0960550
  23.2861614  11.4545262  34.2494273  22.0533204  10.5997503  34.4505286
  76.9989157  11.7886794  12.0258653  77.1408844  12.0753551  11.1237049
  76.7017174  10.8823657  11.9452262  58.7993765  63.6994410  26.0243368
  58.1809807  64.4083357  26.2012243  58.6423302  63.0646229  26.7233157
  72.0225954  61.7872524  18.5689485  72.2859001  62.1624327  17.7286255
  72.1001720  62.5118351  19.1895878   3.5330272  25.0088239  18.1664383
   3.6853033  25.4381561  17.3245847   3.4317893  24.0823984  17.9479909
  64.5613575  40.6208134   6.7592680  65.1362467  39.9588871   7.1434391
  63.6770058  40.3222132   6.9713867  31.8716049  13.2251048  31.7777467
  31.1450958  13.7937546  31.5226936  32.4206686  13.1725407  30.9954429
  72.9775620  69.2587709  31.4656186  72.5598431  69.6239758  30.6856370
  72.2510958  69.0659904  32.0583391  68.1296921   6.0081422  62.5659037
  67.3447180   5.4859227  62.7312279  68.0294466   6.3122624  61.6638517
  36.8161726  40.9465456  10.4225886  36.2267256  41.5554905  10.8675230
  37.4768424  41.5069675  10.0155628  61.6104031  45.0556755  11.3567269
  61.6391563  44.1482925  11.6601336  62.5236607  45.3420162  11.3708854
  16.9066250  22.1078348  56.9229794  17.0276809  21.6976643  57.7793312
  16.0601294  22.5501108  56.9867611  44.8767185  38.2616544  63.4957314
  45.8119869  38.2216597  63.2959652  44.8340940  38.6638188  64.3633032
  53.1894350  62.6573610  32.7655959  53.2724810  63.0946445  33.6130142
  52.8257799  61.7969704  32.9746723  74.4638252  27.4400711  36.4216781
  73.7080479  27.7066422  35.8982563  74.8419046  26.7048120  35.9393072
  22.9780054  45.6097412   4.0510908  23.8084197  45.7057524   3.5848019
  23.2261038  45.2914906   4.9190730  28.3432913  33.4385610  62.0197392
  28.7608624  32.6043391  61.8053961  28.0772328  33.3451748  62.9344654
  49.8371458  11.2987816   8.6390197  50.4745817  10.6288946   8.3917242
  49.0678930  11.1070454   8.1026238  45.5083704  64.6659660   2.6401410
  44.5730114  64.5615959   2.8146252  45.5482578  65.2816486   1.9083124
  11.8784022  61.2216139  15.5263042  11.7439258  61.0492373  14.5944071
  12.7533817  60.8793688  15.7093632  75.4683924  68.4269047  19.8656285
  75.1542282  68.3962679  20.7692838  75.0731897  67.6613235  19.4485724
  30.8122158   0.6414298  58.6758614  31.4618111   1.0789859  58.1255865
  30.0616765   1.2354970  58.6788654  66.0074663  20.3235579  50.8593941
  66.4550734  19.6716523  50.3200436  65.3850937  20.7407427  50.2637053
  65.0221872  72.4631119   8.4547335  65.3705025  71.5961504   8.2466751
  64.6337557  72.7682590   7.6348323  11.0504544   1.8732651  12.3438323
  10.9090042   2.7568829  12.6836014  11.2371135   2.0013119  11.4137816
  64.8103285  37.6596737  33.6749721  65.2677441  37.1113420  33.0375290
  63.9127254  37.3271966  33.6765265   5.5350232  23.0599308  21.3895607
   6.2769628  22.6892543  20.9116960   4.9163261  22.3341870  21.4716768
  47.4880981  25.9837794  63.0758858  47.5027370  25.5459571  62.2248125
  47.9321051  25.3749156  63.6661196   7.4221879   7.5553501  13.4842825
   7.6486319   6.7026794  13.8556409   8.0462670   8.1628883  13.8813388
  51.0553360  53.5763788  49.4943571  50.3286409  53.7422991  50.0948715
  51.5740108  52.8984785  49.9275494  79.0799601  44.1341114  27.7371502
  80.0324686  44.2124796  27.6840687  78.8602609  44.4680500  28.6068892
  35.6552124  42.9923582  17.9829347  35.5075002  43.3792734  17.1199703
  35.2676105  43.6176586  18.5953045  57.6831484  50.2203178  46.6313887
  57.9201889  50.7699299  47.3783636  58.5210371  49.9177122  46.2812376
  59.9503994  49.3111467  29.5202422  60.4231119  48.5002327  29.7078419
  60.6354523  49.9420643  29.2991686   5.6794333  61.4708281  42.0715380
   5.6038421  62.1361828  42.7555132   6.3053811  61.8386364  41.4477301
  62.0956612  19.8820984  16.3231015  61.9209194  18.9743483  16.5714657
  61.4020395  20.3849792  16.7499804  15.2979434   9.2474651  29.9716425
  14.8636472  10.0134611  29.5963192  15.7942319   9.5930845  30.7135820
  59.6088171  63.0178118  11.2113988  60.2634954  62.4066544  11.5492153
  59.6141911  62.8754902  10.2648544  16.5228891  66.0306644  18.4061515
  16.3665152  65.2834225  18.9835680  15.6843102  66.1739349  17.9674160
  76.9194269   6.6541344  48.8799095  77.8739548   6.6812736  48.8138199
  76.6147327   7.2439456  48.1903315  39.9869275  27.2322989  13.8827753
  39.6046233  27.4710321  14.7272170  39.4532084  26.4989018  13.5769904
   0.8201766  44.7663975   3.9334804   0.9613335  43.9878654   4.4721803
   0.9285473  44.4580126   3.0338216  49.4630384  51.1166906   8.7779951
  48.7326527  51.2528372   8.1744742  50.2104473  51.5310621   8.3468288
  37.0074129  73.4512806  57.4763441  37.6530743  74.1265631  57.2681522
  37.3347259  72.6644373  57.0404816  12.5533664  23.1024957   7.6209521
  11.7469954  22.9754663   8.1208134  12.5478518  24.0312576   7.3894328
  47.3566628  25.1020122  60.4578972  47.0954704  25.8750772  59.9575233
  47.8578186  24.5730281  59.8372078  19.7801280  26.2612820  20.1153421
  19.2629457  25.8584213  19.4178784  19.2454493  26.1546779  20.9020996
  67.7608871   6.1700886  24.2288899  67.7556324   7.1214128  24.1231203
  67.3804617   6.0232782  25.0948882  45.6772995  57.6826525  18.7477970
  45.7492590  56.8225956  18.3338392  46.5565348  58.0550528  18.6807418
  56.7098570  54.3160391  20.5687952  57.4990606  53.7794781  20.6429100
  56.3594723  54.3509007  21.4588785  76.9288063   9.2009085   4.6721482
  76.5849924   9.5644617   3.8561508  76.8550634   9.9168777   5.3031653
  13.0024815   7.4425721  38.8324046  13.6279714   6.7352438  38.9895082
  13.4543669   8.2323122  39.1296291  49.1478443  19.0796018  61.2292147
  48.4417057  19.4003427  60.6682062  48.8066912  19.1700161  62.1189737
   0.5995991  17.6924348   7.2778904   0.7607156  17.5771248   6.3414198
   1.4603049  17.5884056   7.6835942   1.2783682  20.9610653  15.5558777
   1.6361348  20.8658862  16.4385867   1.7826892  21.6767144  15.1689148
  22.0489788   7.6242775  13.5267973  22.0867348   8.0980170  14.3576860
  22.0574784   8.3103204  12.8593349  53.1609535  61.8529654  62.6147127
  52.8793621  62.4840641  61.9524050  54.1007566  61.7511320  62.4642611
  56.2426186  63.9978218  23.6349988  56.2396860  64.7357225  24.2446923
  55.4499197  63.5062885  23.8500571  22.8456807  33.6674595  21.0533571
  22.9185247  34.4229913  20.4701805  21.9035602  33.5450721  21.1702442
  15.4291046  65.8043289  38.1446934  14.6857333  65.2111721  38.0360794
  16.1577320  65.3563786  37.7149606  17.0477974  10.4458463   7.5064814
  16.3564110  10.6823993   8.1247514  16.5998566   9.9404794   6.8281120
  70.8302832  46.3154936  27.7092385  70.8446550  45.3633261  27.8062201
  70.0330019  46.5903521  28.1620359  16.2501907  21.6918993   3.3811375
  16.2506270  20.7358479   3.4280220  15.5896151  21.8989801   2.7200866
  73.0365753  18.7189019  14.3028438  73.7569761  18.5256898  14.9027753
  73.1380844  19.6484351  14.0981650  24.2862368  12.9133105  29.7530699
  24.4625926  12.9541922  30.6929946  24.0082335  13.7998223  29.5227599
  46.4742041  14.3477654  54.6788073  47.2851944  14.8036695  54.4536781
  46.4129686  13.6380863  54.0394020  64.6155882  20.6167507  17.0438826
  64.8526525  21.4376855  16.6124892  63.6624861  20.5724692  16.9673026
  56.9363832  40.6520700  49.2161179  56.2142229  41.2634659  49.3607330
  56.5589094  39.9594975  48.6738157  74.9834347  65.7122660   8.7312526
  75.6665230  66.3811350   8.6839712  74.4115114  65.9009933   7.9872662
  58.0820370  70.3958464  17.0121276  57.7479744  69.6951056  16.4521337
  57.5905132  71.1720324  16.7434752  19.4180310  19.4778705  11.6171372
  20.1055479  18.8544178  11.3829136  19.8750973  20.3133225  11.7137837
  75.1050615  17.1053886  41.3598108  74.8033476  17.9578412  41.0459232
  75.3746557  17.2649133  42.2642994  16.0220528  34.7728658  53.4559631
  15.1787376  34.6924949  53.9016008  16.4992034  33.9802337  53.7015104
  67.3611879  66.2165976  12.2480357  66.4061785  66.2495756  12.1923769
  67.5474930  66.2438488  13.1865346  40.2765465  11.1978066   9.5215321
  40.9233093  11.7276871   9.9875307  40.3633022  11.4641893   8.6062479
  33.3272076   8.3703804  42.2367764  33.7250829   8.9720583  42.8659916
  32.5695395   8.0091906  42.6969004  25.1095748  33.4446931  30.2291179
  25.6302142  33.8702631  30.9103370  25.3445196  33.9066935  29.4243884
   6.5587711  26.8778181  51.9800615   5.9373003  27.6046157  52.0221615
   7.3483276  27.2128987  52.4049759  28.7112832  21.4747548  34.2242026
  28.7997842  20.5233979  34.2818260  27.9281211  21.6739607  34.7372389
  27.1408415  13.1707048  26.5367436  28.0055714  13.4285760  26.8560863
  26.8523049  12.4926567  27.1476698  61.5751696  65.6545734   7.4509257
  61.4617825  66.4250135   6.8943316  62.2221947  65.1198483   6.9908518
  53.9333344  51.8884182  46.9257545  53.6121845  51.0175467  47.1595955
  54.4152832  51.7547989  46.1096048  58.5528994   3.6089495   5.5855727
  59.4275427   3.2403138   5.7094258  58.7084723   4.4684216   5.1939905
  18.3253348   7.7029109  11.9565511  17.3954070   7.5605893  12.1332169
  18.4418273   7.4248916  11.0480547  67.5426435  11.5641510  13.6584687
  67.5952768  10.6876552  14.0395403  67.6259661  11.4208496  12.7157307
   2.6558459  51.3226318  27.3921108   3.0252767  52.2045946  27.3485756
   2.8304926  51.0337496  28.2878089  71.0921717  29.9430513  64.4389534
  71.0756588  29.7203588  65.3697395  71.3837099  30.8544803  64.4158745
   5.3077632  28.1775188  27.5062394   6.2424034  28.2390785  27.3090315
   5.2621478  28.2073092  28.4618878  36.0892224   4.8850694   7.9320461
  35.9262300   4.6558127   7.0171106  35.4841208   4.3340454   8.4284890
  10.3242457  21.2759519  12.0612848  11.0861337  21.2197137  12.6379967
   9.9060559  22.1040821  12.2969759  19.6795416  62.0932579  45.0601006
  20.2735710  61.8662167  45.7755136  18.9454937  62.5332928  45.4887962
  56.8964100  44.9816656   7.1801633  57.3708773  45.3759432   7.9120481
  56.0397434  45.4085207   7.1923256   1.2471732  63.2857323  24.0528274
   1.9685675  63.8897896  24.2287230   1.2726586  63.1516409  23.1054068
   1.9112381  43.0995798  63.4815073   2.1462706  43.3054447  62.5767374
   1.5784082  42.2028780  63.4444141  20.4898810   5.2712840  16.3198149
  20.5721116   6.1899763  16.0639369  19.7492898   5.2568787  16.9260740
  76.2081861  59.7656012  29.1578937  76.4502525  60.2111864  28.3460522
  76.2805367  60.4408407  29.8324704  40.1512623  15.3707802  42.2777605
  40.9120417  14.9657357  42.6941633  39.4144726  14.8158467  42.5335312
  75.9296417  65.5455780  14.3185472  75.3085566  66.2437153  14.5261252
  75.5688667  64.7690248  14.7463810  11.2763596  49.1554785  41.6528177
  11.1791968  50.1038790  41.7384243  12.2194290  49.0184736  41.5629292
  12.2642028  24.4645619  11.6299796  13.0765629  24.0662217  11.9424343
  12.4895239  25.3828859  11.4811695  67.9559517  18.4994125  61.6760969
  67.6747942  19.2577946  62.1879959  67.1849108  17.9331315  61.6436863
  13.8267684  27.6077294  24.7142458  14.0313387  26.7009568  24.9426055
  13.1540048  27.8673100  25.3437209  22.6079226  25.1000142   8.7500107
  21.8177795  24.6247673   9.0070122  23.3283877  24.5304894   9.0198296
  32.9377842  17.3628283   7.8559244  33.7603641  16.8742502   7.8856379
  33.1884432  18.2659149   8.0504394  11.2468112   6.5768886  61.4550304
  11.0687971   6.2430149  62.3342752  10.4650807   6.3518572  60.9505606
  49.2893553  12.3903227  30.3001857  48.5304451  12.2812259  30.8732343
  49.7491026  11.5522027  30.3494143  17.4665117  57.5037479  53.8304901
  16.7728567  56.8562651  53.9563513  18.2750440  56.9913960  53.8292313
  50.9352398  61.1149836   5.6832862  51.5486860  61.1986494   4.9532771
  50.4112053  61.9152498   5.6486964  43.4454918  67.6598167  36.2396979
  43.1121778  68.4137249  36.7262697  43.8649464  67.1126270  36.9036818
  62.2291470  67.6780319  16.8622446  63.0192947  67.4350023  16.3797104
  61.7044878  68.1698608  16.2305272   7.5490248  54.2308140   3.7901247
   7.3449880  53.5173130   4.3947083   7.9217851  53.7957668   3.0233023
  14.8100615  29.3871236   4.7542587  14.5757496  30.3133845   4.6961799
  14.8225880  29.0858173   3.8458040  27.7356744   7.6280743  52.5032377
  26.7790484   7.6298654  52.4701643  27.9985237   7.0340288  51.8002033
  62.3270226  38.7878776  63.9065075  62.0796967  38.4961367  64.7839737
  61.5961456  39.3363976  63.6215925  53.5818052  62.5889826  23.5534453
  53.5931873  61.7185593  23.9515281  53.9120913  62.4506998  22.6657391
  32.3364449  14.7779942  41.4600039  31.4191127  14.8435795  41.7253971
  32.6936054  14.0761340  42.0041180  59.3113756  50.2400351   8.6920041
  60.2375412  50.0075722   8.7584442  59.1814327  50.4438257   7.7658212
  11.0019875   2.5721383  36.4611554  10.2106094   3.0673456  36.2496758
  10.8482969   1.7041935  36.0879493  78.3108425  40.2191687  10.1213300
  78.1791878  40.1975203  11.0691857  78.2287169  41.1441517   9.8891747
  30.2858114  38.1738305  18.5562074  30.5764127  37.2622728  18.5271263
  29.3717074  38.1249976  18.8359535  49.5721626  73.0615330  53.5336542
  49.0100908  73.4580994  52.8680468  50.0132847  72.3443794  53.0783129
  19.7953093  65.6355906  12.1332788  20.1013780  66.1152077  11.3635242
  19.5952046  66.3163662  12.7757251  31.3771129  15.1598287  16.9440889
  30.5592799  14.6627927  16.9624150  31.1277890  16.0415351  17.2209716
  27.3426127   3.8891819  64.1953373  28.2575440   3.6890098  63.9977026
  27.3477411   4.8139060  64.4425058  14.3230963  18.9432049   2.3787692
  14.6567881  18.5203576   3.1700224  14.3467224  18.2566714   1.7121765
  52.5321007  38.8735723   2.6977015  52.0336771  39.0487242   3.4959036
  51.9423246  39.1251540   1.9869977  23.7619162  41.7402124  15.0109220
  24.2816734  42.3977947  14.5486796  24.4099951  41.1722040  15.4275656
   2.5094637   9.0992552  11.0137653   2.5486153   8.1775588  10.7584715
   1.6200969   9.2178535  11.3472211  58.4760904  61.4011431  40.6697369
  59.1359568  61.9876385  40.2998257  58.7208128  61.3160944  41.5912104
  13.2523203   5.4890668  23.8981938  13.8623011   6.1887151  24.1319633
  12.4512315   5.6994945  24.3779945  73.6115170  12.5288129  35.2633047
  73.6210489  12.9243457  36.1349106  72.6836300  12.4766791  35.0340796
   6.7173642  61.5105534  35.1529384   6.5665299  61.2915421  36.0724592
   6.7217761  62.4675179  35.1322651  55.8808613  72.9135990  45.3280115
  56.7368221  73.3217430  45.4583073  55.7869816  72.3127794  46.0672235
  31.0911727  10.6349778  27.0991325  30.1669002  10.5487835  26.8656349
  31.4049864   9.7335839  27.1715450  33.2115412  67.1972036  52.6296282
  32.5313044  66.8729496  53.2198524  32.9625964  66.8600416  51.7690611
  43.7787867  44.2251492  63.7524319  42.8381824  44.2525482  63.9277554
  44.1839457  44.4969654  64.5759583  62.5876916  -0.1437661   7.1271765
  62.0605338   0.1249507   6.3747638  63.2696736   0.5246881   7.1927965
   0.3734846  21.4051437  32.8327847   0.7560435  21.1809015  31.9844961
   1.0549530  21.1860967  33.4682775  66.3362837  24.1213298  33.6170983
  66.5189314  24.8703957  34.1843462  67.0985889  23.5516191  33.7198019
  56.9071388  67.8219461  58.4277201  56.0335684  67.4812794  58.2352304
  57.4877977  67.0692873  58.3156013   1.1125860  32.2325063  59.9917698
   1.5652302  32.6156187  60.7431459   0.5551218  31.5521526  60.3693724
  75.1386786  13.0529511  13.6790347  75.8442545  12.5629413  13.2567978
  74.3514204  12.8048778  13.1943536  73.2378483   0.7431454  32.9452920
  72.7693367   1.1089171  32.1949983  73.1467152  -0.2044959  32.8457808
  75.4597616  22.1571851   7.5925261  76.1723566  21.6271901   7.2353870
  74.9726105  22.4529862   6.8234897  31.2609005  20.5791712  11.3150668
  30.6557131  19.8527169  11.4642084  31.0674906  20.8731294  10.4248893
  26.5906167  38.9433742  63.2842159  26.7570472  38.3136272  62.5828218
  26.2562394  39.7195673  62.8348303  19.3388224   6.4292556  27.9432058
  20.1379156   6.9140184  28.1498170  18.6290920   7.0044953  28.2288861
  55.8148766  39.3483686   5.5597442  56.5833139  39.5575356   5.0287253
  55.2285147  38.8860536   4.9608493  51.8254423  19.3232632  18.7918496
  52.3631907  18.6499047  18.3751369  51.7155600  19.0185606  19.6925795
  16.1330271  52.8021526  16.0525763  16.0540605  52.1707296  15.3375220
  15.6659901  52.3964691  16.7830074  28.8167834  16.0478020  46.3054419
  28.8859224  15.1374662  46.5930891  28.1098080  16.0420573  45.6601620
  40.8503437  70.5702496  32.0567894  41.1633682  70.2784348  31.2005806
  40.7556009  71.5184832  31.9667315  48.0108690  23.1622124  29.0386248
  47.2020769  23.0640149  28.5361862  48.0815458  22.3498464  29.5399189
  68.7159967  13.7461162  60.9509897  69.1284323  12.9192781  61.2009287
  69.1902876  14.4109094  61.4503193   0.6217756  66.0801172  16.7424071
   0.9071436  65.5429792  17.4815118   1.4153075  66.5305567  16.4531898
  12.3335969  30.3919077   7.2229671  12.8597939  30.8021832   7.9092789
  11.9711149  29.6079111   7.6355052  16.3689959  29.2209721  22.5235248
  16.2899458  28.4578419  23.0959058  15.4930043  29.6067405  22.5163364
  75.2733421   6.1341715  31.8202186  75.6219864   6.9857061  32.0839810
  76.0466814   5.6205136  31.5871239  14.9843907   9.0617496  14.2337453
  14.9607337   9.2816156  13.3024395  15.5836046   9.7028559  14.6160495
  73.6960936  59.8545647  27.8093910  74.4036007  59.3981791  28.2647777
  72.8965092  59.5328808  28.2258296  42.7049494  23.3225346  54.9574280
  42.0987511  24.0224338  55.2001047  42.1940660  22.5188899  55.0543165
  63.1167030  55.9413052  36.8215775  63.3035374  55.0976372  37.2333431
  63.9594889  56.2279987  36.4698029  59.8138285  53.2887077  55.7992697
  60.6042576  53.6962128  56.1533737  59.7201109  53.6674261  54.9251890
  32.4962950  48.5264969   0.2220186  31.9058013  49.2695236   0.0977025
  33.3678818  48.9189959   0.2721571  21.5123773  35.8294559  16.1598849
  20.9667039  35.6048918  15.4061973  22.1631885  35.1287889  16.2016463
  33.4037852  10.3940558  35.6148291  32.8344512   9.6272475  35.5508494
  34.2245603  10.0539148  35.9710097  27.0926476  19.5262480  60.1363897
  26.9180226  19.8210382  61.0301685  27.9720116  19.1502094  60.1757193
  14.8993003   4.7048369   9.2853045  14.5140505   4.3365088   8.4902269
  15.0843680   3.9443195   9.8362994   2.5644174   5.5472797   4.0900865
   1.6682579   5.4343164   4.4068971   2.7960029   4.6962735   3.7180802
  76.9243860  39.9768233   2.8422827  77.8707504  39.9392486   2.9808819
  76.6539717  39.0603352   2.7860871  54.2379284   4.6497062  45.9937620
  54.3836260   3.9549771  45.3516150  55.0738382   5.1139420  46.0381937
  64.0446377  24.8993373  10.5469525  63.3315992  24.2999291  10.7672238
  64.2563868  24.6951914   9.6360630  22.9271746  37.9856467  62.3211432
  23.6224985  37.3370886  62.4312639  22.9109907  38.4626627  63.1508589
  19.2476702  31.5756416   8.2087040  19.8293543  31.1967349   7.5496864
  18.4553349  31.8071699   7.7241093  25.7523036  12.9170287  21.6629386
  25.6042743  12.7190387  22.5876641  26.6848063  12.7482092  21.5281439
  35.4617906  27.3575020  16.3693166  35.4241371  27.7951074  17.2197974
  34.5619988  27.3879838  16.0442305  18.7988949   5.2682000  18.4240580
  18.2031941   6.0167468  18.3916628  19.1657746   5.2921391  19.3078327
  18.0699790  48.9861870  21.9134808  17.5924146  49.7636604  21.6241765
  17.7137816  48.7954044  22.7812123  16.8454385  69.1828728  14.4722116
  16.8688035  69.1511345  13.5158241  16.3495910  68.4043264  14.7256517
  64.1702843  23.8491368  61.2282038  63.8199759  23.0464625  61.6145039
  63.7050152  23.9374781  60.3963661  68.3176708  58.7215471  59.6579742
  69.2660713  58.5963917  59.6911716  68.0661821  58.4164095  58.7862635
   3.4731972  30.7944775   5.5723870   3.0112961  31.0427666   6.3731557
   3.1347945  29.9244881   5.3606409  71.6038513  52.6633120  25.4987407
  71.1389446  52.9816484  24.7249484  71.0326624  51.9850206  25.8591557
  71.1539078  72.8900003  10.8883142  70.5421829  72.1538353  10.8975530
  71.7916298  72.6800632  11.5705633  66.3917255  47.3678112  61.0929966
  66.2352943  48.3065271  60.9901762  65.6048441  47.0401621  61.5285349
  14.2203522  18.2733691  17.6980746  14.3416560  17.3402846  17.8737760
  15.1092553  18.6234701  17.6388049  17.7634108  11.5090942   4.2937788
  16.9665587  11.8807280   4.6721259  18.0232418  12.1362960   3.6189914
  34.0755391  27.5912952  42.2921038  34.5904136  28.3599472  42.5376797
  33.7408519  27.7961588  41.4190340  29.8046279  15.2941167  61.2499809
  29.7107267  14.3519437  61.3904190  30.0215077  15.3774226  60.3214025
  45.7077789  20.7718778  16.2033916  45.3152370  20.1079130  16.7702210
  46.4107943  21.1515474  16.7305100  51.8348408  31.3150334   9.7662747
  50.9141302  31.5502262   9.6513742  51.8916845  31.0041761  10.6698072
  26.1468935  15.1630819  35.3137398  26.8123055  15.0010264  34.6450114
  26.6419983  15.2487552  36.1284566  60.1179552  53.0537415  36.7295909
  60.2888060  53.2688665  35.8126593  59.5637178  52.2741604  36.6934490
  33.5148025  57.7154303  63.9116001  32.7928758  57.3423529  64.4174290
  34.0524364  56.9613838  63.6695290  17.8660321  12.8637969  17.6248252
  17.7619755  13.8152003  17.6401591  18.8115156  12.7272069  17.5645244
  57.3173141  72.5922346  52.0395136  56.9443321  72.9511642  52.8446770
  56.7208910  72.8821564  51.3492537  51.2180901   9.1620541   2.3458883
  51.9320202   9.7492331   2.0973815  50.4447269   9.5315528   1.9197264
   4.2156616  12.1219718  18.5747075   4.4678754  12.3600876  17.6825631
   3.2866627  12.3461545  18.6288857  57.3185396  34.5439029  13.6020136
  58.1663322  34.6841693  14.0236819  57.5270891  34.0711212  12.7962756
   8.9867175  14.6112788   4.1433674   8.2580018  14.6835625   4.7597936
   9.2685801  15.5145323   3.9987370  27.4374938   8.6466837  10.0393796
  27.3385167   9.5968527   9.9792618  28.2964587   8.5203791  10.4424441
  37.3097038  61.3030195  57.9808283  37.6518917  62.1304989  57.6425695
  37.5424600  60.6570721  57.3138905  46.0777521   4.5506051  15.3491724
  45.3524160   4.7532457  15.9399819  46.6697311   5.2982843  15.4314518
  27.0776129  55.0273371  62.7818966  26.8509197  55.4479551  63.6113071
  27.1185946  54.0939379  62.9900360  30.8399868  55.6609440  20.7316017
  31.4042234  56.4221811  20.5960226  30.0529528  55.8522797  20.2215028
   1.0561728   1.6633654  61.1384583   1.3665609   2.5461683  61.3398266
   1.8410096   1.1911248  60.8605146  76.7282534  71.6953659  43.5579014
  75.9076071  71.3955784  43.1668806  76.8782425  72.5569773  43.1688499
  58.5102463  29.2004800  43.6383486  57.8423166  28.6507511  44.0480995
  59.2235518  29.2262316  44.2761278   7.0876533   9.3480867  35.9846020
   8.0354655   9.2535990  36.0792398   6.8806309  10.1604712  36.4465618
  57.3155785  48.8055134   9.8878926  57.7757788  49.4712925   9.3768311
  57.6982212  48.8684368  10.7630253  78.5741472  63.6404991  25.8229232
  78.8699627  63.6189365  24.9128366  79.3049097  64.0298653  26.3031411
  71.5230239  -0.0752017  61.8947363  70.5668700  -0.1160046  61.9131994
  71.7189181   0.7730821  61.4969015  59.5679951  21.5281916  17.0453870
  58.8050604  20.9764600  16.8728960  59.3761206  21.9466829  17.8846002
  76.0314798  22.4040818  62.1964693  76.7489243  22.7202058  62.7456236
  75.5710936  23.1976986  61.9236183  12.1505725  65.3565550  48.6605263
  12.2791243  64.9379539  47.8093624  11.8418169  66.2377644  48.4498739
  26.6925550  62.3267937   6.1646438  27.5383234  62.2219753   6.6004390
  26.8508410  62.9873943   5.4902661  60.5559206  59.2296171  25.2399635
  60.9552145  60.0917435  25.3562927  61.2648249  58.6114120  25.4174685
   0.7006054   3.6202425  47.9842854  -0.0378285   4.0381283  47.5412083
   0.7358619   2.7391344  47.6119471  34.4860053  30.1492596   7.4096346
  33.8726640  30.8015108   7.7481812  35.2643681  30.6531024   7.1718812
  42.3722982  24.4708204   9.8312080  41.6198683  23.9443827  10.1012981
  42.0171642  25.3512812   9.7091508  21.5614319  61.9175243  47.5220776
  22.3353052  62.0659208  48.0655193  20.8229852  62.1198845  48.0965185
  32.7178836  18.2405066  18.1490862  32.2160244  17.8302944  17.4447465
  32.9448676  19.1059184  17.8088307  24.2085075  73.1211090  40.9053946
  23.8743615  73.4652853  40.0770664  24.7825646  72.3988152  40.6504726
  22.9359460  71.7118454  26.0092688  22.4373150  71.9313526  26.7962980
  23.1795955  72.5589514  25.6360674   9.0995020  50.6369448   5.0865227
   8.5732281  51.3811159   5.3788829   8.8625300  49.9269056   5.6831127
  19.1477966  62.9054642  48.5535049  18.5402179  63.6451101  48.5551500
  18.6439300  62.1807814  48.9238882   1.8879089  17.8960299  60.3405428
   2.5713822  17.6131690  60.9480715   2.0353602  18.8358843  60.2348852
  34.7485566   2.6765043  31.2315249  35.3375864   1.9225749  31.2020779
  35.3309655   3.4328726  31.3017869   2.9422313  67.3996925  15.9702170
   2.2554722  68.0656862  16.0025120   3.3988082  67.5662518  15.1455796
  23.3292556  15.9975660  34.1341782  24.2313838  15.8380079  34.4115520
  23.3699846  16.8218994  33.6493611  45.9962749   5.9780663   5.6310582
  46.8232822   5.9654778   6.1128628  46.2258959   6.3280308   4.7702268
  42.6457453  24.4820523  51.0183573  41.8605423  24.6369243  51.5434361
  42.8308392  25.3273702  50.6092024  52.9101133  21.3701987   7.6994830
  53.5075426  22.0671582   7.9707021  52.7990007  21.5028524   6.7580539
  73.5671043  68.4895325   3.7075457  72.7992821  68.7037659   4.2374399
  74.3126059  68.7137222   4.2644969  73.5856390  71.0678911  44.2333603
  73.7716055  70.6424999  43.3962870  73.3239651  70.3523064  44.8127604
  50.9988880  64.9844456   1.3810237  50.2361631  64.4149017   1.4815314
  51.5254021  64.5621109   0.7023106  57.0994711  24.3137288  41.4635658
  57.3328590  23.3923793  41.3500977  56.2327528  24.2930436  41.8692827
  53.0896950  16.5208018  12.0550215  52.5991440  15.7143891  11.8959928
  52.6779699  17.1683860  11.4828777  10.8520818  35.8289337   7.6901180
  11.5704894  35.9360075   8.3135432  11.2845671  35.6619859   6.8526709
  62.7152681  20.6165886  59.1943932  62.7397490  19.8834312  59.8093033
  61.8040276  20.6552362  58.9039135  64.3017006  24.9675059   2.2717373
  63.8603544  25.6693554   2.7501252  63.8639164  24.1674471   2.5623941
  30.7404804  75.0243521  44.6895981  30.1763773  74.6468973  44.0146542
  31.2393141  74.2808580  45.0281477  11.2564301  62.5146389  21.1620617
  11.1223233  62.6521969  20.2243376  10.3950357  62.6643467  21.5516996
  48.9617920  27.8970480  18.6133444  48.8971186  28.4078455  19.4202745
  49.8206854  27.4775147  18.6636388  12.6468945  10.0675333  55.7354069
  12.6576579  11.0246170  55.7457829  11.7419243   9.8404866  55.5216026
  54.7002077  34.5321941  61.1945915  55.0811958  34.2642784  60.3583479
  54.1873264  33.7751746  61.4776182  62.7787066  73.7655258   5.6361639
  62.4138927  72.8996801   5.8190680  62.1105528  74.1998100   5.1058865
  42.0043802  68.2207632  26.1028886  42.8918934  68.5374880  25.9348679
  41.4521885  68.9976931  26.0151601  32.0968676  24.7374678  12.5795901
  32.9570961  24.9666691  12.9313123  32.1851087  24.8570919  11.6340029
  29.6967888  64.8119450  56.9107437  29.2501807  64.5718575  57.7226162
  30.1851535  65.6050301  57.1315384  22.6296949  32.1869183   0.6111357
  23.0912399  32.8533053   1.1201888  23.2058120  31.4229965   0.6384481
  43.9405346  11.4840734  62.3715544  43.6559725  10.6254196  62.0585537
  44.8507261  11.5543485  62.0837307  -0.0185496  11.3537157  43.7378454
   0.7482570  10.8473420  44.0058565  -0.6595332  10.6947088  43.4712315
  73.0220461  20.6718516  11.6168582  72.6029253  21.4321136  12.0200562
  72.2940874  20.1106095  11.3498056  12.0559180   7.8654033   0.4374745
  11.8531203   8.2875913  -0.3973083  11.3529396   8.1445861   1.0240833
  30.9173393   1.0820451   4.3612018  30.4851675   0.2279680   4.3577901
  30.4418206   1.5884632   5.0197256  43.1584644  56.7962742  13.6428249
  42.3668718  56.8612337  14.1770458  43.7032175  57.5283527  13.9318562
  22.8013301   8.8606536  53.5719299  22.2376537   9.1271454  54.2982101
  22.3230481   9.1278535  52.7870226  10.5775547  66.5466690  16.6795444
  10.8395338  67.2548819  16.0912979  10.1328242  65.9165668  16.1126101
  33.4597325   7.9009551  50.3451967  33.5481262   8.0384892  51.2883329
  32.5352621   7.6866812  50.2200079   8.7138170  70.1300335  53.4172249
   9.0768856  70.5620718  54.1903734   7.7689683  70.2656794  53.4885979
  33.0057621  19.8996449  57.2892523  33.0278516  19.2698503  56.5687656
  32.3097062  20.5119514  57.0508814  52.1869326  27.9203224  41.6857004
  51.3378143  27.9096794  42.1274233  52.0949793  27.2861433  40.9746456
  37.2656727  74.6260405  33.8328815  36.8411875  74.0017939  34.4214034
  37.2616458  75.4520369  34.3165612  36.4123368  13.3085430  42.3146152
  36.2989306  14.2544448  42.2216606  36.9087052  13.2054687  43.1265402
   0.5754273  54.5310688  32.3466587  -0.2505527  54.0875340  32.1536112
   1.2207341  54.0849257  31.7982340   3.2752138  64.0071487  53.4999657
   3.8508314  63.3708382  53.9242363   2.4175929  63.5822678  53.4859324
  72.0890617  21.2089872  48.3447599  71.9321489  20.3476477  47.9578447
  73.0417299  21.3019919  48.3438969  43.5154486  40.5672598  62.0706892
  42.6351357  40.2822781  61.8255949  43.9491177  39.7701526  62.3752975
  10.4251432  26.6049504  63.3258295   9.7727215  27.1835136  62.9310608
  10.1862156  26.5712953  64.2521191  72.1378374  21.0610867  34.0235758
  71.2012720  21.0518622  34.2210317  72.4214697  21.9470215  34.2491961
  44.8790836   5.8939111   1.3170587  44.2493010   5.1810396   1.4239164
  44.9853563   5.9796113   0.3696447  15.1066303  51.1552048  62.5795841
  15.9471822  50.7714128  62.8294039  14.5048344  50.4116726  62.5444412
  78.5685444  28.4290528  17.2054529  79.3604946  28.0645251  17.6006341
  78.1275225  27.6751995  16.8137503   3.1990471  20.0812578  44.4837618
   3.3758688  19.6370912  43.6544943   3.8106829  20.8174491  44.4963264
  62.6807547  65.6973600   3.4738600  62.8296709  65.6611156   2.5290096
  61.9825745  66.3432312   3.5816869  22.9103756   2.7058917  62.3773241
  23.8609743   2.7420032  62.2710657  22.6415038   3.6223447  62.4409866
  31.5013695  18.7429941  43.3367538  30.6012321  19.0614867  43.4041834
  31.6327381  18.5926366  42.4006081  31.9744754  45.2115726  11.7771661
  32.9167867  45.1761293  11.6127753  31.8700433  44.8402643  12.6532114
  43.7376356   2.1129300  41.3175106  43.0933619   2.7958477  41.1310577
  43.4087896   1.3411425  40.8566046  39.6805787  40.5699396  15.5454123
  40.0597191  39.8641038  15.0216949  40.1524878  40.5309963  16.3772881
  40.4572201  15.6700432  55.0644445  39.9233365  16.0488176  55.7628202
  39.9562478  15.8324063  54.2651320  27.6349211  19.1311610  56.0401917
  27.6689029  18.9832366  55.0951052  27.3743129  20.0478196  56.1299276
  39.6123552  59.9021816   6.2032664  39.4215965  59.2916059   5.4912019
  40.5585194  60.0387144   6.1546886  49.4393301  69.1277027   4.1104415
  48.5297203  68.9032269   4.3065217  49.8615074  68.2864141   3.9365557
  59.1616821   7.0229560  24.8976612  58.8008690   7.1441102  24.0193844
  59.0145016   7.8616643  25.3348541  25.9793830  70.6678009  22.7204370
  25.0523734  70.4410791  22.7944732  26.4146399  69.8369598  22.5294113
  77.1329927  34.4942641  35.4274583  76.3048267  34.2372870  35.8328366
  77.0018339  34.3346953  34.4928098  60.6480455   7.8907752  50.3233004
  60.1162529   7.9517013  51.1168480  61.0044432   7.0025849  50.3414249
  13.6216390  72.2687864  34.7802043  14.4100130  71.7735338  35.0025153
  13.4748936  72.8374100  35.5360937  18.5469735  17.7380466  50.8846998
  19.4811940  17.7899003  51.0866213  18.2016695  17.1012747  51.5104151
  26.3705182  39.6628547   0.8216977  25.7438350  38.9890742   0.5580254
  26.3664818  40.2898884   0.0984798  54.0317059  17.8587508  45.2811670
  54.8613882  17.3953891  45.3958511  53.9042091  18.3291364  46.1050081
  46.3566971  64.5347738  21.7217207  46.9745684  64.8002911  22.4028707
  46.4070034  65.2319288  21.0677505  42.1064043  20.0548625  58.7721586
  42.5779247  20.8711314  58.9383078  42.6898050  19.5528221  58.2031012
   0.0096595   5.8165145  34.7629309   0.3361429   5.6995755  33.8707638
   0.6743842   5.4071373  35.3168106  65.1119375  27.8127480  26.3736486
  66.0468960  27.8976750  26.5603852  65.0642443  27.1470881  25.6874609
   4.4742376  71.6873074  62.2984171   4.1722882  72.1952438  61.5453863
   4.5025206  70.7842255  61.9823742  28.2626748  30.1021194   3.5938886
  29.0709352  29.6352196   3.8059089  28.3410144  30.3055143   2.6618341
  56.0941744  14.4073772  38.0601883  56.5402651  13.5945332  38.2979226
  56.6054487  15.0948572  38.4870362   0.9316798  60.7734013   0.5343448
   1.5801212  61.2389088   1.0626048   1.1258646  59.8472023   0.6781623
   5.2094847  44.1577768  50.3265238   5.1465464  43.2032537  50.2925062
   4.3603528  44.4652605  50.0092506  40.4887247  45.4512787   9.8837560
  41.3423443  45.1234150   9.6007901  40.2965784  46.1700344   9.2815071
  65.9918594  59.9105120  28.1683731  66.7595148  59.3622351  28.0060983
  65.8041000  60.3162766  27.3220086   9.5036501  15.6819117  46.2530422
   9.9222678  15.4348123  45.4284620   9.1344184  14.8649609  46.5884399
  57.3398638  42.4239397   1.7927542  56.8621778  43.2531786   1.8130149
  56.6856003  41.7649078   2.0248072  56.3211012  37.5893331  57.5098991
  56.7856979  36.9283319  56.9966173  56.6218805  37.4502540  58.4079075
  42.1793318  28.5397267  61.7765188  41.4110899  28.0485654  61.4853144
  42.8990841  28.1934810  61.2489748   4.4747794  13.3805037  55.4345512
   4.4597042  13.6439133  56.3546705   4.0241554  12.5361407  55.4197311
  46.8361902  18.3832204  20.6378508  47.7097750  18.6375713  20.3405428
  46.8313026  18.5908592  21.5722466  49.1522121  49.5786047  15.4854047
  49.7983217  49.7653961  14.8043191  48.7740183  48.7365007  15.2322876
  52.0630884  61.4704418  15.0925362  52.4806547  61.9049263  14.3488336
  51.2212133  61.9157648  15.1882863   0.0719327  58.9123440  10.0831378
   0.7956403  59.0448093  10.6954551   0.3738992  59.3090153   9.2660093
  36.9145942  37.6464319  11.2337589  36.7916989  36.7509985  11.5489161
  36.7432976  37.5950122  10.2934158  42.7360010  10.2803528  52.5285387
  42.8749657   9.3883032  52.8466034  42.6725721  10.8106971  53.3228588
  48.1012392  51.5249968  16.9966304  48.5080481  50.9648371  16.3356006
  47.7072001  52.2391939  16.4957428  22.2354722  63.6925602  38.0779839
  22.8536677  63.6717176  38.8084841  21.4579511  64.1222858  38.4343886
  44.4982862  72.5035286  39.5502520  43.7460756  72.8187132  39.0491867
  44.1270542  72.2164583  40.3845263   7.8576899  64.3086100  61.4322472
   8.5353905  63.6408281  61.3272810   8.2268608  65.0909805  61.0225630
  29.7764516  65.0074148   9.2676502  30.1724100  65.3607321  10.0642788
  28.8375998  65.1557446   9.3807262  69.0015221  41.3477707   6.4597207
  68.7048578  40.5133057   6.0965538  68.9651394  41.2227392   7.4080217
  11.2757123  19.6856391  54.1090250  12.2108197  19.5580351  53.9492655
  11.2395847  20.3057289  54.8373222  71.8465662  44.3891335  18.8311327
  71.6554308  43.6227274  18.2904673  72.4535036  44.9087572  18.3040202
  39.3764997  38.5377145   1.5169686  38.8699746  37.8867054   1.0313229
  40.1950550  38.6182308   1.0273625  49.5765591  51.3224745   3.8894880
  50.5244493  51.3895750   3.7744710  49.2956209  50.7096577   3.2099548
  36.1488867  20.8406878  47.7570200  36.1049581  21.5563583  48.3911419
  37.0782924  20.7705402  47.5390339  17.5671971  60.9682322  49.5442152
  17.8003359  60.4791641  50.3333187  16.8562734  61.5459633  49.8217916
  24.2098594  44.7525263  23.0476069  25.0386190  44.4360685  22.6881027
  23.9688492  44.0994549  23.7046027  65.4112577  20.6458521  31.1560535
  65.6253862  19.9872994  31.8168783  65.1251602  21.4072800  31.6606379
  27.7386808  70.0614691  54.9103880  27.7330303  69.1052437  54.8675394
  27.3327780  70.2658749  55.7528162  20.7205629  25.5585241  49.9860144
  19.9637139  25.2317309  49.4995832  20.7541323  26.4922071  49.7778320
  74.0838909  31.5892482  41.9777441  73.7131453  31.2527275  41.1619425
  73.4374714  32.2215414  42.2917175  65.2590799  67.2441244  60.9572887
  64.6931124  66.7279863  61.5313292  65.0834751  66.9047785  60.0796556
   3.5638294  20.9257746  49.5544434   2.9035825  20.5849433  48.9510059
   3.7982285  20.1760101  50.1013803  44.4508171  30.1213527  56.1564541
  44.7742176  29.4746041  55.5292654  44.7503138  30.9617949  55.8097649
  32.3118830  17.9238880  48.4058189  32.3242688  18.8687241  48.2529736
  31.9196987  17.5581217  47.6129532  14.5106065  39.9000168  59.8881626
  14.0545821  40.4845428  60.4936409  15.0357270  39.3327355  60.4526758
  20.6024313  21.8994808   5.7661378  21.1007619  22.5917482   6.2004930
  20.4146338  21.2678719   6.4604241   8.5670984  37.2780156  61.8699121
   8.5131931  38.0945182  61.3732767   8.0803227  36.6444588  61.3427639
  54.4467831  47.8458166   9.4823533  55.3877306  47.9388714   9.6313262
  54.3798685  47.2391081   8.7450224  78.1080770  70.4196119   9.5820129
  78.1731701  69.7010231  10.2109981  78.6559439  71.1119556   9.9517971
  48.3576393  13.0685592  60.6363440  49.0640402  13.6569834  60.9027815
  48.0742645  13.4042168  59.7858953  65.3076172  51.9723940  37.5980616
  65.8792496  51.5394306  36.9640183  65.6673288  52.8555584  37.6808715
  20.8487773  17.0299327  35.6868410  20.1842427  16.4805806  36.1025786
  21.6727328  16.5682673  35.8423901  24.3474269  15.6730998  47.7938843
  24.0773654  14.8309696  47.4276686  24.8650241  15.4437089  48.5657072
  24.6878791  74.2664862  47.7713299  24.4197249  73.3782387  48.0065775
  23.9359808  74.8124409  48.0011368  43.6566830  25.5282044  57.9753017
  44.5281792  25.6952381  57.6163721  43.0594492  25.7155633  57.2511196
  19.0292645  45.5081606  49.7979498  19.4163859  44.8093033  50.3251743
  18.4457362  45.0542736  49.1899157  64.9994659  48.4798145  48.9625025
  65.4612255  47.6878166  49.2377281  65.3728867  49.1751862  49.5040226
  31.0990191  20.1576829  53.8400936  31.8666029  20.3004718  53.2863283
  30.8061576  19.2733312  53.6201286  64.2657518  40.8648586   3.5809055
  64.9429750  41.4589453   3.9044124  63.5691547  40.9166574   4.2353559
  40.7232475  10.7424068  49.6601915  40.5556631   9.9035096  50.0896120
  40.0449514  10.8070648  48.9879084  23.6000490  52.8189611  11.2034094
  23.3502126  53.2654333  10.3944147  24.5456219  52.6925468  11.1250186
  16.1121857   1.4837267   2.2329205  16.8000138   0.8358183   2.0801494
  16.1759722   1.6851597   3.1665090  25.0727177  15.9685647  37.9198956
  25.0514269  16.6197956  37.2186971  25.7539105  16.2803352  38.5157204
  13.7066090  57.8439808  59.6185398  13.0327702  57.1985006  59.8319006
  14.3017900  57.3825407  59.0277243  61.5089893   6.3872427  23.6456203
  62.0012760   7.1568668  23.9312172  60.5967045   6.5998131  23.8425589
  64.8160887  55.9765577  60.6253719  65.4393482  56.5842533  61.0234737
  63.9639568  56.3965464  60.7424641  52.0937634   5.3097516  44.1542292
  52.3580027   4.6748966  44.8200893  52.5980520   6.0968274  44.3602276
   7.6437348  35.4598951  47.4822760   7.9314804  35.1544929  46.6219473
   8.4456205  35.7594514  47.9106140  56.6624832  62.1679688  21.0744572
  55.7067823  62.2140217  21.1017990  56.9210243  62.8929329  20.5054116
  49.5564747  21.8170547  14.1428602  48.9176512  22.4703884  13.8577497
  50.3147173  21.9603968  13.5765064  63.3910227  38.1359196  10.7055652
  62.7692318  37.4906969  11.0421598  64.1118526  37.6132727  10.3541756
   3.0565035  29.7403860  27.2529149   3.1421727  30.5564427  27.7458096
   3.9531291  29.4159245  27.1691346  32.1930838  26.0740638  59.1320753
  32.1211267  25.7118654  58.2489777  31.5230489  26.7567921  59.1662645
  72.1878576  42.0254326  31.0185933  72.2278976  42.4028254  31.8973446
  71.7228699  41.1968613  31.1347294  39.4469261   6.2751842  16.0909045
  39.3410420   5.6669909  15.3593838  38.6425018   6.7939603  16.0894299
  29.6152735  67.1516514  40.8332539  30.1314783  66.6105175  41.4306974
  28.7372899  67.1586752  41.2144756  43.2741547  58.9344835  17.9260528
  44.0382528  58.9481020  18.5024190  42.5692463  58.5847473  18.4710538
  11.8087256  11.6798031  35.9827518  11.6609907  12.2438669  36.7418551
  11.7104948  12.2617817  35.2291703  37.8378940  14.4214833  10.3303456
  37.9984117  13.7091565  10.9492612  37.0115352  14.8084116  10.6195664
  12.1782207  56.6516113  32.1482944  12.1072805  56.5822363  31.1962509
  11.9928038  55.7683802  32.4672794  45.9838200  29.6436477  24.4185305
  46.7202234  29.2960644  24.9216509  46.0486841  29.2094493  23.5679460
  58.9338064  42.8076315  24.2218351  59.3798780  43.3505201  23.5718179
  59.3355083  43.0531502  25.0552559  62.7062798  62.2336149   6.8587971
  62.7150440  61.5441465   6.1948800  62.8005600  63.0461025   6.3615978
   7.6680619  69.5755005  57.2634077   8.4427702  69.5000219  56.7063046
   6.9620252  69.1888285  56.7455006  41.4378500  61.7894220  16.7780733
  40.9508801  61.5562963  15.9876645  42.0796108  62.4350929  16.4823008
  35.8232665  56.4208317   6.0460478  36.7120910  56.5231371   6.3862771
  35.9121442  56.5486288   5.1015902  51.5013075  14.2881584  38.2975364
  50.6182194  14.6560264  38.3300519  51.3899612  13.4346581  37.8787661
  71.8136501  57.7570248  14.6633399  71.5031528  56.9080734  14.9781525
  71.0811806  58.1068659  14.1560650  52.8306103  65.1807785  24.4563389
  52.9215193  64.2687368  24.1803908  53.1833410  65.1981258  25.3460121
  38.2369256  65.4571915  13.6826146  38.5537577  64.6295404  14.0443397
  38.1689405  66.0390234  14.4396341  52.6094675   2.1680225  14.2900050
  52.7105474   1.4040932  13.7221789  52.9047823   2.9048184  13.7550724
  -0.3216813  64.6431923  42.2558784   0.1577730  65.0448132  41.5312719
   0.3307617  64.5445156  42.9492855  48.3323050  58.2317066  -0.1817024
  48.2977247  57.8471947   0.6941888  47.4320889  58.1779957  -0.5025697
   1.2977704  50.2298450   9.5551723   1.5076765  50.4775810   8.6547285
   0.8556715  50.9974432   9.9179065  52.1627617  72.5615835  61.8851519
  51.2598181  72.2468233  61.8420935  52.1445704  73.2513762  62.5485468
   9.9506348  17.1850681   9.2144775   9.8006642  18.0756688   9.5316064
   9.8106498  16.6307151   9.9821550  55.1058722  10.5612826  32.7151871
  54.6437216   9.8927045  33.2208061  55.8042526  10.0832474  32.2679996
  33.2121110  63.4206295  50.8291626  34.1665554  63.3935595  50.7618380
  33.0426645  63.6322975  51.7471600  32.8981709  29.0310550  19.7990549
  32.9799771  28.6762238  20.6842852  32.2656703  29.7444129  19.8844588
  32.5351453  30.5310082  36.3629270  33.4907103  30.5264091  36.4186668
  32.3468614  30.9226322  35.5100417   2.2667359   3.6913857  12.2426248
   2.5646901   2.7872038  12.3421764   2.2105254   3.8222018  11.2960732
   7.4346089  60.5015612  32.8115773   6.9730943  60.8171463  33.5885239
   8.3194429  60.3075838  33.1208897  19.3307602  20.3213453  63.8404179
  19.0882826  20.8007574  63.0482101  19.0625453  19.4192028  63.6659670
  46.3011932  45.8319187   2.3405422  47.0977259  45.3462839   2.5548545
  45.9916353  45.4366255   1.5255901  56.9224072  73.4389210   5.3930056
  56.6468668  73.5601997   6.3016313  56.1222696  73.5602760   4.8818502
  43.7946606   2.0906034  47.0858240  43.4637117   2.2664958  46.2050486
  43.5392618   2.8594401  47.5956202  15.4861605  30.0474524  -0.0099292
  14.9447465  30.1310468   0.7749997  15.0074828  30.5304050  -0.6836168
  22.6079416   8.6623245  21.9405651  22.7976894   8.9117670  21.0361266
  22.0901203   9.3895054  22.2859669  10.9864795  43.7946892   2.1455041
  11.9234860  43.9150524   2.2996531  10.6282055  43.5769939   3.0060160
  43.9944887  54.4539309  15.1435971  43.2985830  53.7972212  15.1698041
  43.5324097  55.2920675  15.1279318   5.9375143  51.4083529   9.7664636
   5.6349951  50.5116463   9.6228254   5.5797076  51.9028473   9.0291154
  54.7129679  14.1585553  63.5259390  54.5718527  15.0426745  63.1873417
  55.3154850  13.7559116  62.9005718  64.1263866  48.0895996   1.4900948
  64.8482323  48.6732054   1.2564912  63.5633373  48.6191797   2.0546792
  74.3931770  65.5513954  43.0924845  73.7076855  65.2835035  43.7045002
  74.8818254  66.2278986  43.5613108  43.1094980  72.1911144  11.0838509
  43.5760212  71.4145708  10.7747042  42.2708559  71.8561697  11.4012229
  67.2985172  20.0979090  39.4368267  67.0775747  20.3852248  40.3227520
  68.1476307  20.5022573  39.2586708   8.4424347  20.1019311  23.1483626
   8.7916327  20.9801459  22.9966044   9.1159689  19.5139825  22.8064561
  60.6556225  53.3421326   2.6221895  60.5318213  53.8052464   3.4507012
  61.4610910  53.7109613   2.2596699  67.0877171  51.7476511  13.3807111
  66.9769239  51.0127783  13.9839649  67.8404522  52.2285557  13.7247443
  65.3620958  55.1704454  14.6718013  65.0026178  54.3785191  14.2719698
  65.5290365  55.7567549  13.9338291  72.2811365  13.6032891  56.7819071
  71.3337421  13.5299635  56.6665745  72.4420023  14.5444191  56.8499470
  65.3291512  59.1315317  10.8256674  65.0052071  59.6911907  11.5314102
  65.5247402  59.7369385  10.1105034  78.5875130  64.0217113  14.6120262
  78.4321404  63.0772972  14.6252298  77.8054523  64.3987656  15.0150657
  16.9954014  11.8504596  45.2586508  16.2583184  11.4446533  45.7150078
  17.7371681  11.2737715  45.4415369  19.8846316  57.8187084  21.7735100
  19.2477131  57.1041727  21.7718005  19.4602132  58.5166836  22.2724438
  32.9782295  70.4382753  12.9106629  33.2121706  71.2932920  13.2718492
  33.6862278  70.2345848  12.2995341  69.1248274  42.2061300  15.6910968
  68.4087896  42.4747944  16.2667191  69.1355896  42.8663063  14.9980712
  16.6648757  35.4186416  57.0810795  17.0647240  35.4007816  56.2115765
  16.9659626  34.6122432  57.4997711  26.0239220  26.3327193  28.9262462
  25.6903529  27.1173143  28.4910727  26.5603232  26.6672230  29.6450019
  51.1021042  25.0613141  59.4474077  51.3204622  25.6004786  58.6872387
  50.4230642  24.4653487  59.1312456  16.3592041  72.5482988   9.6395677
  17.0366323  72.9047585  10.2142513  16.1342454  73.2731104   9.0562361
  35.1698232  36.1572599  61.5605116  35.6193018  36.9796371  61.7551756
  34.2391849  36.3725805  61.6219902  47.0332003  67.1901464  60.9359074
  46.8064260  67.2319078  61.8649149  46.1898899  67.1456289  60.4852676
  78.7377405  31.5989542  62.0378494  79.1403580  30.8327055  61.6292000
  78.6427212  31.3569379  62.9590607  66.8494558  34.4564986   9.7713810
  67.4674511  33.8806105  10.2215636  66.8337536  34.1334844   8.8704658
  29.8552918  25.9419417  56.4400959  30.7239032  25.5431724  56.4923143
  29.7791290  26.4562154  57.2438097  16.0565591  57.8533602  13.9634979
  15.1918638  57.9945660  14.3489778  16.5352988  57.3544502  14.6254098
   1.2659329  75.1315928  19.6040559   0.4156162  75.5667973  19.5424914
   1.0976591  74.3506098  20.1312947   3.4072798  70.0948954   1.2740646
   2.9408652  69.4700956   1.8293238   2.8362790  70.2135420   0.5150438
  62.8329515  60.0132322   5.3684038  62.3302746  59.4677019   5.9733409
  62.3484659  59.9659777   4.5442230  68.7669706  39.9861312   2.8043789
  68.5171509  39.1194820   2.4838415  68.5855627  39.9555326   3.7437329
  47.8188705  21.8472457  43.4058332  47.2022390  22.5747919  43.4875298
  48.6771488  22.2423577  43.5590601  55.6058931  23.4193110  52.4940491
  54.9891758  23.4313297  51.7620993  55.4351997  22.5883508  52.9374456
  47.5833845  29.6927357  43.5151148  46.7157745  29.8791718  43.1563330
  48.1911469  30.0852656  42.8883934   5.5178928   7.4701220  19.7969341
   5.5797553   8.1779021  20.4383802   4.5807225   7.3883390  19.6201456
  66.2745333  14.8371887  39.7537279  66.9633055  14.4191289  40.2705002
  66.6835022  15.6297755  39.4061899  75.6125355  71.7170954  12.3261023
  76.3237953  71.4727020  11.7339754  75.8293152  72.6061916  12.6067173
  16.4162874  46.7475700  59.8576736  16.5317857  45.7973814  59.8631239
  15.4730129  46.8747711  59.9590778  23.8782954  60.1116657  22.3222351
  23.2896328  59.4159317  22.0295405  23.3157682  60.8814764  22.4070239
   7.5048858  63.0271482  37.9767466   7.3731428  63.4785700  37.1430230
   7.2183818  63.6570644  38.6380720  12.9383230   6.5466648   5.9115523
  13.8593316   6.5946293   5.6552804  12.4734962   7.0253140   5.2252120
  33.7456322  16.9971097  42.3164940  33.2915759  17.3508883  43.0812883
  33.1944346  16.2706447  42.0255280  27.6914787   2.2313255   2.5741199
  28.4346938   2.8329289   2.6181036  28.0311465   1.4643241   2.1130720
  24.6882892  70.2215958  46.5528202  23.7345433  70.1686096  46.6144228
  24.9828982  70.3003263  47.4601412  77.3520756  38.9429426  62.2330236
  77.4903154  39.7002316  61.6641331  77.7673960  38.2159185  61.7691517
  73.0529308  69.5967007  13.8528180  73.2744074  70.5235720  13.9427316
  73.8301659  69.1333485  14.1649926  43.3289576  52.2561026  17.0892835
  43.8659906  51.7199659  17.6727116  43.3268213  51.7787266  16.2596214
  18.1434214  52.1147537  52.4874544  18.7852740  51.4298916  52.6751232
  17.8649676  51.9420958  51.5880775  33.1837940   5.2990913  58.2126904
  33.4110951   6.1598527  58.5643387  33.9106631   4.7339079  58.4743404
   9.9489045  25.4625726   7.9295510  10.4433978  24.6884918   8.1988275
   9.5017469  25.7500052   8.7255812  63.7931299  65.7215071   0.7061585
  63.5301018  66.1326075  -0.1172753  64.7288418  65.5499887   0.6000558
  57.1912813  29.6578670   5.7579523  57.5066566  29.1804051   4.9906194
  57.6351595  30.5046940   5.7122350  48.0714226  58.1932402  46.1036873
  47.9807472  58.0327606  45.1644039  48.9156294  58.6359406  46.1906338
  59.1405535  37.8145695  14.4304752  58.4981489  38.2002711  15.0261104
  59.9861526  38.1169987  14.7617328   4.9559522  63.5471344   7.9231703
   5.3245717  62.6822090   8.1027776   4.4451591  63.4282255   7.1224314
  59.9670029  69.6422863   4.0778428  59.8464298  68.9896536   3.3880877
  59.2406607  70.2541351   3.9582658  70.5620098  52.5742817  62.1962166
  70.8910894  53.2815790  61.6415405  69.6134949  52.5914717  62.0687246
  25.2526236  25.9120274  61.1802816  26.1810708  25.7901120  61.3786507
  25.1869750  25.7588673  60.2376938  50.2830601  69.2782831   1.2040263
  50.7808352  68.5893106   1.6442141  49.3849754  68.9478731   1.1816157
  25.8871865  37.4868250  16.0146177  26.0398054  37.5757527  15.0738573
  26.3516450  36.6860175  16.2579644  18.2418919  25.6467032  64.6260738
  19.1985381  25.6355500  64.6566343  18.0278647  26.4218235  64.1068316
  24.7452664   7.7012414  63.1813574  25.2068162   7.7455527  64.0187597
  25.4220653   7.8692698  62.5256586  31.5166950  12.0563745  21.8913555
  32.0901775  12.3398578  22.6033878  31.7551064  12.6179481  21.1537719
  51.0875177  48.6978722   5.3392047  50.3807020  48.6165857   4.6988639
  50.6651306  48.5399151   6.1835212   7.6777864  52.2937441  23.7976360
   7.9994696  53.0544710  24.2814183   6.8802106  52.6028490  23.3680296
   7.4459082  24.6865559  61.2379742   7.8298277  25.5333018  61.4656973
   7.5468171  24.1572762  62.0291185   8.7311518   0.1988927  20.6219625
   7.8457844   0.4001866  20.9250069   9.0918022   1.0450526  20.3570533
   9.6092582  18.7489450   5.4595983   9.6185553  19.1563249   6.3257319
  10.5299854  18.5688102   5.2697456  64.2593670  48.6052370  24.6210432
  64.9865675  48.9513206  25.1383805  64.4919682  48.8083839  23.7150311
  51.5984917  12.3195505   1.0409021  50.6444693  12.3230135   1.1187161
  51.7752171  11.7577779   0.2863072  64.6306944  28.2460594  46.5833998
  64.6988297  28.4344578  45.6474018  63.7860107  27.8058887  46.6782522
  67.7406883  65.4148436   6.0482842  67.7347946  64.5232105   6.3964087
  68.0513954  65.3184366   5.1480627  50.5678988  31.3495755  47.2321939
  51.1892986  32.0291209  47.4935579  50.0307178  31.2038994  48.0109453
  65.8545780   3.8099468  64.0775585  65.2512836   3.9624491  63.3502245
  65.2904510   3.5522091  64.8066425  26.2360072  12.0636964   0.5492013
  27.1002340  11.6579914   0.4802956  25.7022595  11.6015875  -0.0971727
  77.4529743  18.4967959  18.5863698  78.1877232  19.0002561  18.2357931
  76.6812229  19.0241992  18.3802676  28.8139176  72.2445393  47.3819208
  29.1363597  72.5820684  48.2175827  28.4766865  73.0157804  46.9261885
  17.1554315   6.7223644  22.3149323  18.0997777   6.8284070  22.4298143
  17.0129752   5.7770407  22.3629069  23.9419270  33.0078602   5.5073059
  23.9829469  33.5724759   4.7354531  24.5479679  33.4091806   6.1301112
  38.4700871   4.7970331  14.2318439  37.5508213   4.6450788  14.0125477
  38.9194942   4.8066595  13.3867562  77.7384567  70.5214930  22.4979782
  76.8469381  70.1949549  22.6196361  77.7578306  70.8336496  21.5933156
  70.6165028  71.0376549  34.6495819  70.5099678  70.1596975  34.2834115
  71.3718081  71.4002037  34.1866565   6.6557020  33.7128282  12.5532305
   7.2474134  34.3854690  12.8903711   6.7755312  32.9700112  13.1449223
  39.7949982  11.0154068  21.0266113  39.3788242  11.8021464  21.3788486
  39.4555020  10.9438241  20.1345062  45.7571173   7.6315826  55.0577688
  46.5064192   7.3806655  54.5175648  46.1420536   8.0997336  55.7986403
   1.3931102  73.2837915  37.3108387   1.4745997  73.2579327  36.3574648
   2.2960925  73.2875252  37.6283932  65.6021595  74.1744709   3.1573758
  66.0362148  74.8706198   2.6642129  64.6972704  74.1884756   2.8455931
  65.9539557  21.3925433  19.6884012  65.7707548  20.7014251  19.0519857
  65.3007174  22.0674038  19.5038140  44.4965172  24.8818541  64.0837193
  44.9920607  24.4929552  64.8044300  44.8624563  25.7612014  63.9885044
  51.1624002  39.0757990   4.9977672  51.7689991  38.8003254   5.6850678
  50.7214546  39.8437476   5.3611648  71.6570139  66.1245632  11.1295438
  72.5989246  65.9646273  11.1883366  71.2782860  65.2631235  10.9542763
  77.5129843  61.8301296   5.1836002  78.4404325  61.6039610   5.1134509
  77.1982336  61.3213539   5.9308004  57.5074959  58.8724279  10.9160638
  57.6740074  58.4136200  10.0926530  58.3693266  58.9507246  11.3251436
  47.4850178  73.0757999  12.3875856  47.8793049  72.9496813  13.2506406
  48.0205822  72.5433350  11.7994642  34.2931151  23.0540299  37.3148918
  34.9558592  23.3358359  36.6843486  33.5227299  22.8586650  36.7814398
  28.7381601  10.2089274   3.2363513  28.0710268   9.8530036   3.8232774
  28.5575461   9.7977036   2.3910671  29.7525144  53.4130573   4.0764016
  30.4407668  53.3600187   4.7395211  30.2186823  53.6015320   3.2619101
  14.2569101  59.8740339  16.3535261  14.1737354  59.9966431  17.2991896
  14.0872955  58.9419222  16.2170267  15.0243151  15.0983894   7.7014196
  14.3874729  15.3535199   7.0339072  14.5589614  14.4637048   8.2462633
  74.8136950  48.9080715  18.7141633  74.3752337  49.1940689  19.5155299
  74.5405245  49.5430183  18.0520070  12.7174151   2.1531554   9.8135710
  12.6735413   2.7910027   9.1012102  13.6463690   2.1110877  10.0405228
  50.9471178  68.6896563   8.9163721  50.0534296  68.9931488   8.7568504
  50.9943867  67.8415298   8.4751415  36.5401077  21.6101122  38.3452082
  35.6585431  21.9482183  38.1878543  36.7205119  21.8279958  39.2596555
  78.9129591  57.0782375   2.2846353  79.2685747  56.2621307   2.6364022
  79.6468067  57.6920557   2.3150826  42.9751730  10.3551650  13.2597029
  43.4718561  11.0314143  13.7203789  43.4011221  10.2853060  12.4053490
  21.5370202   2.1404143  25.9899902  20.8781219   2.5709504  26.5347147
  21.6501594   2.7271608  25.2422190  16.1715138  71.9489288  50.1239157
  15.5042875  71.4768982  50.6221390  15.8090997  72.8276348  50.0109196
  22.0878195  73.1547471  64.3628628  22.5522732  72.3226901  64.4534217
  21.3021063  73.0501028  64.8994600  15.3856981  27.2899413  17.7882135
  14.8071814  27.7654815  18.3843768  14.9299359  27.3083663  16.9466829
   4.5824105   3.6457786  27.3874331   5.0072354   4.5014805  27.4468470
   3.9391887   3.6479762  28.0963016  39.4397736  39.0813255  59.1096687
  38.7227058  38.5723352  58.7315512  40.1456118  39.0151501  58.4665155
  69.5877123  48.4144115  26.0648131  69.5620012  47.7667570  26.7691684
  69.9923754  47.9532719  25.3300810  64.2602253  48.5045576  14.6065676
  63.4883213  48.5902643  15.1660776  63.9827538  48.8553190  13.7602794
  40.0361824   9.6593702  34.5971107  40.7546329  10.1007271  35.0501728
  39.3036294  10.2727365  34.6552253  19.9901790   3.6220078  -0.2936556
  19.2191143   3.7754730   0.2523658  20.7235403   3.9406590   0.2325246
  70.3197050  34.3613815  38.0174470  69.9864197  34.9129629  37.3096967
  71.2694979  34.4750404  37.9826880  30.0518751  31.5644598  61.3001633
  30.9365773  31.4159536  61.6340446  29.6938348  30.6861115  61.1715460
   9.8910671  47.9567862  34.0246010   9.5239806  48.0726051  33.1482077
   9.4553196  47.1756649  34.3654871  32.8622580  43.4810877  21.2997246
  31.9439507  43.3842039  21.0476136  32.8854847  43.2267475  22.2222233
  73.1326199  59.2104673  61.4060259  72.7431536  59.1958427  62.2802877
  72.4111366  58.9854050  60.8186245  42.8516674  73.9538717  16.0605311
  42.0004034  74.1949654  16.4258397  42.6413965  73.4027052  15.3067160
   1.5819003  45.4083776  21.6394329   1.9215111  45.4406881  22.5337791
   2.1340349  44.7638845  21.1967087   8.5432363  11.2939262   1.9196238
   9.2649084  11.8601143   1.6460302   7.7815688  11.8730211   1.9468994
  70.7665491  31.5864229  12.4046528  71.0662413  30.7182360  12.1350861
  70.4965734  32.0102525  11.5899670  56.8020344  55.9474802  39.1166282
  56.7898560  55.7387781  38.1825352  57.3492575  56.7302656  39.1800356
  45.8445215  36.4248133  11.9182920  44.9320126  36.4027238  12.2065127
  46.0944653  37.3464084  11.9848132  64.0472651  24.3159008  50.8585978
  64.6160936  24.1874361  50.0995445  63.2400799  23.8530064  50.6340790
  63.2830572  45.7441902  20.3633523  62.8121281  46.5674877  20.2343559
  64.2075586  45.9856510  20.3066111  66.4054203  29.4800901  34.3339729
  67.2901106  29.5597148  34.6906519  66.3981295  28.6270952  33.8997197
   1.4562084  13.2175112  58.4488058   1.4982894  14.1672504  58.3371925
   1.3215081  12.8781021  57.5639963  28.9793563   5.8642864   8.6279023
  28.6568379   6.4497948   9.3130261  28.1940293   5.6024808   8.1473285
  66.8770695  30.5244040  27.8757524  66.8283892  30.5024028  28.8314605
  67.5473070  29.8776174  27.6551175  62.9141855  44.3832254  29.9926424
  62.2498703  44.1058350  29.3617892  63.6733866  44.6114779  29.4562244
  52.7184439   5.8407092  58.0142355  52.0235777   5.2114129  57.8208971
  52.7496719   5.8768260  58.9702463  72.1861219  52.9389668  10.9435868
  71.9545841  52.7873039  11.8598950  71.8043184  53.7923479  10.7381582
  50.2970839  59.8234797   0.9312458  49.7534847  59.1105938   0.5957971
  49.8162603  60.1548290   1.6896969  24.0880895  31.6039968  54.9764442
  24.6873164  31.1966825  55.6019449  24.6507716  31.8889546  54.2564297
  -0.1044822  51.9759846  14.1238177   0.1217108  51.3791656  13.4104633
   0.6285883  51.9069147  14.7354293  57.7690125   8.4392524  64.0701294
  58.6988688   8.5012972  63.8516045  57.3227119   8.4506291  63.2234192
  72.5546360  48.7266254   1.7692594  73.3666134  48.3921719   2.1501337
  72.7480984  49.6396399   1.5566292   3.7255922  47.3811245  41.4997768
   3.0763614  46.8832922  41.9966650   4.1454038  46.7314243  40.9359694
  52.5589466  20.2333283  10.2894580  52.6875257  20.7495379   9.4937015
  52.7482128  19.3332791  10.0242805  17.1249080  26.3928366   2.3218036
  17.7671802  27.0651078   2.5493327  17.4218643  25.6106973   2.7868932
   7.6227367  39.6222830  60.6475544   7.2497010  40.4709291  60.8860350
   6.9157374  38.9967966  60.8061504   9.7804242  29.6280336  51.9380331
  10.3489423  29.0184402  51.4674854  10.3605783  30.3428245  52.2001886
  30.9390736   1.7003594   7.3305488  31.0995722   2.0343372   8.2131195
  30.4435587   0.8927625   7.4665016  66.8752146  39.5016241  62.7065420
  66.3591766  40.2594662  62.9815149  66.6392040  39.3716574  61.7880440
  64.1678619  57.9779339  18.0895674  64.8258352  57.3307848  17.8356016
  64.5580769  58.4370613  18.8333201  11.5469754  31.4896250  60.7605839
  12.1469331  32.2339559  60.8080673  10.9399927  31.6244411  61.4883423
  41.1686659  36.0393953  60.6372404  41.2899256  35.1222897  60.8831024
  41.3860416  36.5305257  61.4295626  18.8446665  62.7334166   2.3231727
  18.4356296  63.2046938   3.0489966  18.1646574  62.6923370   1.6507655
  48.8731575   3.7943655  54.3766165  49.3561029   3.7685904  53.5505819
  48.1478643   3.1828529  54.2491961  76.9870853  33.0107284  53.6420965
  76.9830513  32.6485705  52.7560616  76.9348621  32.2449899  54.2140675
  38.6992550  37.7175426  56.5202332  37.9308701  37.4809647  57.0397043
  38.3390832  38.1081653  55.7240438  77.0693636  43.9612913  12.8302610
  77.5365782  43.2487059  12.3941827  77.5471067  44.0953350  13.6488104
  57.0392847  26.5183163  36.2489533  56.8748856  25.6690764  36.6588283
  57.8708220  26.8083239  36.6240168  56.9484663  20.9733391   0.9109001
  57.1947718  20.5691481   0.0789165  57.7138615  21.4904833   1.1618145
  11.7859924  15.9495401  16.5543580  12.4943936  15.9021449  15.9123659
  12.2135162  16.2337971  17.3622286  30.0621462  16.2227809  63.7114239
  29.1311860  16.4217734  63.8111496  30.1464796  15.9179819  62.8079748
  54.3356180  13.5748672   9.7279269  55.1969481  13.8880849  10.0040317
  53.8283825  14.3721759   9.5754725  41.5914917  70.2889538  29.5631146
  41.4699650  69.4552279  29.1088462  42.5292301  70.4667759  29.4905663
  14.7616971   6.7856586  15.5388021  15.6390071   6.4167064  15.4366636
  14.8407412   7.6839024  15.2176428  48.7596655  42.2780991  57.1086359
  48.0505896  41.7672443  56.7181635  49.0079498  41.7847157  57.8904009
  27.8224897   4.3000919  30.3414154  27.0814228   4.3378007  30.9460878
  28.5136223   3.8604921  30.8367109   1.0221522  11.0843122  21.8517375
   0.1775227  11.5345812  21.8612695   1.6687411  11.7865396  21.9226670
  62.5779581  54.2216301   7.6274830  63.3674383  54.2056179   8.1684989
  62.8694296  53.9137697   6.7692864  68.8566780  49.0427351  34.2055297
  68.6711311  49.7814226  34.7853160  69.3326664  49.4289684  33.4703493
  21.1156917  74.5487547  22.7453732  21.3333845  74.8178005  23.6378169
  21.9297051  74.6640825  22.2551537  43.7827063  66.3543272  45.1830053
  43.6481094  65.6380939  45.8035851  42.9021120  66.6828537  45.0017452
  66.1577034   3.4290901  40.9528017  66.3989687   4.0714723  41.6201591
  66.2294912   3.9048791  40.1253319  25.1574111  18.9023197   5.0535131
  25.9806252  19.0225768   5.5268937  24.6240258  19.6562171   5.3052497
  26.7540216  31.1184669  57.2195911  25.9430623  30.7647276  57.5848913
  26.8802667  30.6344008  56.4035177  72.6488876  67.4665213   1.1968332
  73.0360365  67.8709650   1.9732161  73.2090378  66.7118502   1.0153501
  54.0094233  35.3245258  42.2327757  54.8642397  35.2090406  42.6477242
  53.7727022  36.2327552  42.4206972   8.9928013  27.4973488  44.0421534
   9.4044018  26.8633080  44.6293545   9.6685028  28.1584883  43.8919687
   9.4228232   0.4481117   7.6277512  10.0704956   0.4082792   8.3314312
   9.7855622  -0.1060681   6.9367105  72.2295713  13.5718334  16.1726522
  71.5059710  12.9579854  16.0468578  73.0076122  13.0169535  16.2273550
  36.4874721  36.9923878  58.2578087  35.8523345  36.2888837  58.3916426
  35.9997773  37.7943134  58.4456921  49.7056389  33.7096500  60.1562834
  49.5169306  34.4069004  59.5282221  49.9583483  34.1700721  60.9565258
   4.2275527   2.9713112  45.7639313   4.3213266   2.6675469  46.6667986
   4.1531020   3.9227447  45.8378458  77.4329424  29.5909953  47.1137142
  76.9906235  28.8599920  47.5452471  76.7218637  30.1503181  46.8010616
  74.1970921   0.9255464  12.9666066  74.8904705   0.8340383  13.6201191
  74.1499662   0.0671954  12.5456023  14.7753239  12.6761985  17.3662770
  14.6233273  11.8215263  17.7695930  15.7198656  12.8119326  17.4414396
  59.5141220  60.0786591  61.7635441  58.9502668  59.7308731  62.4544430
  59.7399712  60.9603691  62.0598698  70.6766653  37.3669624  29.6109176
  70.1178598  38.1260610  29.4443655  70.3226709  36.9800472  30.4116774
  61.3812923  20.7825661   4.2576909  62.0658875  20.1146317   4.2954203
  61.1431074  20.9333491   5.1724392   2.2260836  57.9840612  52.5362730
   1.6095743  57.2659397  52.3932552   2.9310098  57.8230381  51.9090700
  50.2809286   2.2384630  29.9456882  51.1649227   2.4435785  29.6411991
  50.3329277   2.3113595  30.8986926  37.7535582  72.8651762  45.0567770
  38.2071018  72.1800423  45.5478191  37.9521394  72.6742458  44.1400766
  26.7451835  33.9140368  57.7490664  25.8897209  33.7789488  58.1567001
  27.0409322  33.0340934  57.5156975  32.1460986  27.6173139  11.3601077
  31.4587355  27.5033236  12.0164382  31.6895819  27.9617381  10.5925179
  63.4760189  46.1606836  43.2683325  64.1874361  46.6989136  42.9213095
  63.7203503  45.2640200  43.0391550  53.6765575  53.0810356  49.3685389
  52.9971600  53.7424803  49.2376280  53.7034464  52.5985241  48.5422897
   8.0716550   8.4645581  50.5425882   7.5218832   9.1712642  50.8810425
   8.8013828   8.4122241  51.1598349  34.9181128  25.4489422  12.5695026
  35.4407191  26.1500907  12.9587412  35.4743838  24.6725035  12.6322591
  60.2531958  29.5695472  60.9689236  59.7334528  29.0070748  60.3947067
  59.7353935  29.6366119  61.7711735  42.5097990  37.2979522  62.7664280
  42.9673576  36.5359211  62.4112082  43.1943369  37.8079820  63.1994534
  70.4838943  74.2395449  23.5524130  70.2090263  74.8626041  24.2250776
  70.4537010  74.7391462  22.7364945  60.8348989  73.5688543  48.7758350
  60.3052378  74.0686703  48.1546402  60.4202127  73.7251902  49.6242619
  59.1925287  65.4146481   5.1977658  59.4722557  66.3234711   5.3074497
  59.8507833  64.9030256   5.6680626  24.3298745  27.4142742  11.8935823
  24.7240090  27.3248839  11.0258842  24.9765277  27.0375133  12.4903429
  27.9321980   5.4265082  50.2912664  27.4973321   6.0374808  49.6964264
  28.2172370   4.7064358  49.7286987  48.4221649  25.1175666  18.7417877
  48.8016367  25.0591779  19.6186149  48.6410427  26.0006762  18.4444034
  62.7582026  35.3732157   4.6402070  62.2476053  34.8911142   3.9897445
  62.5058174  34.9854636   5.4781699  16.1878121  61.5681982   3.8344511
  16.4754713  60.7158899   3.5072678  16.0369182  61.4274502   4.7691450
  64.5914459  38.1962824  36.4094901  64.6967363  37.9442549  35.4920864
  63.8499022  37.6752090  36.7174363  51.1918163  11.6485846  36.5866184
  51.3304853  12.1423554  35.7784128  52.0195007  11.1904049  36.7323709
  70.6918812  47.1652031  60.1302385  70.5434895  48.0643177  59.8373222
  71.1942053  46.7623854  59.4219732  33.4962392   1.6114391   5.4823083
  32.6738858   1.1910211   5.2308863  33.5983253   2.3301733   4.8584241
  67.7341509  56.9630718  23.0988050  67.3385763  57.6643467  23.6164594
  67.3026228  56.1658573  23.4061527   2.1659356   1.2100530  18.6347508
   1.9941831   0.5367325  19.2930603   2.0732294   0.7555586  17.7974498
  62.8842306   2.3008393  40.8005714  63.3367682   2.5920096  41.5921926
  62.2071505   1.7032251  41.1178350  59.6945858  42.4959278   0.3564395
  58.8631439  42.3415089   0.8048631  60.0747061  41.6239500   0.2497027
  40.3183079  24.3903065   7.2019386  39.5477819  24.5656061   7.7421153
  39.9648523  24.0172005   6.3944173  61.2909460  42.2146511  48.2734776
  62.0406294  41.9384670  47.7462912  60.9822178  41.4103699  48.6906719
  69.8107719  72.5280476  52.3260307  70.5814934  72.0494223  52.6312113
  70.1345062  73.0691719  51.6058826   7.7549779  52.5623131  46.1558533
   7.4597108  51.7805719  45.6890249   7.0374727  53.1875944  46.0536861
  77.3253155  60.6209564  34.3199873  77.4132872  60.3614807  35.2371359
  77.3148632  59.7944975  33.8371968   6.0554838  18.2264519  58.0158520
   5.3419572  17.6205540  57.8158522   5.6354392  19.0855229  58.0581713
   9.5330220  73.9739037  13.1004083   8.9533466  73.2372999  12.9064512
   9.2463392  74.6672630  12.5060165  58.8362312  67.5075817   2.7846271
  59.0136909  66.6876650   2.3236796  58.0455685  67.8503132   2.3679498
  18.0175912  65.1381254   3.3387464  18.9346623  64.9344397   3.5223907
  18.0475569  65.9655428   2.8584167   5.3777486  38.3244371   7.8540510
   5.0728989  37.7568269   8.5619462   4.5955175  38.4935713   7.3289412
  16.0690975  71.5096664   2.4090572  15.7997930  70.7826233   1.8477096
  15.3851628  71.5629196   3.0766118  32.7095890  31.3787794  62.2722006
  32.9278469  32.1011853  62.8610373  32.9655886  30.5918908  62.7533484
  16.1356378  69.3146610  11.5184915  15.6848490  70.1271534  11.7484534
  16.8744349  69.5952559  10.9784162  63.0423260  58.5558176  42.8025103
  63.8178682  58.0067778  42.6870966  62.8125763  58.4546804  43.7262106
  59.7473145  51.0678053  58.8160658  59.5404959  51.9701481  59.0594482
  58.9336205  50.5866575  58.9664984  51.1563349  46.8018866  20.2318931
  51.2154293  46.5310049  19.3157268  51.7991829  47.5061655  20.3153634
  77.6457691  33.3148098  18.4787774  77.0473194  33.4566045  19.2122507
  77.4578476  32.4233270  18.1852210  43.3234644   7.5841147  33.6609697
  43.1620884   6.6900730  33.3595085  43.8989639   7.4811083  34.4188762
   7.4029702  62.5206566   0.8722457   8.1301081  62.0382214   0.4788515
   6.7106891  61.8678141   0.9760375  78.6972237  67.9468203   5.5413395
  78.4925270  67.6027966   6.4108098  78.9552927  68.8551950   5.6978345
  28.9355683   5.7700723  25.5331492  28.4926391   6.0591495  24.7353506
  28.3395743   6.0161710  26.2405777  10.2805853   2.7205402  20.1769018
  11.1635816   2.7022123  20.5459714  10.4052258   2.5265586  19.2478859
  77.5759888  63.1139946  33.5856032  78.3869982  63.5031509  33.9127898
  77.4728298  62.3107862  34.0959406  27.9000139  15.1323688   8.8760877
  28.6616349  15.6662035   8.6498457  27.4296093  15.0237477   8.0495572
   7.6524729  16.9203627   7.5793284   8.5611016  16.9905627   7.8720707
   7.1682370  17.5094092   8.1579226  19.4137537  47.6545095  47.0466423
  18.5053647  47.7776623  47.3221302  19.5929229  48.3990622  46.4723873
   0.8258718  29.2244601  52.2269440   0.9249709  30.1716256  52.1305895
   0.7178301  29.0894914  53.1684017  63.1965876  51.8072081  42.4787712
  64.0050888  52.0520306  42.9289055  63.1082344  50.8676863  42.6391459
  40.0116062  72.5259256  52.6817036  40.1719332  72.6897955  53.6110449
  39.3887568  73.2050562  52.4227142   0.5821269  61.2084293   4.7095495
   1.0532531  61.8930912   4.2346704   1.0160793  60.3954554   4.4507328
   5.2720636   3.2429975  50.2689838   5.4189801   4.0506136  49.7766399
   5.0811863   2.5858361  49.5997047  56.7220831  13.9161849  61.4571953
  56.8774605  14.4543052  60.6809759  57.0860720  13.0600429  61.2318802
  70.3808117  68.1957436  13.2696760  70.1600170  67.7915430  12.4305665
  71.3292027  68.3201313  13.2334316  10.3065813   8.0916739  10.3116405
  10.4210711   8.5773605   9.4947970  10.8904338   7.3380053  10.2260172
  49.8782921  42.5751352  11.0082960  49.6759510  41.7584848  10.5518198
  49.1020823  42.7509308  11.5401042  50.0027418  13.7991273  52.1737862
  49.2203665  13.2477629  52.1628141  49.6801233  14.6767926  51.9692087
  72.3603010  43.4506845  60.5632973  71.5597582  43.8783979  60.8673048
  72.3251295  42.5750971  60.9484434  61.2354994  20.5309296  49.1654682
  61.8522882  20.0238919  49.6934032  61.7020130  20.6978512  48.3464861
   5.2851659  62.4553299  61.1109304   5.0294018  63.3492184  60.8833694
   6.2280548  62.5083876  61.2670660  49.8357916  42.3807144  63.3695221
  50.4568434  41.6555500  63.4378195  49.1817570  42.0774269  62.7398491
  30.2658343  68.4897995   4.8915598  31.1973643  68.6883068   4.7962821
  30.2455235  67.6533031   5.3564173  66.9145203  44.9627638  54.7072458
  66.7265177  45.3800392  55.5479431  66.6513205  44.0504837  54.8284864
   6.6426444  20.8612657   7.2089005   7.3127747  21.5124822   7.0013589
   6.3090861  21.1256981   8.0662489  21.1127758  68.6259604  15.8634043
  21.3700056  68.8810873  16.7493927  20.7073927  69.4114685  15.4961467
  53.1358814  41.5789461  62.8151512  54.0025663  41.3526440  62.4776840
  53.2117128  42.4975729  63.0732346  29.9197149  71.6070509  58.4530497
  29.5981193  71.4986849  59.3480730  29.6509647  72.4923277  58.2075167
  56.8956947  75.0248528  42.1789169  57.3960590  74.2108631  42.2363234
  57.3498297  75.5385590  41.5110111  34.4030285  15.5609024  25.8332133
  34.3217111  15.8146644  24.9138522  34.7906518  14.6860969  25.8068323
  28.3361936  65.1195526  48.3569622  27.6511335  65.6716537  47.9799891
  27.9421258  64.7570992  49.1504145   5.7719028  21.4966273   4.0054277
   5.8547837  20.7941008   4.6502668   5.6079739  21.0441494   3.1780082
  69.2422485  40.6072903  40.4288101  69.5898533  40.8554602  39.5721841
  69.9898958  40.6828547  41.0217190  67.0404434   6.9324052  19.2165041
  67.6345348   6.3367534  19.6731067  66.5149689   7.3268008  19.9126089
  24.0306687  10.4435933  45.6878138  24.3942595   9.5879453  45.4599953
  24.7054124  10.8543110  46.2284279  29.6120572  60.9824324  54.6869993
  29.6741438  61.9372606  54.6610165  30.4101133  60.7026386  55.1353931
  20.0031519  53.6417389   6.9615477  19.0538192  53.7028360   7.0677060
  20.3221011  54.5252466   7.1456981  13.7560380  67.6094723   0.2809106
  14.1253161  68.4802866   0.4277021  12.8112674  67.7551365   0.2316893
   4.8809084   4.2500320  21.9607139   4.2298022   4.9263364  21.7738843
   4.5168129   3.7651062  22.7013302  54.1825962  16.7589843  59.6833754
  53.4751749  16.9832623  59.0788174  54.9737167  17.0935953  59.2610073
  51.4611244  14.4438672  11.5895200  51.2737799  14.1290200  10.7052112
  51.9518566  13.7310708  11.9985902  50.2578878   3.6052603  35.2414823
  50.8054638   4.0322977  35.9002924  49.9662304   4.3184769  34.6736002
  57.3277950  53.1180429  34.2511225  58.2737446  53.1734324  34.3865585
  57.2104692  52.3501253  33.6918616   3.6063164  21.1600494  64.6498537
   4.5565554  21.2406182  64.5674753   3.3812433  20.4084420  64.1015291
  56.6504478  17.0755363  45.5524302  57.2051048  17.1335208  46.3303947
  57.2660732  17.0661926  44.8195219  71.2490749  45.1081705   2.0178382
  71.8617725  44.6858072   1.4158098  70.4536581  45.2344561   1.5005398
  14.9475336   1.6258538  13.3976376  14.2892492   1.0604657  12.9936206
  14.5198333   1.9685315  14.1824150  24.1527009  19.4136667  15.9169304
  24.0823483  19.8952425  16.7411685  23.2816386  19.4799984  15.5256760
  30.0125313   8.9700198  16.4950144  30.4440737   8.7666112  15.6651783
  29.0792322   8.8606411  16.3127494  11.8510747   8.6877280  30.4468250
  12.4049282   8.9757687  31.1724353  12.3975456   8.0723518  29.9580359
  13.0983424  10.3905082   7.1585685  13.9776826  10.0127745   7.1409869
  12.9896152  10.7025230   8.0569321  19.1947889  36.1716342  14.4270003
  18.2890558  35.8809257  14.5336187  19.1439903  37.1271944  14.4506133
  35.0835967  71.7935324  33.5925031  35.5542350  72.2349405  34.2995310
  35.7295132  71.7087984  32.8911877  60.7517815  42.4133682  56.9336128
  61.0447121  41.8221712  56.2401342  60.5740452  43.2398081  56.4845753
  55.7453966  18.0135357  24.0009952  55.9787560  17.9790175  23.0733180
  55.5001116  17.1145594  24.2198753  37.0284224  44.4360685  20.7832193
  36.1847115  44.7829103  20.4932475  36.8081951  43.6307192  21.2513423
  62.2830343  54.1472864  56.6837215  62.9769278  53.5106182  56.5122414
  62.7074242  54.8299360  57.2034454  63.6150026  52.0499277   0.4300268
  64.1081524  52.0478106   1.2504095  63.8424110  52.8824615   0.0160193
  52.6854753  21.0222578  49.3006277  53.1241417  20.2895403  49.7329760
  52.8809118  21.7785740  49.8538208  19.0951741  26.8727565   8.6127412
  18.8886654  26.3789415   7.8191841  20.0309968  27.0607471   8.5411298
  29.2405248   2.0362742   9.8320204  28.7748718   2.4092357  10.5805528
  29.4548821   1.1438368  10.1037514  53.4736109  34.2991018  16.7193258
  54.0042067  33.5117960  16.5974867  52.6332664  34.0868139  16.3131404
   7.2052866  72.7998829  31.4991379   7.2686422  73.1581020  30.6137609
   6.5768141  73.3690119  31.9433761  48.0779123  24.3280292  40.4005241
  48.4381247  23.5403109  39.9931192  48.1966305  24.1875291  41.3398838
  46.5454674  22.9143739  21.1753964  46.2532425  23.3402038  21.9813156
  46.0735130  23.3706093  20.4787302  22.5146484   8.8039947  11.0425031
  22.0083261   8.7290317  10.2336454  23.1956148   9.4455522  10.8402157
  39.3193316  74.1550016   8.0137151  38.5511136  74.7197008   7.9289478
  39.5969796  74.2632723   8.9233416  35.1301074  28.3270931  53.4081459
  36.0238481  28.4613824  53.0928373  35.2208996  28.2445931  54.3574524
  12.9230940  48.9927530  32.0090747  12.2203171  49.1571665  32.6378083
  13.6840427  49.4414520  32.3776650  17.3372602   4.0525168   1.2015301
  16.4659476   4.3426555   0.9315912  17.2170413   3.1374386   1.4553238
  20.1334143  69.2409706  11.7805195  19.6178150  69.4781303  11.0097122
  19.5184255  68.7729931  12.3453331  72.5946999  57.8614759  34.5971251
  72.7076435  57.0870447  34.0460086  72.3731232  58.5618925  33.9834809
  45.3525257   1.5678118   5.7004464  45.4611588   2.1452504   6.4560884
  45.7185030   0.7301974   5.9845126  26.5510845  15.2074742  20.1858735
  26.3941574  14.2677140  20.2778220  26.1676121  15.5925632  20.9738374
  64.7272682  65.6345320  38.5799122  65.6227922  65.5637407  38.2493687
  64.2354250  64.9826050  38.0805945  33.5274410  32.6389313   1.5780915
  32.9569507  32.8326845   0.8342958  33.9909720  33.4596920   1.7445961
  35.7086611  42.6525736  61.1066628  35.1452827  43.1255388  61.7191505
  36.4672661  42.3938417  61.6299295  76.7749310  69.5730829  17.7100444
  76.8238497  70.5210781  17.8331113  76.1666250  69.2748499  18.3862531
  12.4213791  73.1979275  18.7863266  13.1158149  72.5434685  18.7110293
  11.6673887  72.7100754  19.1175842  48.4200239   1.2785086  25.0349545
  48.6017561   2.2176009  25.0711560  47.9470587   1.0946187  25.8465719
  66.5039778  71.7776394   3.4471858  66.3039351  72.7060270   3.3275390
  66.2573624  71.3705301   2.6167202  27.7581191   3.3673984  11.4129889
  27.1114230   3.3733839  12.1186674  28.1682515   4.2311800  11.4566338
  18.0220544   8.3303422  52.5011110  18.4661210   8.1028479  53.3179808
  17.0900893   8.2557434  52.7063084  79.0625286  38.9091468  56.7492151
  79.9540186  39.2576838  56.7503357  78.8598299  38.7668562  57.6738214
   3.8952368  71.6860008  11.8093705   4.1757679  71.3064432  12.6421189
   3.8296768  70.9382868  11.2153518  69.0915203  67.6747608  10.8423769
  69.3888092  67.0405626  10.1899636  68.4950924  67.1792889  11.4036393
  75.6376457  29.2167830  42.5790644  75.0130367  28.8895631  43.2263851
  75.3703165  30.1228881  42.4249792  21.4594817   4.1479954   5.2063894
  20.9295750   4.0346068   5.9954220  22.1080112   4.8098069   5.4464847
  48.1179762  67.2612429  35.6881642  48.1636381  66.3399887  35.4323530
  48.7703562  67.3494816  36.3830352  45.3900909  18.1259751  58.7404156
  44.5864582  17.8159106  58.3229589  45.2803612  17.9046869  59.6651983
   0.2452329   5.2825487   5.1925927   0.3977070   4.9970025   6.0933965
  -0.5578884   5.8013195   5.2384716  66.0893106  50.5887699  55.8457804
  66.2019253  49.7275019  55.4435778  66.2098789  50.4332685  56.7825365
  76.8652439  71.9691753  15.8730090  77.2149611  72.6886702  15.3474045
  77.0962477  71.1801481  15.3828049  33.1973743  17.3522151   0.4699823
  32.2479749  17.2768450   0.5658644  33.4879112  16.4650607   0.2583741
  37.4752927  26.4394021   8.5830861  37.3498487  25.6094718   8.1229663
  36.7561579  26.9930291   8.2788205  65.5116844  21.1095762  13.2964885
  65.8167982  21.5187621  12.4867320  65.4671812  21.8289590  13.9263606
  69.2818689  22.3802876  62.2131968  69.8435450  21.9948006  62.8856182
  69.5592499  23.2951474  62.1650219  76.9570732  17.9282320  63.6139488
  76.8011189  17.1055996  64.0778303  77.9014921  17.9402244  63.4585047
   6.8773687  36.4143920  57.9911566   6.3688380  37.2249222  57.9652691
   6.8841505  36.1068439  57.0847321  63.4465599  35.8705878  57.2727156
  64.3755627  35.6544447  57.1923399  63.2805490  36.4839506  56.5568542
  58.7734509  52.6146030  20.9354687  59.1248655  52.0383453  21.6141939
  59.4742393  52.6751566  20.2862644  19.2009830  67.3745918  13.9770114
  18.4082294  67.7894115  14.3171513  19.7770107  67.2989798  14.7377396
  37.9959702  23.3315897  53.4648085  37.3641634  24.0397000  53.5898447
  38.3227348  23.4567046  52.5738525  24.2909455  51.7281914  61.9159651
  24.4282031  50.7830381  61.8520594  24.6494079  52.0779705  61.1002541
  13.4100413   9.3729419  26.2678337  12.5620210   9.1464025  26.6496372
  13.5364199  10.2942395  26.4947081  44.4207859  70.0510740  37.9109335
  45.2514458  69.8687553  37.4716234  44.6650553  70.5620337  38.6826110
  16.6483116  68.1022549  53.1897736  16.9912541  68.8490820  53.6805630
  16.1559486  67.5964880  53.8363075   6.2034827  63.3957815  44.1056204
   6.9477606  63.6272478  43.5500050   6.4667046  63.6686707  44.9845314
  59.1338968  26.1991215  39.9828434  59.0774012  27.0759654  40.3625584
  58.3654308  25.7408571  40.3229666  79.0862656  67.8394461  24.2588544
  79.3534946  67.3536587  23.4785771  78.1727457  67.5886297  24.3959641
  77.5729895  43.5934877  46.8779278  76.8145180  44.0840960  46.5612984
  77.1998787  42.9030275  47.4259090  45.8839607  57.9483795  60.0873899
  45.4809189  57.2929716  60.6568050  46.8145800  57.7243805  60.0856447
  14.3219066  35.2844048  15.1517165  13.6910260  34.9944592  15.8106184
  14.0746176  36.1901832  14.9655819  15.2469277  64.1333961   3.5278350
  15.4228067  64.6091366   4.3396023  15.6792867  63.2878065   3.6473033
   3.0280751  28.4933710  14.1103041   2.4308749  28.9531183  13.5202050
   2.6553926  27.6154971  14.1920316  55.0405121  20.2158451   2.5295025
  55.6430912  20.4571152   1.8259966  55.2407646  19.2978001   2.7120590
  75.1561165  55.0538826  63.5234547  75.8411217  54.4491529  63.8085794
  74.5097160  55.0335121  64.2291403  30.2777839   4.7437152  57.4443436
  31.1316371   5.1754558  57.4720144  30.2175188   4.2784086  58.2786608
  69.6222115   1.5944608   1.4033850  70.2877522   2.2810152   1.4473510
  69.0755272   1.8383132   0.6564548  76.6672707   1.0094189  59.0690994
  77.0752239   1.6596028  58.4972048  77.3942900   0.6441987  59.5733690
  54.6787310  52.4260855  52.3751068  55.1118612  53.2146168  52.0482397
  54.6233320  51.8497896  51.6128397  34.8434758  22.8623986   1.3191813
  34.5316935  23.7001610   0.9768726  35.0688100  23.0453014   2.2313233
  60.8128691  67.7081871  63.8479567  61.1886454  67.8913021  64.7090530
  60.8836174  66.7583561  63.7528229  43.0287743  23.7438679   5.6899905
  42.8047180  23.2806826   4.8828405  42.2246599  24.2020702   5.9342974
  49.2453003  65.6476784  61.5197420  49.7497320  66.4429855  61.6908073
  48.3399630  65.8924341  61.7112827  62.9373360  31.4515018  49.4630623
  63.5722589  30.7970548  49.1718483  62.9349613  32.1090364  48.7674522
  59.3346548  52.8266907  47.3543453  60.1321077  52.5328255  46.9139624
  59.1660309  53.6955500  46.9898176   2.6487550  68.5698986  58.5337830
   2.6281840  69.4414473  58.1385422   2.0849569  68.0385876  57.9715824
  17.9083455  63.0948734  52.5877905  17.0663393  63.0914307  53.0430317
  18.0374086  64.0075684  52.3298025  35.8759522  39.8849130  59.8687220
  35.4443479  40.7384062  59.8299694  35.8044696  39.5397401  58.9787912
  19.2370403  25.4797196   6.2105954  18.9362049  24.7760463   6.7855507
  18.6750627  25.4148817   5.4384506  76.9274664   9.1277415  18.3420730
  76.6467714   8.3205241  18.7731659  77.4888325   9.5602018  18.9855611
  39.3952227   5.1471150  57.6192713  39.9930072   5.2957475  58.3519316
  38.8312888   5.9204948  57.6095819  73.1701279  25.2870154  52.6847839
  73.8524389  25.1568818  52.0261908  72.4855137  24.6616435  52.4471951
  22.8934050  72.6962519  32.9660058  22.3894572  73.5040188  32.8671217
  22.4841571  72.2476959  33.7059689  41.8270874  16.6935503   3.8653669
  41.2038136  16.3572478   3.2214248  41.3856602  16.5813363   4.7072583
  34.8555398  10.3235984   6.2118959  34.6239471   9.4826972   6.6062069
  34.3010616  10.3841805   5.4340053  69.5901489  64.7208738  59.3438196
  69.7586489  65.5861902  58.9709044  70.4377317  64.2772198  59.3121243
  64.8383331   8.9708364  36.6644335  65.1969528   8.5610753  37.4516535
  64.8936319   9.9106866  36.8372202  46.9443750  36.8253231   8.6286610
  46.3253784  36.1131120   8.7893713  47.7843714  36.4871860   8.9389879
  71.2861824  58.8153839   1.2663206  70.4933023  58.3443260   1.0100378
  71.9343185  58.1278467   1.4194232  58.4590673  61.3530207  53.6402178
  58.8793325  61.9797659  53.0513239  58.4741497  61.7813206  54.4961166
  14.0268409  70.9546566  18.6045790  13.3630931  70.2659178  18.5683751
  14.6039486  70.7703161  17.8635013  60.9395552   5.7741630  34.7693801
  60.0471354   6.0206884  35.0123715  61.4925575   6.2011003  35.4237103
  21.6538739  30.2777719   6.5526801  22.5821114  30.0618768   6.4632511
  21.6427779  31.0686898   7.0917141  55.0874949  64.2360401  55.3989506
  54.3438816  63.6437654  55.5106544  55.8498335  63.7126112  55.6461191
  55.5650806  54.1325140  43.0417871  56.2199402  53.5261393  42.6958132
  55.3731441  54.7202396  42.3110533  17.6753473   5.4732490  42.4167395
  18.3653200   5.1473778  42.9946470  17.9184556   5.1517969  41.5485191
  59.6115208  17.3820543  54.9245930  60.2342272  18.0930245  55.0762272
  59.6597815  17.2181952  53.9827585   2.1928467   7.9900366  52.3562622
   2.7643520   7.2242057  52.3004389   2.0002301   8.0776089  53.2897854
   2.3284325   9.7982556  45.8124495   2.8466141   9.5518106  46.5786028
   2.7147314   9.3005347  45.0918436  49.9555111  67.0690584  38.0634975
  49.5964527  66.6672373  38.8546014  50.8534670  66.7411375  38.0146956
  20.5894518   9.7770196  63.8317060  19.6477151   9.8438394  63.6739063
  20.9191275  10.6648922  63.6930466  76.0174179  19.4988847  38.3637929
  75.8903313  18.5776758  38.1369567  75.2715874  19.7126019  38.9244080
  54.1032028  64.3971586  43.8310003  53.3560133  63.8170719  43.6845922
  54.5589828  64.0158987  44.5814228  16.2976611  39.1269279  10.4613721
  16.4791286  38.2719612  10.8516705  16.0172832  38.9277768   9.5680869
  63.6723423  44.7312069  49.7674370  63.9390278  44.6064949  48.8566351
  62.7207613  44.6284246  49.7545958  51.8618631  37.8412628  45.9232092
  52.1092606  36.9840479  46.2699175  52.0841837  38.4557652  46.6226339
  40.3882360  32.3756909  12.8651953  39.4997263  32.0467448  12.7288866
  40.2978086  33.0297136  13.5582387  50.6385141  56.1695310  64.5467460
  50.2795391  55.9334882  63.6913794  50.6412249  55.3492137  65.0400056
  79.0934324  29.6275115  60.3735876  78.3072710  29.8833442  59.8911715
  79.3564129  28.7959027  59.9792528  29.0041924  34.4768047  15.6458056
  28.6295915  34.0193105  14.8930740  29.3858671  35.2731276  15.2764463
  19.2211652  60.2501106  42.8897905  19.3834722  60.8980751  43.5753775
  19.4444537  60.7015944  42.0758247  47.9388714   6.4331967  18.6687589
  47.4217749   6.9370061  18.0402541  47.9304743   6.9635421  19.4655621
  47.9595470  10.2180421  23.5905004  47.9052973  11.1586416  23.7595057
  47.1587849  10.0149965  23.1069899  28.5546624  74.9991217  30.3952408
  27.9883468  74.3598489  29.9629831  28.9546287  75.4891869  29.6768451
  41.6741228  11.2035954  27.7642894  41.7128849  10.5012929  28.4135199
  42.3076820  10.9459448  27.0946240  56.5785503  10.6063056  50.0431585
  57.3897505  11.0938847  49.9001503  56.0623503  11.1652720  50.6239557
  18.5717404  31.9837165  33.7174821  18.5109234  31.8412685  32.7728963
  18.5330451  32.9347014  33.8192725  73.7260962   8.6036289   6.7665887
  72.7919149   8.3968937   6.7383921  73.8225794   9.3561995   6.1830133
  21.9631624  64.3536711  51.6776323  21.4086652  65.1287842  51.5884113
  22.5098181  64.5369053  52.4417162  67.5308037  19.2902565  13.3392632
  66.8889618  19.9821234  13.4992373  67.5246286  18.7677300  14.1412354
  61.3496542  62.7275467  57.5360060  61.0551262  61.9706535  57.0294476
  61.1625338  63.4794188  56.9739485  15.9609151  15.6451631  56.8395424
  16.6027272  14.9356401  56.8692827  15.5891168  15.6689227  57.7212667
  53.9493513  67.1921015  51.3350630  54.2410088  67.5180244  50.4836273
  54.4559288  67.6970720  51.9711542  55.1401329  15.5529690  24.5774317
  54.2761803  15.6282330  24.9825931  54.9922323  15.0220203  23.7948394
  49.8137188  23.5416818   9.8632622  50.4714870  23.7265015   9.1928816
  49.0240574  23.3206177   9.3694979  17.6321113  19.9412060  36.4062810
  18.5473132  19.8066843  36.6523337  17.1446741  19.3210101  36.9484925
  10.8001101  60.7303333  47.9492426  11.2392092  60.9321737  48.7754917
  11.2672520  59.9668264  47.6100254  43.9629126  10.4183996   2.0802906
  43.7110329   9.9442059   1.2878722  43.2688951  11.0661781   2.2025736
  78.6450911  26.0848117  56.6937447  78.5196638  26.9875622  56.9862270
  78.2187986  26.0490537  55.8374548  75.6147718  45.9554529   1.0342294
  76.2191963  46.6537189   0.7825728  75.4937267  46.0715437   1.9766220
  56.8076324  54.1695595  27.9830599  57.1483994  54.4683599  28.8261652
  55.8874178  54.4329834  27.9897094  76.9816542  72.1435595  54.8989916
  76.7757463  71.9761419  53.9793158  77.8322744  72.5820065  54.8780155
  74.4563198  52.7718115  36.7828131  75.3683186  52.6861000  36.5050578
  74.5011568  53.2605314  37.6046252  33.0853963   6.5731269  19.0336728
  32.7807474   5.8301961  18.5126412  33.9662218   6.3241601  19.3136609
  76.3880253  59.0072107  51.4550447  76.3059568  58.1986189  50.9494019
  77.3092651  59.0356922  51.7133808  74.5740747  65.7208157  62.4391031
  74.7474098  65.1149273  61.7186260  75.2407694  66.4012432  62.3454952
  16.6567552  50.4690075   8.9588243  16.0716975  50.5100250   8.2023478
  17.4509645  50.9198380   8.6720926   0.2646128  46.0767889  50.6473255
  -0.3183301  45.4686308  51.1018038   0.3538397  46.8169165  51.2477303
   6.2524533  75.1520681  60.7780409   5.8677125  75.0051022  59.9139738
   5.8153218  74.5175266  61.3459349   6.5608513  69.8189306  46.1338806
   7.3251438  69.9040651  46.7038250   6.9243532  69.5909739  45.2782297
   8.6509949  17.0438766  16.3501728   8.3902383  16.4588571  17.0615029
   9.6049690  17.0888281  16.4145482  16.3963878  28.8515997   7.0342398
  15.7033110  28.9404154   6.3800329  16.9359088  29.6338630   6.9193053
  31.4611411   5.3052658   9.2424577  31.7686248   5.8099204   8.4894568
  30.5095100   5.4071307   9.2265981  13.1437314  23.3989787  15.9986329
  13.9844370  23.2123184  16.4164889  13.0079579  24.3356586  16.1415696
  78.1303692  12.9439986  14.9429262  79.0023375  13.2592428  15.1806736
  78.2940483  12.2179878  14.3409705  66.2221003  25.3559160  40.4153252
  65.4359627  25.7760739  40.7641649  66.7299318  26.0740256  40.0376225
  78.5871553  58.5122442  52.8116465  79.0349531  58.8390923  53.5919476
  78.9990282  57.6662683  52.6358271  23.7794232  15.7298923  30.1180482
  22.9563808  15.4554355  30.5224037  23.7801933  16.6835809  30.1999545
  53.3314180  56.9910669  38.9161849  52.5876284  57.5923252  38.9549112
  54.0587044  57.4850798  39.2946529  46.3393259  72.7762747  55.1538467
  47.1682167  73.0334902  55.5576038  46.4823103  71.8742943  54.8671055
  51.6880703  62.8220463  44.9960232  50.7538605  62.7508068  45.1920080
  51.9471407  63.6652517  45.3676653  55.8387232  12.7169621  25.4101729
  56.2075520  12.0646596  24.8146081  56.4583015  13.4459770  25.3803563
  65.2186394  62.1080017  48.5084915  65.4287195  61.7690706  47.6383066
  65.7537556  62.8970575  48.5938120  74.5047426  59.1640043  40.4659843
  75.2657795  59.4960022  40.9422493  74.0992594  58.5397243  41.0677195
   5.9740841  71.3701725  24.7489524   6.3442385  71.9751883  25.3917384
   5.0485241  71.3070250  24.9847126  15.8472371  25.0966644   7.9479176
  14.9257529  25.1915264   8.1889534  16.2995017  25.7649589   8.4627700
  40.5864286  37.9704642   8.3337373  40.3636789  37.0405626   8.2902068
  39.7852302  38.4213948   8.0673277  19.3639958  43.0045033  17.3584652
  20.2523899  42.9148245  17.0135772  19.4621587  43.5603380  18.1315362
  42.0101643  19.9128866  34.1520095  41.4281034  19.3446326  34.6565151
  41.9499111  19.5823157  33.2557249  69.2909193   4.8295057  57.7255774
  69.7938442   4.2399195  57.1637201  68.4022188   4.4742087  57.7109671
  66.6515732  28.0602455  43.9732075  67.1719217  27.3679018  44.3807936
  66.2281227  27.6343441  43.2278681  38.9896107  74.8302317   3.2377726
  39.9438953  74.8686695   3.1737667  38.6877704  74.8471975   2.3295683
   4.6437541  55.5325842  30.0983882   5.2461171  56.0340166  29.5488811
   4.1415694  56.1964798  30.5709195  21.4581418  51.3870859  42.3171425
  21.4769483  51.4973879  41.3665056  22.3406196  51.0919285  42.5415182
  45.4466486  15.4082358  42.3201895  44.9359894  15.0693393  43.0554485
  45.1227665  14.9244106  41.5604210   9.4432032  27.4705887  56.6720867
  10.1978064  27.2284245  56.1352777   9.3880069  28.4228349  56.5920019
  61.0477495  57.1980953  46.9171095  61.8722630  57.2482443  46.4334822
  61.2108374  56.5495348  47.6019478  54.4463205  73.1010532  36.0012555
  54.7636223  73.0062628  36.8993449  53.4956598  73.1700182  36.0891342
  11.5672374  40.1721907  25.7147241  12.4361706  40.4730988  25.9805107
  11.5734363  40.2359772  24.7596717  38.7243724  42.5983572   4.6507663
  38.0367064  41.9325161   4.6487802  39.5172572  42.1230650   4.8990792
   1.1492851  71.6953325  62.7193546   0.1941612  71.7557669  62.7015305
   1.3602565  71.0399151  62.0544100  50.8447123  15.9279191  44.9962234
  50.6618404  15.7845712  44.0676546  50.7932329  15.0560224  45.3878546
  46.3417196  19.9070346   0.2262836  46.4507723  18.9586782   0.2967085
  47.2180843  20.2608275   0.3780976   0.7961977  35.6814027  61.6767788
   1.7120551  35.7784700  61.4159822   0.3787745  36.4945722  61.3926220
  52.6635647  22.4856377  20.3683996  51.8500900  22.4407959  19.8659241
  53.2518291  23.0104280  19.8254716   5.5778152  33.0811071  36.9218397
   5.0588590  32.6524734  37.6024199   5.3098059  32.6510572  36.1097670
  73.0253935  14.9022484  51.3082981  73.5261774  14.4815063  52.0071650
  72.9096365  14.2166400  50.6504393  15.1163328  12.6309562  57.3285866
  14.4595158  12.9520369  57.9464293  15.0101876  11.6797173  57.3390150
  43.6726952  64.3870497  54.1499424  43.6554766  63.9318180  53.3080959
  42.7914619  64.7485113  54.2448425  75.6690264  61.8342781  30.9283376
  75.2336740  62.2048616  30.1606345  76.4017677  62.4265289  31.0973334
  36.0307956   8.7040299  33.6927199  35.4114437   9.2931050  33.2618761
  36.8617463   8.8603312  33.2440305  26.6603541  28.3885336  43.3818388
  26.9324398  27.4714494  43.3478642  25.7311249  28.3713198  43.1527805
  39.5667553  28.7914252   3.8968784  40.0603914  28.0725789   4.2916131
  39.7640681  28.7325335   2.9620886   3.5458338  28.6499119   1.4154144
   3.0237374  29.2861557   1.9041270   4.3639237  29.1083097   1.2234972
   2.0400120  56.7544127  25.1250577   2.3688407  57.6286459  24.9157333
   2.1825488  56.6641617  26.0672736  26.3937640   4.0881348  16.7703509
  26.7020607   3.7771216  17.6214993  27.1214414   3.9133525  16.1735547
  76.7265892  60.7000446   7.4719566  76.6619444  61.6012287   7.7880549
  76.1405325  60.2033234   8.0429536  67.8800678  50.9542704  49.2266178
  67.2224045  50.4278803  49.6811724  68.2702112  51.4952421  49.9131823
  74.7902966  61.1629868  33.5179687  75.6586456  60.8274508  33.7407231
  74.8931551  61.5293550  32.6396608  30.6379628  25.9590602   4.0638855
  30.3778362  25.5341887   3.2465419  31.3192534  25.3906441   4.4230264
  16.1524200   6.5098208  50.6071043  16.0076332   5.9443623  51.3657379
  17.0712447   6.7696774  50.6739521  42.6413059   8.8144720  28.6695480
  43.4459352   9.2935014  28.8678885  42.9344416   7.9245239  28.4738541
  57.1254301  40.8494997  57.2708988  56.4666557  41.4175987  57.6702881
  56.7015171  40.5078459  56.4836216  71.0261583  61.0051966  39.3835640
  70.1347685  60.7029104  39.5575476  71.2101173  60.7082415  38.4923816
  41.4280653  73.6936569  57.7115250  42.1393967  73.0630493  57.8236055
  41.8266821  74.5416307  57.9071712  31.4929414   4.1571623  39.5919776
  31.4315104   3.5494080  38.8550282  32.3716164   4.5303574  39.5220590
  72.4596930  60.8069706  11.0681903  73.0801392  60.5068159  11.7324078
  71.8013096  60.1135254  11.0246682  71.0386610   9.7840095  16.7582083
  71.4107609  10.0144553  15.9069335  71.7211008  10.0150764  17.3883772
  66.4711952  49.4442368  51.2554312  65.5728579  49.4610500  51.5854931
  66.9460249  48.8971138  51.8810701  25.4032636  27.1113944   9.2987907
  25.0865030  27.9749799   9.0340036  24.7765017  26.4982748   8.9147562
  58.2403660  36.0238886  47.5407505  57.9674339  35.3508377  46.9172573
  58.7565660  36.6384268  47.0191050  23.0507374  60.0807142   2.8044996
  23.4036994  59.2086220   2.9808620  23.5494113  60.6616163   3.3790496
  66.7028093  20.2266431  44.3157673  66.2512159  19.3834949  44.2784119
  67.2163582  20.1877475  45.1226044  61.5739393  36.0392046  46.3053751
  61.0029459  36.6873407  45.8929157  61.2243795  35.1953506  46.0191011
  16.0498929  72.4556494  28.3263564  16.4526701  72.4530506  27.4580264
  16.5765369  71.8403196  28.8365054  34.0562940  28.3033061  33.3096957
  34.5720911  28.2559395  34.1146421  34.6203399  27.9154563  32.6406240
  66.6913128  71.6392660  63.9554787  65.9234953  71.3117361  63.4870672
  66.3337946  72.0562077  64.7394276  20.8233309  24.7230148  16.5628672
  21.6892385  25.0754166  16.3573241  20.2439833  25.4847360  16.5435493
  60.2054691  31.9064927   9.4162339  60.7429361  31.2574196   8.9622927
  60.8118582  32.3437738  10.0139904  70.7348251  68.2095861  18.2313287
  71.5742540  68.3586264  17.7961564  70.6621838  68.9250278  18.8630700
  78.2890511  22.4321580  63.8491535  79.0641546  22.0827198  63.4094477
  77.8886795  21.6711235  64.2695808  69.2621613  14.6817946  37.6825213
  68.6751795  14.4641900  36.9584107  69.0359402  14.0559888  38.3705759
  12.1151924  21.4384079  59.2073011  12.3795390  20.6259656  58.7756872
  11.2169135  21.2754703  59.4950151  34.9738145  12.9139757  56.1252403
  34.5280218  13.2185841  55.3348541  35.8093429  13.3810103  56.1240387
  66.1789894  35.2620220  59.0413189  65.6460762  35.3699708  59.8290873
  66.5980864  34.4084334  59.1507721   4.5401737  40.8863211  46.8799496
   3.8564140  40.9635735  47.5453329   4.0912530  41.0640478  46.0534430
  24.0806413  16.3258922  13.0791450  24.4494081  16.8006098  13.8240528
  24.7590566  16.3729692  12.4055231  15.4210639  26.1699748  30.3823781
  15.2629173  25.7497048  29.5370412  16.3235056  25.9370852  30.6005383
  15.2500415  40.5842018  45.4518318  15.4441106  40.7543564  44.5300817
  15.9926641  40.0654936  45.7611561  38.3018184  16.6882086   5.7491326
  37.7202201  17.3344386   6.1495870  38.4653449  16.0501993   6.4437085
  19.7953176   4.1790250  56.4279509  18.9871395   3.8358611  56.8091536
  20.4926014   3.7971178  56.9610310   7.1296269  59.0050268  48.8583517
   7.2220242  59.0729284  49.8086548   7.4144375  59.8572731  48.5285139
  63.6140299  14.2658341  12.5566280  63.0126905  15.0085342  12.6115751
  64.1689634  14.3490851  13.3320975  47.5054646  27.7218008  12.2478366
  48.0103254  26.9144654  12.1500552  47.5144434  28.1169748  11.3760638
  26.1312270  13.2407987  45.7255030  25.4797459  13.0850589  45.0417280
  25.6440496  13.1535935  46.5448189  62.2894144  64.3634415  59.6928358
  63.1197214  64.6726418  59.3306017  61.8880653  63.8654470  58.9806938
  62.2931576  23.6656570  26.7422056  63.2250977  23.5482621  26.5579820
  62.0096970  22.8206253  27.0912123  19.0991485  12.9384005  53.0057621
  19.9736333  12.5502419  53.0347538  18.7176597  12.7333403  53.8593721
  44.1051483   7.3062408  43.2037830  44.3349028   6.4337021  43.5233450
  43.9485550   7.8183353  43.9971733  53.7514925  47.6055384   4.5837575
  54.3336868  47.8362560   3.8598451  53.0354548  48.2381630   4.5262161
  40.6531525   5.8389539  59.9088049  40.2571869   5.9356296  60.7748842
  41.5923119   5.7714200  60.0810099  41.8309307   3.8348332  40.8880568
  42.0279980   4.2491847  40.0479937  40.9389019   3.5024798  40.7877779
   0.2898547  65.1284504  61.1074495   1.1215105  64.7808886  61.4295959
  -0.3692147  64.7510386  61.6900444  24.0214372  12.8635538  56.8950558
  23.7289739  13.6299527  57.3883390  23.3636236  12.7555037  56.2081480
  71.7003155   2.3904115  13.7555313  72.4177122   1.8370309  13.4467447
  71.3131189   2.7484792  12.9567218  54.1362095  13.7692273   1.1385620
  53.2551241  13.4361506   0.9683248  54.2496109  13.6742067   2.0842591
  75.2634573  65.0178480  21.9703865  74.7868681  64.1969156  21.8472505
  74.7844744  65.6547260  21.4401150  32.2445536  58.7241411  61.8888998
  32.8596497  58.5492229  62.6011419  32.2609925  57.9282618  61.3573551
  43.2767534   9.6588755  58.1481743  42.4309731   9.3442225  57.8289843
  43.6148405   8.9387459  58.6804724   8.6036092  49.0734529  40.2466440
   8.5743397  48.1255722  40.1166534   9.5235306  49.2613840  40.4328156
  45.5791092   4.4949329  12.4530852  45.9074020   3.6386883  12.1786773
  45.5816603   4.4571424  13.4095347  63.3716583  55.9571981  51.8488407
  63.3816481  55.8942795  52.8039169  62.4520922  56.1052752  51.6281700
  32.9558945  17.6095557  45.4282761  32.5542951  16.7427564  45.3682089
  32.4937725  18.1334984  44.7739363  34.8753953   1.4453481  27.4813414
  34.9006939   1.0197495  26.6243362  34.3090343   2.2064602  27.3541594
  78.1479168  72.5443649  62.2994661  78.0529213  73.4836006  62.4577045
  77.2947931  72.2707558  61.9624853  46.6582155  66.6949654  63.8513279
  46.8049526  65.7701921  64.0500641  45.9426260  66.9540882  64.4318628
  26.3125682   6.2534964  48.2836246  25.8321118   6.4405411  47.4771452
  25.6811666   5.7945031  48.8375998  72.2741842  10.7826102  28.7238622
  72.5047541  10.2615380  27.9547358  73.1039000  11.1616898  29.0138555
  76.5895128  68.8124371  59.5092249  76.5826368  69.6869850  59.1201878
  76.3600111  68.2273340  58.7872744   8.0852801  53.1601667  28.9630795
   7.6274323  53.1798506  29.8034477   8.7003088  52.4310064  29.0424252
  36.7760730  15.9990001  39.9277878  37.1438217  16.6854739  40.4843378
  35.8286357  16.1165404  39.9969101  76.0307550  19.1231322  13.2424283
  75.7622766  18.6218381  12.4724579  75.7442093  20.0175714  13.0577660
  26.1349201  37.3171663  13.1686342  26.2566996  37.8734136  12.3992252
  25.3457260  36.8110013  12.9757607  58.3787870  32.1639609  43.3608437
  58.6890697  31.2774634  43.5454512  57.5231552  32.0376945  42.9507446
  64.1986513   8.6937219  15.1220620  64.1813231   9.6503580  15.1499534
  64.8264980   8.4456569  15.8006668  17.8866160  11.2838888  54.9585295
  17.0255625  11.6897392  55.0590515  17.7030194  10.4221129  54.5845413
  23.9702725  34.3367147  55.2915573  23.6531448  33.4836268  54.9950695
  23.9373803  34.2856884  56.2468290  16.3124573  14.8429394  63.5541487
  16.2683511  15.1796484  64.4490862  17.0519519  15.3058016  63.1602716
  59.1702223  42.9540634   4.2204696  58.9575768  42.8335238   3.2950056
  60.0603104  43.3061552   4.2178190  40.0660276  66.5032434  47.1691561
  39.3907094  66.5323973  46.4914179  39.6553731  66.0357332  47.8964996
  19.5281720  71.1728668  56.3276386  19.1282105  71.3406754  57.1809292
  20.2834010  70.6178474  56.5221071  24.6690607  22.1974659  20.1431298
  24.3932581  21.8952990  21.0084963  24.1460371  22.9835892  19.9860036
  43.4050894  10.0842738  49.0735769  42.5623846  10.2843428  49.4810724
  43.7018394  10.9203303  48.7141609  25.2145672   0.7654496   3.1332222
  26.0653543   1.2010552   3.0818588  24.6763229   1.3529456   3.6636692
   6.7830634  24.1086960   3.2724598   7.6523685  24.2025471   2.8829309
   6.7310250  23.1862354   3.5226369  71.6037750  55.6086493  36.7796779
  70.7450914  55.3069544  36.4832449  71.6107798  56.5447760  36.5800476
   8.2251054  37.7161789  28.1563449   7.6375210  37.4295688  27.4571800
   7.6449299  37.9085803  28.8929653  62.4680567  38.4141636   5.0706804
  62.3704576  38.4734702   6.0210437  63.0665588  37.6792526   4.9367702
  50.3976059  48.4962940   7.9123831  49.9321461  49.2886114   8.1803644
  50.2516794  47.8788090   8.6290753  26.4582610  26.8672419  38.1353998
  25.7706642  26.2095904  38.0308318  26.7491031  27.0536995  37.2427201
  68.7828541  37.4147964   1.8485731  69.6377516  37.8337526   1.7492847
  68.6806536  36.8882322   1.0557809  41.2552738  69.2479897  45.7583284
  40.8102560  69.2931366  46.6045856  41.0657072  70.0892258  45.3428555
  34.9725342  67.0052767  44.4019127  34.9373817  66.4766121  45.1990986
  34.1151977  67.4286127  44.3572617  38.9262295  71.1718369  57.5693798
  38.3205009  70.6505442  58.0962324  39.6092153  71.4394951  58.1842947
  29.1068912  54.7546864  18.0638349  28.5694194  54.2557716  18.6790109
  28.4761333  55.2533340  17.5444806  74.4194317  12.0954251  29.9762440
  74.0977383  12.7623963  30.5827856  75.2937078  11.8787801  30.3001881
  59.7664976  49.0267611  18.1154418  59.6859741  49.1190195  19.0647769
  58.9348698  49.3530512  17.7716947  65.9421110  37.4529529  54.5627117
  66.8481445  37.5344896  54.2649174  66.0129452  37.2878838  55.5029058
  30.9183431   8.9667964  23.9393854  31.8142390   9.2459774  23.7505388
  30.8478022   9.0168118  24.8926711  65.1149607   0.6117528  46.1986876
  65.0083923  -0.2657859  45.8315372  64.3514061   1.0967218  45.8856058
  45.8127785   1.6836780  49.1271639  45.6488276   2.3835598  49.7592402
  45.2090073   1.8651436  48.4069109  14.5821583  66.2058115  22.7902603
  14.3554628  66.0403204  21.8751359  14.4246352  65.3707504  23.2308197
  38.4052610  19.0066350  10.3147495  39.2789674  19.3581688  10.1436067
  38.3934307  18.8429749  11.2577796  11.3016582  40.5205202   6.4247739
  11.8205726  40.4399729   5.6244785  10.5098426  40.0122309   6.2489837
  26.2702179  71.4410353  40.5591106  26.1054897  70.5255890  40.3331566
  26.8556333  71.3994932  41.3152790  31.1144972  74.5058346  16.4468408
  30.3757000  74.0471840  16.0467803  31.3367510  73.9784431  17.2141016
  29.2787004  18.5669661  11.9064307  29.7817612  17.9479873  12.4356067
  28.5630894  18.8446474  12.4782896  44.6639872  72.2767115  61.3404751
  44.6973848  73.2332659  61.3294554  44.6638966  72.0477438  62.2698879
  59.0254593   7.0869446  60.2686453  58.4090328   6.8570173  59.5733881
  58.6141109   6.7633963  61.0701036  47.9126549  63.1278133  19.4753683
  47.3718214  62.3965454  19.1770804  47.4323893  63.4934998  20.2182341
  35.5663705  16.8395424  46.4379215  35.3697491  16.2394619  47.1572828
  34.7165918  17.0161831  46.0343075  38.7125492  14.3354487  44.5330811
  37.7855849  14.1648972  44.7000551  38.8669825  15.2040040  44.9045563
  26.9726229  74.3113375  46.5361977  26.1812854  74.2854357  47.0741034
  26.6537094  74.4753933  45.6487226   5.2917522  57.9112053  46.6153336
   5.2106452  57.2154236  47.2676706   6.0865510  58.3824205  46.8653059
  44.2698526  20.9772992  21.1073828  45.2079058  21.1659479  21.0808182
  44.0038013  20.9555244  20.1881599  14.6985984  70.2771664   4.7453353
  14.8123467  70.6001139   5.6392026  14.8580575  69.3354797   4.8087853
  37.2151875  74.2589951  41.9588804  36.2925887  74.4738865  42.0962238
  37.6928997  74.9686241  42.3883581  19.1380465  53.4811735   4.1570428
  18.4271276  53.5652924   3.5216299  18.8614678  54.0195751   4.8985696
   8.7113583  57.3642778  41.1156130   8.4700096  57.1928978  42.0258951
   9.5619959  56.9384766  41.0091257  23.6757851  73.2664633  28.6115003
  23.8700175  73.3227396  27.6759052  24.3636155  72.7026749  28.9654279
  68.1949902  23.3958983  41.3203907  67.4846792  23.9413285  40.9824657
  67.7885199  22.5436831  41.4776945   5.0121850  43.9401627   2.9326373
   4.7878477  44.5659637   3.6213142   4.6559763  43.1068993   3.2408899
  22.2657108  63.8969707  63.4512186  22.8721809  64.5690012  63.1400824
  22.7993798  63.1051636  63.5180569  28.8761258  10.5491590  13.9079750
  29.1770911  10.2162254  13.0625117  29.6216083  10.4217207  14.4946992
  50.7983303  59.4112444  10.4286194  49.8727798  59.6456146  10.4968596
  50.9223318  59.1915798   9.5052540  58.1356812   5.6922406  19.9957860
  58.4799194   5.5650920  19.1117251  58.0324650   6.6402513  20.0785780
  78.3367634  39.4352508  13.0764878  78.3634329  38.4980106  12.8838766
  78.8842058  39.5353913  13.8552761  75.4161358  34.0576839  29.0504169
  75.4753828  34.1964912  28.1051898  76.1323738  33.4546232  29.2492962
  47.8707409  65.4991388  56.1327744  48.1311989  65.9398317  56.9415903
  46.9147444  65.4717207  56.1721087  72.4165964  63.1912994  43.2849026
  72.3604774  62.2920275  42.9617977  71.9133759  63.7047148  42.6529217
  73.1689692  20.8815336  57.4977970  73.6783981  21.5426683  57.9664326
  73.6152554  20.0563002  57.6876640  72.0679283  18.4416103  47.7884769
  71.2347698  18.0032873  47.6154184  72.4111748  18.0045080  48.5678053
  29.6224570  13.3830452  38.8709712  30.4194808  12.8687537  38.9993763
  28.9107347  12.7778912  39.0794778  38.3274508  10.8389592  48.2438374
  37.9407668  11.3338649  47.5215006  37.5843883  10.4010868  48.6589956
  45.8941793  26.1865067  19.5423377  46.7652321  25.8751678  19.2962229
  45.2951622  25.5345225  19.1785729  13.7393749   0.7199208   1.2364924
  13.5559750   1.1248666   0.3887805  14.4199038   1.2710477   1.6229782
  50.9617901  14.2482078   6.2416613  50.3942204  15.0170743   6.2958568
  50.6312561  13.7591422   5.4881406  18.8606036  74.9541569  61.8000269
  18.5334861  74.4296312  61.0692072  19.6898758  75.3134489  61.4846706
  60.4096413  17.7213287  31.8647814  60.6201792  17.3789072  30.9960747
  60.5244398  16.9735932  32.4512506  56.5222883   1.0034553  40.7121468
  55.7675982   1.0900393  40.1297569  56.1411190   0.8867835  41.5823936
  78.8861132  56.4977884  59.0999842  79.2079496  56.8005514  58.2508755
  78.1878138  57.1127415  59.3245792  13.5592771  63.9045572  37.7710700
  13.6025548  62.9485464  37.7910519  12.6505744  64.0984249  37.5410533
  13.5835612  67.0567942  42.8481722  14.1915572  66.8098307  42.1513319
  13.5999167  66.3159084  43.4540176  29.5982742  21.6104150  15.7854939
  29.1418290  21.5920639  16.6266549  29.1649246  22.3074698  15.2929962
   6.5275252  59.3804693  37.1016669   6.9854283  59.2912722  37.9374909
   6.9071764  58.6992311  36.5466809  63.2718515   0.5450502  62.5253773
  63.4200716  -0.2839508  62.9803705  64.1439342   0.9300473  62.4388742
  68.8233662   3.4573686  37.3085666  69.1661215   2.7031869  37.7881098
  68.1485748   3.0911902  36.7369008  28.3382416  27.1582460  13.1578541
  27.4890137  26.7432547  13.3089292  28.3563924  27.3308659  12.2165239
   4.8860198  70.0917625  59.2873383   4.1571862  69.5065737  59.4937086
   4.6012765  70.5617809  58.5036087  46.0701942  64.6991062  48.3456850
  45.3309870  64.3269777  47.8647232  45.9784555  65.6450319  48.2314825
  74.4403458  63.0210066  55.9368849  75.2361727  63.1368017  55.4177666
  74.1872931  62.1100473  55.7873821  65.0885677  61.4585876  45.5431795
  64.2418003  61.8998432  45.6103230  65.1603031  61.2171984  44.6196985
  23.1901455  37.3686814   7.4381876  22.2924304  37.0378041   7.4088454
  23.5962439  37.0305419   6.6400790   8.0476785  66.3492775  49.8813391
   7.8319508  66.5734148  48.9760971   8.7496889  65.7028055  49.8072338
  24.3346524   0.9660117  17.8891206  24.9250698   0.9930217  18.6420560
  23.4651732   1.1138111  18.2611334  57.3981285  32.0858812   0.1983288
  56.5635967  32.5506687   0.2596160  57.9943419  32.5901341   0.7519458
  59.2287827  11.7698419  50.3189945  59.8962164  11.2127650  49.9184656
  59.6123314  12.0413506  51.1529064  45.0125265  24.3990111  35.7721925
  45.7806301  23.8395524  35.8873248  44.2845583  23.8795829  36.1134934
  49.1842937  23.3883977  59.2587566  49.5031118  22.7713895  58.6000586
  49.5284462  23.0537224  60.0868750  77.8991318  36.0682130  10.6895173
  77.7658653  36.6032720   9.9070966  77.6703310  35.1804161  10.4143786
  36.1700010  73.2274675  35.9634542  36.9852138  72.7381229  35.8529997
  35.7704782  72.8531694  36.7486382  55.6057262  26.0999203   5.9940505
  56.2177086  26.1225772   6.7297071  55.1720619  26.9529438   6.0168970
  65.0226498  56.7010784  42.0337868  65.4426575  55.8892107  42.3178530
  65.4090166  56.8836641  41.1772728  68.4488678  37.8427792  64.2954540
  68.0071735  38.4500957  63.7019014  68.6116505  37.0638084  63.7635326
   2.4532288   5.7850826  21.7151213   1.9283777   5.9187549  22.5043583
   2.0289621   5.0537533  21.2663603   9.5823807  65.4133749  64.0348721
  10.2274549  66.1151886  64.1218615   9.1875315  65.5562544  63.1746912
  38.2236028  14.0766454  18.4664929  38.2456565  13.6215127  17.6247096
  37.4356461  14.6185422  18.4252095  34.8606253  51.5580845  22.3249292
  35.1604795  51.8596935  23.1824565  34.7211480  52.3615742  21.8237472
  18.8575840   8.9385659  32.0801139  19.3992949   8.5306770  32.7556920
  18.1228006   8.3358157  31.9660258  13.9160454  12.1678436  26.0925102
  14.5804608  12.7081931  25.6649542  13.4154069  11.7878890  25.3705502
  70.8739328  39.7007847  11.6355038  71.2121630  40.5673838  11.4100301
  70.5174828  39.8048949  12.5177383  36.6191602  28.4536791  34.1547132
  37.3713374  28.9632463  34.4560504  36.9107080  28.0595970  33.3325624
  26.4992404  27.5982165  26.2408948  27.0876575  26.9307470  26.5937138
  26.2429404  27.2618389  25.3821802  28.6130691   3.4434012  48.3301830
  28.8399816   2.6863390  48.8701820  28.4769583   3.0810055  47.4547529
  75.2983093  31.1955976  26.9051218  76.1324453  30.7472634  26.7656589
  74.9876499  30.8665919  27.7486134  22.6073599  19.1917586  54.3679476
  23.1194711  19.9218285  54.7157574  23.2092357  18.7358093  53.7796545
  39.5582724  26.3916469  51.6019201  39.6088648  25.4411125  51.5011358
  40.0254679  26.7383003  50.8417940  15.6565440  37.2810340  59.7794056
  15.3387773  37.5259781  58.9103508  15.6450915  36.3239050  59.7776318
  78.7770033  58.5552692  49.1408682  78.8857412  57.6306200  48.9185238
  78.3556843  58.9386415  48.3716154  59.1362953  61.9672823  49.7418261
  60.0422764  61.8787813  50.0377941  59.1336107  62.7659607  49.2142534
  67.8910208  72.4442196  38.7386870  68.5190296  72.3845768  38.0187702
  68.4000826  72.7881336  39.4727230   1.2668309  32.3055601  53.0606842
   2.2041641  32.3694301  53.2438755   1.1922017  32.4943066  52.1252489
  56.2901878  27.8529954   0.0657529  56.2078094  27.3841095   0.8961682
  57.2334576  27.9616022  -0.0554262  75.5803537  42.0282793   1.4598115
  76.0520601  42.7885771   1.7999178  76.1473083  41.2842178   1.6627054
  48.2886982   8.2590055  35.2472568  48.1955051   7.3834133  34.8719096
  48.7013960   8.1120801  36.0983300  69.9674416  37.1382737  51.1618423
  70.0339174  36.6762400  50.3261757  70.3970003  36.5585804  51.7908669
  42.8553247  25.3293943  32.4519777  42.2403336  25.1228595  33.1557965
  43.7097740  25.0699997  32.7967358  30.5070639  68.2317686  46.4775467
  30.0949597  67.7946329  45.7323551  31.1674762  67.6105356  46.7843962
  48.2781219  58.2783842  56.6788340  47.5925970  58.9267445  56.8398142
  49.0919971  58.7820339  56.6920471  28.7497830   2.8713194  38.3614397
  28.5193324   3.3612370  37.5720692  29.5975733   2.4757780  38.1588769
  68.7011576  29.6555352  35.4869270  69.3860102  29.8039937  34.8348784
  69.1550112  29.2414284  36.2209320  69.1289902  10.8601069  29.0073061
  68.7571383  10.7368791  29.8806739  70.0244522  11.1576736  29.1680455
  77.0635605  30.3772306  54.3199205  77.7255058  29.7247672  54.0911102
  76.2313843  29.9667549  54.0849161   1.0828310  73.2083559  43.0703974
   0.7650536  73.2200575  43.9732313   0.4156993  73.6839914  42.5754833
  61.4748049  41.9488621   6.1471564  61.2993431  41.2614918   5.5045319
  61.7398214  42.7047205   5.6230634  54.0732431   8.2011235   4.1684970
  53.5244226   8.9802712   4.0792754  53.6400032   7.5399059   3.6287493
  32.2766948  36.6442466  61.0554314  31.7925024  35.8677912  60.7745266
  31.5984130  37.2799993  61.2834358  63.8432312  45.6726789  53.4318781
  63.2406330  45.9801531  54.1090584  64.2751694  44.9130726  53.8225937
  33.3003092  31.1314130  59.2015696  33.5991526  31.4159822  60.0652504
  33.4391546  30.1843381  59.2001247  60.9830189  65.5772972  33.5266781
  61.0490084  64.7496510  34.0029931  61.5232372  65.4486799  32.7470279
  55.6554413  12.7347374  47.8818512  56.4853668  12.2700107  47.7746630
  55.2773666  12.3684943  48.6813211  33.7513137  18.4607685  55.0731277
  33.6756539  17.5847638  55.4514456  33.1326962  18.4604573  54.3426895
   2.0930043  34.6324229  32.6699591   3.0471498  34.6850491  32.6145649
   1.7837816  35.4297018  32.2398901   5.8700025  57.9564047  40.2846718
   5.6296611  57.2775412  40.9152365   6.8126190  58.0718136  40.4046202
  47.0466709   6.5425295   2.4746893  46.3171291   6.4445752   1.8628004
  47.2794628   5.6458056   2.7153650  18.6012471  70.0280619   9.7868741
  18.9597189  69.9303055   8.9047325  18.0451787  70.8054256   9.7346550
  18.1125426   7.5863862  14.6817076  18.6759019   7.5275451  13.9100885
  18.0220509   8.5258716  14.8411143  69.7508764  21.4051890  43.9665556
  69.4739914  20.7536316  44.6107912  70.3788424  21.9543242  44.4359589
  17.7585912   4.9759185  63.7539291  17.8800678   5.6827235  64.3878841
  18.2618237   4.2443767  64.1114712  59.0258455  48.4073305   2.7664435
  59.1549826  49.3480730   2.6457968  58.6602163  48.3267975   3.6473864
  40.3319454  26.5996480  61.4189816  40.1446772  25.8774328  60.8193445
  40.7391167  26.1815643  62.1777010  59.7865438   7.0912188  45.3419971
  59.2811441   7.0774150  44.5292187  59.9907684   6.1717695  45.5126905
  71.8216896  29.9157977  61.5422058  71.0648489  29.5792532  62.0219612
  71.4479733  30.3245449  60.7615089  68.0388689  12.5082493   9.9883479
  67.3192310  12.9166281  10.4695725  68.0375862  12.9470396   9.1376466
  31.6862321  24.8969364  37.1824121  31.8896985  25.2801228  36.3291836
  32.5232267  24.8880887  37.6467323   6.5082449  64.7131491  24.4056487
   5.5534732  64.6500587  24.4313836   6.7036390  65.0303984  23.5239434
  59.9050426  20.9915185  62.1003103  59.8351145  20.1381516  61.6724014
  59.9753428  21.6163206  61.3785648  68.8360882  75.0955153  18.9497960
  68.7352180  75.2634430  18.0128562  68.0300856  74.6440554  19.2003465
  65.7074404  26.0551882  12.1888101  66.4381027  25.4809403  12.4181592
  65.2458191  25.5887556  11.4919758   5.9493107  60.7447386  21.3177323
   5.8180940  60.0109053  21.9181490   5.0883734  61.1580324  21.2528753
  28.0179310  51.7125225   9.8392355  27.3056102  51.6133785   9.2075694
  27.9161811  50.9691429  10.4335999  30.0360250  17.1834981  56.5345335
  29.1540337  16.8951738  56.2996006  30.0253415  18.1295741  56.3894129
  50.3219032  55.1355362  46.9844961  50.6812048  55.0631142  47.8687429
  51.0297775  54.8376274  46.4131880  37.0251966  63.7091398  23.4131289
  37.5787735  64.3627405  22.9858232  36.3054276  64.2147827  23.7906098
  31.5518427  34.4581223  63.4830856  31.3502645  34.5300508  62.5501204
  31.7389870  35.3558159  63.7575960  50.7994556  19.7265947  41.9837523
  50.3484249  20.5417848  41.7640495  50.3097963  19.3748033  42.7271938
  24.0544224  45.1153040   8.9941502  23.4067798  45.0261974   9.6933287
  23.9140630  44.3486166   8.4385240  44.6498156  67.8580570  58.6621571
  44.2430544  68.6881828  58.9104843  44.2435932  67.2104979  59.2382479
  49.7370386   2.6880622  61.4337730  49.2882633   3.4406585  61.0485029
  49.7272921   2.8596637  62.3754120  59.0103388  58.0027628  33.1641555
  58.9968777  58.8263416  33.6517763  58.3951855  57.4376202  33.6315227
  23.3219814  27.3856997  62.0221519  22.5735879  26.7896771  62.0520830
  23.9681339  26.9318414  61.4810991  45.9842253   3.9825863  63.3258486
  45.8494425   4.7306919  62.7441263  45.2598524   3.3898214  63.1254864
  52.3250294  35.1646543  46.5434361  52.1654034  34.8264098  45.6623316
  51.9751072  34.4904327  47.1258545  42.7894592   4.1064972   1.7970110
  42.8012609   3.6409554   2.6332906  41.9588280   4.5821905   1.7993993
  42.0554972  23.1123376  30.0718188  42.6912737  23.2732153  30.7690525
  41.4894009  23.8841414  30.0811195  15.0959384  74.4592653  49.7919178
  14.9301803  74.8757033  48.9461422  14.2613780  74.5204514  50.2566719
  52.4837446  60.9130955  47.3449850  52.1656561  61.7538977  47.0161963
  52.4235678  60.9900141  48.2971907  12.8399694  24.9771786  63.8470650
  12.5494134  25.8637905  63.6332226  12.0306087  24.4720340  63.9245033
   1.0853923  24.3320537   0.7027257   0.6309046  23.5329628   0.4360307
   1.8527851  24.0220141   1.1835746  23.9664698  66.9546366   8.0671763
  23.6491108  66.4903212   7.2926247  24.4151592  66.2835979   8.5815853
  61.4268541   2.4599224  52.6576519  61.0218143   3.2431179  53.0301809
  62.3205090   2.7299365  52.4462128  54.1449499   1.8256840  63.5638142
  53.4623241   1.3419005  63.0988312  54.5770025   2.3431100  62.8842306
  54.3634987  16.0651553  50.6200266  54.9864626  15.9036493  51.3285875
  53.6172104  15.5015743  50.8241463  38.3871627  21.8229866   0.5597740
  38.6217523  21.1529970   1.2018904  37.7024293  21.4164114   0.0286720
  34.0113544  73.7111998  53.5443783  33.1539726  73.3023548  53.4261560
  34.0750670  73.8658142  54.4868565  32.2770023  63.9223862   8.7006581
  31.4780021  64.2883348   9.0800190  32.1330214  63.9616871   7.7551651
  15.6449020  68.9866543  30.9024167  16.5711296  69.2221642  30.9559846
  15.6293070  68.1977701  30.3605270  45.6519270  30.6203413  63.3321810
  45.7302237  29.7189140  63.0198812  45.8989143  30.5761027  64.2559052
  12.7797985  38.9759278  10.2013385  12.9074562  39.5768261   9.4672704
  13.4296513  39.2479634  10.8493507  40.6690454  22.9855990  45.9790659
  41.3437748  23.5446215  46.3643789  41.1494160  22.2319579  45.6362867
  55.9715748  27.7043843  41.8312407  56.1735964  27.8087878  42.7610350
  55.6008148  26.8244696  41.7640257  48.3931828  58.2502699  19.4461215
  49.0427637  58.8533401  19.8074830  48.7920904  57.9237032  18.6396110
  27.8731942  59.8122358  49.4398212  28.2230878  60.3770399  48.7507629
  28.1044507  58.9255476  49.1631746  13.4932566  59.1881514   4.8974094
  12.7691710  58.5766268   5.0314420  13.2146204  59.9899387   5.3398240
  74.7982264  24.6615577  16.1219621  74.7638559  23.7164617  15.9741652
  74.0235138  25.0022435  15.6747639  40.1333523  16.1337101  19.1640782
  41.0063028  15.7936728  19.3604517  39.5774937  15.3556740  19.1203713
  72.6347923  28.1043100  52.6798868  72.7590227  27.1561432  52.6377535
  72.0042038  28.2319880  53.3886099  19.5710194  16.3656509  33.1815624
  20.2397537  16.4506638  33.8611197  19.5159769  17.2370684  32.7893472
  67.3092222  47.0595837   8.8990551  66.8446589  47.4452305   9.6418148
  67.1376657  46.1206055   8.9706200  74.4782829  13.5219717  53.5027599
  74.1116571  12.7090466  53.8505697  74.8900604  13.9414895  54.2581940
  76.7996979  38.9203620  43.0191278  77.2313452  39.4672346  42.3627424
  75.9396410  39.3232155  43.1384611  33.0017853  25.6596041  40.2734184
  33.1792164  24.7202420  40.2249384  32.7221060  25.8041859  41.1773539
  16.9807744  73.5890722   5.3062660  16.7557681  74.2742634   4.6768910
  16.7781150  73.9719534   6.1598247  74.2028141   3.3990684  54.9476433
  73.9852953   4.3193063  54.7990513  74.5947552   3.3835691  55.8207846
  14.9127650  12.9916906  51.7688179  14.8567867  13.9260626  51.5686941
  14.9265647  12.5637925  50.9126949  45.8499670  22.0356727  40.0820875
  45.9344482  21.1774206  40.4974174  44.9107313  22.1350813  39.9265599
  41.9865227   5.7813698  47.1800232  41.6606236   6.6032875  47.5467300
  41.4488220   5.6365955  46.4014626  71.2234497  64.4682550   7.4737895
  71.2028742  64.3137980   6.5293568  71.2942314  63.5943699   7.8579122
  14.6512389  32.0527577  32.4980068  14.8856485  32.8377938  32.9929876
  13.7017953  31.9819021  32.5968432  72.2125149  13.0211270  62.0304680
  72.0943117  13.7486517  61.4197588  71.3907957  12.5325108  61.9828320
  70.3742695  71.8268633  15.1604700  69.7173643  71.2845469  15.5970573
  69.9094105  72.2166109  14.4200420  58.5571384   7.2868085  42.8389835
  58.4470510   6.5996730  42.1817493  58.6270189   8.0951023  42.3310375
  76.2872934  24.3538332  11.7524099  75.9709740  24.6087360  10.8856928
  76.4841270  23.4206653  11.6706431  58.3260775   5.0328964  58.3679247
  57.3830938   5.1567811  58.2599449  58.4032774   4.2747450  58.9471292
  66.2176418  54.7217417  37.3678303  65.8023214  55.4829788  37.7731133
  65.9207010  54.7429085  36.4580989  61.6621971  23.1017685  50.5300283
  61.6294003  22.1646929  50.3375578  61.3270998  23.5209513  49.7374249
  15.3710556  46.6878700   2.9866704  16.2838840  46.8734407   3.2069868
  14.8650181  47.2756147   3.5476667  33.2114720  56.6994667   9.6053785
  33.2989645  55.9392500   9.0303600  34.0941095  57.0668125   9.6527213
  16.6983068  70.5929089  43.0242872  16.4045203  71.0843849  43.7913418
  15.9027934  70.4521847  42.5108814  69.8307610  55.8855438   7.5106567
  69.9647999  54.9496317   7.6601064  68.9548969  55.9441185   7.1290052
  63.1795645  50.4576731  58.6209345  63.3377600  49.5137358  58.6347103
  62.3523331  50.5550289  58.1492996  63.7017012   9.6883368  62.3931217
  63.7995529   8.7682277  62.1480560  62.7789640   9.8830420  62.2291565
  76.9056559  22.0130277  39.2802739  76.7292070  21.1867833  38.8303638
  77.7354574  21.8661046  39.7342277  68.1768268  22.7369499  65.0005811
  68.1066054  23.5239457  64.4602687  69.0043610  22.3364829  64.7340396
   6.1859584  36.3038182  55.3145742   5.9291744  37.2042012  55.1155710
   6.1452031  35.8513546  54.4720507  39.1856742   5.2831113  34.6069384
  38.4980106   4.6544340  34.8262930  39.6911526   4.8540047  33.9165831
   1.3176659   9.7912270  40.2988243   1.2444714   9.0645504  40.9175444
   1.4459205   9.3701082  39.4488597  68.0653238  54.4786358  15.1362276
  67.2300148  54.8452950  14.8463070  67.8874207  54.1427040  16.0147107
  58.4665823  26.1219478  49.7701311  57.8036976  25.4409719  49.6557426
  59.1669035  25.8785963  49.1646862   5.7794499  34.6255779  45.0067663
   5.1047081  35.2551436  44.7525978   5.6844139  34.5426369  45.9556198
  25.9809542  66.7045546   1.5355933  25.6110859  65.8821487   1.2145415
  26.8355298  66.4602709   1.8909250  35.8208299  19.5866382   4.2762655
  36.0327816  19.3136275   5.1688868  35.5570579  18.7791610   3.8350886
  23.9501810  66.0505056  26.9517374  24.0225935  65.6571007  26.0821271
  23.1213450  65.7183599  27.2966170  30.7202697  68.6660051  49.5613527
  30.9896898  67.8122282  49.9000406  30.3752351  68.4792948  48.6882448
  19.9619710  69.4122076  61.9113636  19.5246315  68.5848284  62.1123838
  19.4448602  69.7897673  61.1998320  25.1030183  72.9379749  58.7456703
  24.1509104  73.0365610  58.7468100  25.3920770  73.3949852  59.5354939
  11.5551233  59.0300369  26.6327071  10.9816504  58.8603163  25.8853412
  11.2858582  58.3898878  27.2914481  74.8892450  10.9039569  51.5587282
  75.2463722  11.6387999  51.0600328  75.0097752  10.1455772  50.9872723
  43.7954950  26.9094729  60.3312683  43.5267973  26.2018824  60.9172297
  43.8030434  26.5102196  59.4613457  53.7087345  22.2572041  41.8845558
  53.7254333  21.6887355  42.6544905  54.0668297  23.0894113  42.1934700
  29.9693894   6.9535941  36.7789459  29.9561620   7.5369787  36.0201859
  30.8980417   6.7762369  36.9285464  43.3139133   2.3394574  32.0270944
  43.4959269   2.0494708  31.1332202  43.0903387   1.5368959  32.4984121
  54.6035433  35.5740619  48.2925224  54.6051168  34.6186233  48.3505487
  54.1064358  35.7648897  47.4970961  40.8953667   4.3550014  29.8543119
  40.4263258   3.6978880  30.3685451  41.7614841   3.9735156  29.7109985
  71.4177465  29.5197535  50.6785870  71.9488811  28.9937043  51.2764168
  71.0956049  28.8935351  50.0302744   7.8875256  72.5360155  26.4537120
   8.5379469  72.1507549  27.0408750   8.4007490  73.0593395  25.8381128
  47.7333593  62.5576973  25.6521082  47.4310398  63.3720970  25.2501369
  47.0374966  62.3204088  26.2650514  71.7918682   0.9077511  35.5709362
  72.4647903   0.3351076  35.9390163  72.2773075   1.5315348  35.0310540
  21.1770916  64.5959663   9.2078346  21.9268441  64.6889496   9.7955900
  20.6092668  65.3352785   9.4251430  11.6686893  60.0200558  38.8666058
  11.8813801  60.6179714  38.1500244  12.5080180  59.8509836  39.2945933
   4.2419130  21.1121225  39.8509860   4.5325682  21.9389343  40.2358627
   4.3192279  20.4764700  40.5624676  37.7359676  55.8831882  64.6500015
  37.2168970  56.4715481  64.1017056  38.2408404  56.4667559  65.2163839
  44.2899036  16.8318152   5.9087259  43.3771229  16.5445638   5.8852357
  44.7108316  16.2412870   6.5334886  61.9827604  27.5211668  63.0181170
  61.2794495  26.8944907  63.1879997  62.7619839  27.1155310  63.3982468
  17.6607859  21.3127136   5.9619302  17.3104215  21.5937114   5.1166385
  18.6079180  21.2760878   5.8284003  68.6931658   8.6538553   1.7828786
  67.8727961   8.9777213   1.4109407  68.6600637   8.9180249   2.7023083
  53.0589056  72.4855947   4.6695825  52.4195242  71.8496466   4.3486574
  53.2978010  72.1667099   5.5399108  11.3707232  50.1609039  34.2894435
  11.9845879  49.7350407  34.8878074  10.6843781  49.5091772  34.1465735
  69.3849945  19.7315753  59.2370081  68.8909912  19.4227779  59.9965096
  68.7248611  19.8505330  58.5541439  22.3415041  37.1808362  29.0181208
  22.4216151  37.2011566  28.0644965  23.2449365  37.1678591  29.3341517
  26.6700292  11.4641297  36.7009664  25.9072757  11.1264598  36.2314796
  26.3597965  12.2702086  37.1135497  77.7660084  35.3902435  24.8193836
  77.3832560  35.4472446  23.9438939  77.0802975  34.9914026  25.3550649
   0.8850711  57.1243191  13.6769736   0.0669855  57.4559116  14.0471220
   0.6522602  56.8480015  12.7905869  10.6601882  62.4039364  60.2622986
   9.7776145  62.0743656  60.4316425  11.2261856  61.6396904  60.3709412
  45.5858469  67.0067549  34.7702622  44.7987700  67.2685242  35.2479887
  46.2372398  67.6692390  35.0005460  58.8817120  12.6245964  10.5132592
  59.1594887  11.7953992  10.9024918  59.5941353  13.2325423  10.7109511
  29.8338866  47.7642107  24.5273161  30.4739714  48.2491398  24.0063882
  29.6807909  46.9602442  24.0308976  28.2651281  34.9915409  59.7431326
  27.9146314  34.6987343  58.9019108  27.7739477  34.4909334  60.3945637
   4.2848670  48.7686300  52.0776701   4.3880993  49.6519375  52.4317026
   4.9350169  48.2452631  52.5463104  70.3631687  47.1305895  36.1919498
  69.7378302  46.9305038  35.4954219  71.0724211  47.5975370  35.7501960
  34.6353579  73.6013746  50.9052992  34.3237591  73.6420822  51.8094492
  35.5889201  73.5683918  50.9818459  59.7131872  67.3071480  12.1913552
  59.1635227  66.5610552  11.9516778  60.4087639  67.3132133  11.5338087
  28.7705612  65.4680681  61.7187023  28.5567832  65.5121565  62.6506853
  27.9720378  65.1402235  61.3050508  14.8299205  67.0913219  40.3760433
  15.7548761  67.2876024  40.5249119  14.8193097  66.5931797  39.5587468
  18.0909324  58.3440924  10.3761089  18.1916237  58.5896301  11.2957859
  17.4428260  58.9595509  10.0334680   4.9263626  66.2877941   5.8034778
   4.9695933  66.0990000   4.8660773   4.6261936  67.1954441   5.8514041
  34.4523716  18.8487887  37.3548818  34.4650507  17.9072654  37.1828175
  33.9992976  18.9328623  38.1938624  28.0389905   9.3083704  57.7558327
  28.4221292   8.5744596  57.2754002  27.1230865   9.3243676  57.4781704
  31.4943051  15.2494419  44.9742174  31.5973759  14.3909490  45.3848267
  30.7760549  15.1328146  44.3523312  66.1872482   1.0695029  54.4600964
  65.3655243   0.8242980  54.0348005  66.0050774   1.9193140  54.8611784
  12.5643539  39.3306303  16.1683917  12.9932225  38.7253618  15.5634522
  13.2377636  39.9781394  16.3769209  33.6293530  72.7677011  42.0564365
  32.9391313  72.4463463  41.4763021  33.2925558  73.5984135  42.3921728
  29.8091102  19.5164001  37.6736331  29.1717458  19.5423305  38.3873057
  30.0269961  20.4346323  37.5136209   8.2064331  45.2704191  55.3376961
   7.3711920  44.8028755  55.3352070   8.8406897  44.6294212  55.0166559
  66.3948202  30.4224038  61.6370916  65.4617214  30.5187368  61.4466095
  66.4948797  29.5035028  61.8857765  54.7888279  33.0223274  48.3133459
  55.3155804  32.3196459  47.9325581  54.7157478  32.7919126  49.2395210
  44.0816021  18.7826359  37.8949714  44.8172760  18.6409581  38.4907460
  43.7381029  17.9053736  37.7257037  39.4961762  54.1930485  10.0272942
  39.5277309  53.5171700  10.7043684  38.6601996  54.0490055   9.5838666
   6.1063761  46.4096260   6.0446942   6.1892009  47.3005581   6.3847142
   6.9325352  46.2495852   5.5885369  54.3739653  24.3697095   1.1697598
  54.8933220  23.5864949   1.3516212  53.8010216  24.4593263   1.9312954
  70.0443554  18.7076926  37.8127384  70.9645319  18.5594773  38.0307603
  69.9143600  18.2366836  36.9896436  20.7606673  46.4967203  62.4921179
  20.0508451  46.8172216  61.9356394  20.6376886  45.5477142  62.5143957
  76.9233704   5.9734643  23.4600353  76.1534357   6.4733422  23.7312436
  76.5859175   5.0980675  23.2701969  77.1952915  64.4419289  30.6669497
  76.9691324  64.3117809  31.5878987  78.1523943  64.4432402  30.6532311
  69.9321747  11.5058851  62.0589733  69.3808317  11.2252200  62.7893686
  70.0821209  10.7081127  61.5517187  55.0107813  31.9628334  16.4273429
  54.4050789  31.4956617  15.8519268  54.7528315  31.6998434  17.3108172
  46.5687513   5.8049041  21.6426182  46.0060120   5.8328289  20.8688092
  47.2224379   6.4868557  21.4881229  72.5018167  21.0069418  55.0484610
  71.5671825  20.8339906  54.9354362  72.6158905  21.0978460  55.9944820
  16.0119498  56.6076469  39.0632081  16.7948043  56.2485790  39.4808745
  15.7562888  55.9437799  38.4227777  49.1969824  20.2336550   9.9208075
  48.7210846  20.0922084   9.1024268  49.9858379  20.7089972   9.6600622
  38.0975580  27.4627805  15.9025383  37.1717405  27.4660301  16.1456132
  38.5535884  27.1935081  16.6998839  39.7111726  10.7122576  52.8741884
  39.5084357   9.8097765  53.1204748  40.6109619  10.6756175  52.5497389
  17.5901902  54.0520573   1.6556053  18.0215657  54.1134834   0.8033295
  16.7393231  53.6569595   1.4654654  29.8964000  18.9178658  46.4651203
  29.9997377  18.4253216  45.6509018  29.3487048  18.3582807  47.0156908
   0.0120562  16.5594876  37.0119166  -0.2663969  16.4336395  36.1048031
   0.9005509  16.9089425  36.9434357  29.1323376   1.8558007  42.3260117
  29.9038887   2.1387577  41.8352175  28.4338117   1.8171236  41.6727161
  66.8497086  25.0926161  55.0208187  66.4531755  25.9579659  54.9200058
  66.7417145  24.8863602  55.9492731  57.6397943  61.9384289  45.5788612
  57.4327087  61.1680555  46.1078930  56.7932129  62.2329855  45.2430487
  16.7206866  56.8507302   0.4606674  16.0038573  56.4551664  -0.0352337
  17.4748618  56.2894881   0.2804992  69.7810030  14.5609820  43.6991787
  70.0357103  13.7614107  43.2387018  68.9260149  14.3570733  44.0781975
  74.7546673  21.3522315  47.9908228  75.5883217  21.5220475  47.5521803
  74.9336720  20.6080270  48.5655832  17.7559233  71.5805054  33.2681346
  17.6868081  72.4674940  32.9150009  18.0861509  71.0570574  32.5379419
  66.4539766   8.7443185  48.8803911  66.8289185   7.8646588  48.9233923
  67.0137072   9.2132652  48.2615042  78.5535049  10.0085437  56.1196709
  78.3680916  10.9275675  55.9266710  77.7336073   9.6690136  56.4784479
  24.5766401  69.9133444  11.5752137  25.0822234  70.5069733  12.1303892
  24.8615384  69.0382719  11.8384957  29.9385834  60.4583502  21.1894393
  29.7666860  61.2156010  21.7491293  29.9000669  60.8055353  20.2982545
  17.0205891  18.3634818  17.0526624  17.2696793  17.8940237  16.2565494
  16.7825758  19.2396522  16.7494988  74.4881821  47.5503731  12.4596250
  74.5043135  47.6675129  13.4094930  73.9895391  48.2998705  12.1343005
  63.5661376  40.8945192   0.4555318  64.1938460  40.3229261   0.0133846
  64.0310729  41.2052668   1.2323854  41.9304323  16.8367183  61.2903452
  41.4677429  17.5598371  60.8669710  42.7206945  16.7169702  60.7636738
  64.2915773  54.1631556  12.2428882  63.4646606  54.5811510  12.0026469
  64.9501848  54.6138096  11.7143273  59.6846247  36.9635797  54.1656971
  59.5276356  37.9043698  54.2463207  60.1127720  36.8642020  53.3153772
  14.8015440  74.6548700   1.9969298  15.0536895  74.8591328   1.0964122
  15.5600083  74.1976976   2.3601896  14.0003133  72.9909086  43.8246536
  13.4549308  73.4826756  44.4386196  14.0303814  72.1055031  44.1871357
  54.3218994  42.6345778   4.4233903  53.9687634  42.4044228   5.2827829
  55.2680779  42.6853848   4.5590255  75.6186676  41.3599253  27.5158191
  76.0848379  42.0839977  27.0979261  74.8941946  41.7782116  27.9810143
  63.2157564  10.4620600  65.0564718  63.7776661  10.2297866  64.3171930
  62.5082779  10.9761345  64.6673298  69.7069597  15.9222400  62.4271107
  69.9326086  16.2060905  63.3129692  69.2718554  16.6800046  62.0363331
  74.9358511   9.8469162  64.5037937  74.6339321   9.1726100  63.8951969
  74.5151186  10.6507158  64.1986370  48.1203413  36.0681391  61.7051840
  48.1564331  36.9994354  61.9233847  47.7896452  35.6486750  62.4994898
   5.9782702  31.3545012  14.2414272   5.5274409  30.8135509  14.8897779
   5.4895490  31.2137151  13.4305251  19.0896106  12.6994312   7.4845952
  18.4759319  11.9662869   7.5307572  18.5713613  13.4621131   7.7414346
   1.8155062   4.7789758  32.6107526   2.4190098   4.1928205  33.0673027
   1.9431683   4.5792189  31.6833735  36.6397548   9.9794847  53.3640242
  37.0058370  10.0868547  54.2419100  37.0230365  10.6942308  52.8556252
  52.3659182  11.3004613  42.5901079  52.1085215  12.0839119  42.1041203
  53.3012390  11.4181137  42.7561283  67.9425859  25.2306652  25.2977967
  68.2550287  24.3339825  25.1770854  67.1992588  25.3078532  24.6996856
  47.8094149   9.7566420  32.9593253  47.9739285   9.0298522  32.3585415
  47.8812981   9.3677866  33.8310242  35.2745986  72.7826405  10.1813459
  35.2600431  73.5076141  10.8061945  35.2834415  73.2063293   9.3230677
  40.7979774  22.2199154  35.1372862  41.3274813  21.4577341  34.9028993
  39.9206042  21.8662357  35.2834392  31.3447738  70.5496168  44.0944767
  31.1617661  70.3123569  45.0035667  31.6801691  71.4447927  44.1434336
  39.7686243   2.3288593  61.0495281  39.3305564   3.0306804  60.5680990
  39.6709871   2.5726625  61.9699907  27.5946784  47.0449018  30.8358574
  26.6544890  46.9204617  30.9654355  27.9657269  47.0015192  31.7171478
  18.8421357  40.9547997   8.2046074  18.0868959  41.5186071   8.3718377
  19.4912231  41.2249851   8.8541609  67.6290751  30.1430917  40.6200409
  66.8713522  30.7268524  40.6562567  67.9804564  30.1512194  41.5103769
  55.9167671  64.5254612  63.4909439  56.1571836  64.3941975  62.5737762
  55.7750845  63.6417055  63.8302565  61.4602995   7.8288358  21.0177040
  60.7069588   8.1237119  21.5293217  61.8544769   7.1368974  21.5488124
   0.6721889  34.6683168  58.4564543   1.3183576  34.5508265  57.7601147
   0.8552105  33.9609933  59.0748644  21.4313793  19.4329572  30.2845025
  21.1004329  19.1771054  31.1454582  20.6636763  19.4011617  29.7136664
  14.9271786  42.3910427   1.5289965  14.5550334  42.1274137   0.6874274
  15.5852830  41.7226648   1.7197795  69.8130274  45.3697872  54.6460962
  70.0017881  44.6253777  55.2174568  68.8777924  45.2950287  54.4564104
  37.6823950  49.0287161   0.2023854  38.0964541  48.3839941  -0.3713031
  38.1322002  48.9268398   1.0411508   5.3490812   2.1948780  62.2520304
   4.5327616   1.8697353  62.6316833   5.0700825   2.8272927  61.5898800
   8.8909906  58.4133530   6.3142759   8.8587379  57.4580765   6.2629020
   8.9179301  58.7015057   5.4018760  56.9898272  34.3104887  51.7316008
  57.3260736  34.9937654  51.1516857  56.5847349  34.7884798  52.4552393
  34.9303603  60.1481581   9.6815789  35.4438329  59.7225904   8.9949429
  35.5786324  60.4226112  10.3301525   0.3254123  10.6232834  30.9050822
   1.1911213  10.2300680  31.0153604   0.3851587  11.4647293  31.3574433
  61.3444138  29.4019818  15.1815331  61.4399385  30.3266335  14.9532235
  60.4015493  29.2417121  15.1421154   6.5743202  26.4132619  30.4605031
   5.7599396  26.9157124  30.4368162   6.9389474  26.5888643  31.3279366
  64.9833107   1.3134016  30.8788323  65.5247068   1.2857039  31.6677260
  64.3343496   1.9939640  31.0574794  15.4235065  42.6451015  64.5803165
  15.8652198  42.8550243  65.4031467  15.8816648  43.1679821  63.9223480
  67.9174948  48.2857084  59.0869331  67.5699806  47.9041147  59.8930693
  67.1620464  48.7057257  58.6756992  75.9851694  28.3052015  60.1776552
  75.2401161  28.0873394  59.6176004  75.5900908  28.5927415  61.0007381
  23.9787340  64.8780107  32.2145629  24.8665452  64.5530176  32.0649004
  23.6137009  64.2841673  32.8705573  73.8038111  31.4560509  33.5828948
  73.8159704  31.0045958  34.4268584  74.6534204  31.8941569  33.5333562
  58.5410547  51.6710758  49.7734213  58.9494228  52.3239946  49.2049408
  59.2723894  51.2752867  50.2474833  38.2122898  21.1233711   3.2914656
  37.4421859  20.5573821   3.3446637  38.3199763  21.4653301   4.1789895
  72.4086237  44.0017891  39.9940562  71.6650677  44.1475201  40.5789614
  72.4698544  44.8065472  39.4794178  57.5868940  41.5376234  63.5103703
  57.2889900  42.3051167  63.9986753  56.7819262  41.1286402  63.1925869
  39.1178703  21.1664367  64.4159555  40.0724030  21.1236072  64.3588448
  38.9328861  22.0738554  64.6580410  62.9556656  46.9561815  51.2683916
  62.9340076  46.8614674  50.3161335  63.3688116  46.1508656  51.5798473
   9.7102565  14.7813547  53.5054255   9.1420329  15.5515754  53.4947443
  10.4962623  15.0700009  53.9692259  38.6794114  64.1080856  40.9478664
  38.1192589  64.7657347  41.3601303  39.2873669  63.8443279  41.6385555
  52.3560286  74.3631744  22.8949785  52.2591686  73.5313129  22.4314570
  51.4814377  74.5507097  23.2357883  61.3142538  10.5164587  61.8375063
  60.7203627  10.0988352  62.4612999  61.4743900  11.3858819  62.2045135
  60.5696154  50.5216932  11.2860453  60.1755619  50.0380468  10.5600679
  60.2807093  50.0544643  12.0699227   7.9014659  34.2658377  19.3639910
   7.0416528  34.1746736  18.9533293   7.8938782  33.6298656  20.0793314
  66.6283274  57.8440523  57.0602036  65.7608223  58.2242823  57.1983862
  66.4541340  56.9455481  56.7798853   7.1120101  49.3245983  60.1844358
   7.5346541  50.0860167  59.7871351   7.2077179  48.6302376  59.5325661
  11.2147367  53.9716768  49.7097731  10.7634401  53.8966990  50.5505753
  10.8890212  53.2323933  49.1963530   1.9426510  36.1686802  47.5934362
   1.1120949  36.5764165  47.3481655   1.9469057  36.1907172  48.5503769
  56.8672848  25.6000018  33.6577868  56.8573093  26.1279178  34.4561839
  57.0382929  24.7087216  33.9621043   4.1804507  45.7305384  52.9908848
   3.3889872  45.2253628  52.8048420   3.9628389  46.2371397  53.7733412
  55.8174372  20.2677560  60.2218390  55.5679321  20.8961630  60.8993959
  55.0360107  19.7297621  60.0946903  23.7700057   0.5807799  57.5303221
  23.3217907   0.3860683  56.7072630  23.9361453  -0.2769805  57.9213142
  67.7855682  63.9243841  40.7642460  68.1088638  64.0180540  41.6603136
  67.1303129  64.6160841  40.6724977   8.6237872   4.8155174  20.8923769
   9.1168946   5.6017965  20.6581950   9.2519736   4.1002294  20.7924914
  43.7121010  35.9931540  36.5858197  44.5872784  36.2825537  36.8437815
  43.4227562  35.4335713  37.3065019  65.9315109  49.7432613  31.0540462
  66.2352276  48.8634872  30.8304691  66.1434603  49.8411131  31.9823456
  61.7959452  12.6584923  16.4959788  61.4810038  13.0231798  15.6689072
  62.4045992  11.9668269  16.2364221  59.2247534   4.7203782  31.4516830
  59.5475864   4.3910608  32.2904682  59.7002363   4.2110506  30.7953835
  24.0390539  45.6968641  14.2971885  23.2434654  45.5747271  13.7791598
  24.4772172  46.4444590  13.8905621  47.8720522  16.9914997  29.6763778
  47.9474211  16.0397279  29.7447968  48.2336235  17.1990705  28.8147426
   6.0058481  55.9044361  48.2992935   5.5691558  55.0717974  48.4788609
   6.3569301  56.1783743  49.1466045  65.4025841  25.7495618  46.9638395
  65.2551508  26.6891432  47.0719194  65.1514101  25.5703783  46.0577297
   2.6230508  66.7175341  12.6490510   2.2660109  67.6050138  12.6827514
   1.8550155  66.1483622  12.6979971  79.5148087  73.4542704   0.9907588
  79.5820665  73.5710049   0.0430875  78.7804842  74.0112448   1.2491690
  51.6816330  67.2521067  54.7436762  52.5941277  67.3153591  55.0257921
  51.3001823  68.0990124  54.9749327  67.2894669  67.5862932   0.8654464
  66.7568684  67.0655632   1.4666222  68.1920242  67.3483753   1.0776109
  55.0408316  42.3354292  38.5423422  54.4729567  42.2458172  37.7770233
  55.9047413  42.0633268  38.2327366  17.1182871  13.2236886  38.5517573
  17.8838110  13.2149959  37.9771900  16.8176067  12.3150218  38.5639071
  45.5912495  25.8269763  47.1391058  45.5959129  26.4913344  46.4500189
  46.5167236  25.6479049  47.3054266   8.1092292  60.9892464  60.1768589
   7.7897537  61.5968466  59.5097828   7.6632708  60.1647377  59.9831247
  15.5687928  21.4838052  52.0232677  16.0484111  21.6162539  52.8409815
  15.5281293  20.5329800  51.9207573  76.4526129  15.8810353  60.5723906
  77.3338318  15.5144262  60.6450939  76.0944843  15.8211887  61.4580488
  70.8627892  25.4973626  43.8092613  70.5557823  24.9134374  43.1157112
  71.7984200  25.3095412  43.8837862  32.8472662  27.1237350  15.7683372
  32.2838020  27.6043248  16.3747811  32.3356557  27.0650291  14.9614668
  66.9422436  32.3185015  52.4622536  67.6001549  32.6678562  53.0633640
  67.1609020  31.3901520  52.3810768  45.7383728   2.9100260  42.9997110
  45.4888535   2.7033135  43.9004040  45.0361681   2.5389144  42.4654675
  58.7054920  34.8141241  39.9077225  58.3381653  35.6171465  39.5383167
  59.6136284  35.0377631  40.1114655  63.5204077  27.6143026  60.5920982
  63.2045126  27.7118230  61.4903927  62.9123211  28.1342220  60.0665998
  23.5474634  57.7856779  19.5894754  23.0229640  58.5725164  19.7378755
  23.4244967  57.2629023  20.3818226  74.6239758  30.8134580  13.5840786
  75.3293228  30.4650402  13.0388069  74.6063900  31.7493057  13.3837926
  14.9787259  49.6395969  15.7298708  14.6292806  48.9598322  16.3060987
  15.7851720  49.2633820  15.3772521  54.3496656  32.5154901  50.9728336
  54.0467453  31.9535089  51.6860294  53.7920284  33.2916546  51.0261297
  60.6222105  32.4254322  53.2110500  60.0285101  33.0133653  52.7440548
  61.4879799  32.6283717  52.8568029  66.1463022  42.0896196  63.5142994
  66.4419508  42.5158453  62.7098417  65.2880430  42.4759483  63.6885595
   2.0482916  27.5467706  38.6480021   1.2609202  27.0226169  38.5012341
   2.4073349  27.6900125  37.7723289  63.9418507  36.2871408  60.3587437
  63.5816813  36.9603181  59.7813845  63.3780813  35.5260921  60.2201653
  60.7078266  25.0673079  59.0888357  60.1049852  25.1358795  58.3484888
  60.1711845  24.7250891  59.8037720  28.3985829  69.1780424  14.2669034
  28.3709311  68.2879162  14.6178174  28.3981919  69.0610838  13.3168745
  20.2413321  53.8673782  41.7172480  20.2479339  53.1208706  41.1181545
  20.9721041  53.7027264  42.3131466  66.4002705   1.4777690  22.0034933
  66.2251616   2.4126941  21.8963313  66.3666344   1.1243601  21.1145616
  76.6664314  23.6590004  58.3944464  76.4379978  24.3237567  57.7447128
  77.5220203  23.3340693  58.1140471  45.9736633   2.6947936  19.8897195
  46.1353254   1.8675084  19.4361818  45.4677105   2.4485375  20.6640553
  14.7596169  65.2312326  33.8557982  13.8427877  65.0595808  33.6408782
  14.7568762  65.4023027  34.7975850  27.2875857  49.9499607  11.7512715
  27.2330999  49.0047550  11.8921363  26.9318223  50.3325510  12.5533235
  49.1817808  53.1754732  51.3153839  48.4105301  53.4564877  50.8230066
  48.9339066  53.2873869  52.2331381  75.9431219  35.4948163  13.0565977
  76.8307352  35.5201125  13.4139931  75.6211805  36.3912725  13.1512332
  24.4072437  19.1407871  19.9187875  23.6692977  18.5546088  20.0863028
  24.0601993  19.7956944  19.3130732  64.8370695  43.6032200  37.3482108
  65.2574158  43.0911875  36.6572928  65.4434729  44.3250275  37.5140333
  41.2046855  75.0043841  64.6542724  41.2301057  74.0503450  64.5808134
  40.6908529  75.1701399  65.4446736  26.3883901  51.7363644   7.1538258
  25.9203386  52.3335361   6.5702623  25.9033394  50.9133720   7.0935398
  35.3340387  12.8582895   0.7398587  35.1689029  13.0318320   1.6665979
  34.6710086  13.3716118   0.2782045   5.3475326  34.0083671  32.5467062
   5.2180147  34.5202637  31.7483211   5.4419667  34.6632338  33.2384181
  37.6519179   2.7162561  11.0551059  37.4710917   2.6334134  10.1187992
  38.2478356   3.4626156  11.1188388  10.6808400  69.8844528  23.1912327
   9.7741568  69.5788479  23.2188511  10.6238592  70.7716322  22.8364062
  14.4735777  29.4641280  36.6414070  14.2097664  28.8233995  35.9810281
  14.0438592  30.2760673  36.3724613  58.8891029  72.5566626   9.8203605
  58.8390589  71.6916704   9.4135261  59.2150307  73.1293774   9.1261017
  21.8901324  53.6428976  54.3459606  21.9884515  52.7295446  54.6149349
  22.1233940  53.6456299  53.4176207  61.9593906  52.1369696  22.0337582
  62.2865629  52.0721292  22.9309678  61.9058132  53.0777884  21.8657613
  34.4532633   0.8418249  20.8702898  33.8852859   1.5949526  21.0328746
  35.2481508   1.2183973  20.4926944  72.8976488  42.4357080  23.4139442
  72.8957796  41.4863157  23.5359335  73.2603598  42.7812767  24.2295766
  56.0868120  34.7190094  43.8391542  55.8434772  34.4914865  44.7365141
  57.0283747  34.5520234  43.7966537  67.3005772  16.7040777  42.1164608
  67.7692652  16.6483712  41.2837124  66.6094398  17.3475015  41.9597387
  44.8434114  71.0042000  46.6838789  45.5587673  71.3092804  47.2419357
  44.1478825  70.7638836  47.2960186  31.1125302  32.7136064  20.0858545
  31.1523438  31.9194341  20.6187153  32.0141840  33.0343366  20.0662541
  41.7152357   3.5589013  16.7954278  42.2533703   2.7709699  16.7191982
  41.3893461   3.7130770  15.9087169  48.2249022  25.2494717  47.4030828
  48.3778524  25.3849292  48.3382225  49.0974045  25.1080179  47.0357084
  20.5648732  11.9812393  43.5277557  20.7908916  12.0066404  42.5979710
  19.6077740  11.9823933  43.5417032  67.6893759  10.4569113  47.0539474
  68.5620213  10.8423269  46.9753551  67.1759748  10.8847654  46.3686848
  13.1710207  44.1655111  33.3383107  13.8912940  44.0357590  32.7213788
  13.3242929  45.0359631  33.7058020  18.9101624  10.3268790  46.1101961
  19.8506904  10.5007744  46.1475801  18.8401580   9.3741506  46.1705351
  10.2678812  20.0542927  15.6672716  10.4852092  20.7988954  16.2281322
  11.0968995  19.5892262  15.5546951  54.9131298   9.0082729  53.0918074
  54.6630669   8.9680326  54.0148926  55.7275200   8.5077316  53.0422449
  38.3827734  14.4969916  52.2878265  38.7836552  14.2100072  53.1082964
  37.5946784  13.9599800  52.2056246   8.9682436   1.8941684  57.3040771
   8.4019613   1.3343166  57.8352308   8.7436062   1.6733411  56.4001942
  51.0850859  30.0640225  12.8047240  51.1613321  29.4514155  13.5362506
  50.1661968  30.0102496  12.5420702  15.5451465   2.5093415  52.2329712
  14.7072244   2.9456729  52.0789146  15.4598057   1.6642231  51.7916965
  76.5949678  67.5207233  62.1792221  77.5355196  67.4597883  62.3461962
  76.5104914  68.2284594  61.5403128  67.3382902   3.3482918   2.1626067
  67.9320669   4.0965956   2.1017875  67.7499390   2.6715901   1.6251598
  53.0833960  58.1781292  42.2860479  52.7420521  58.7932730  41.6369581
  53.4410858  58.7342310  42.9781723  16.3403356  41.2676620  34.7135639
  16.3008595  42.0247173  35.2979803  16.5913558  40.5393410  35.2816963
  46.3346910  19.5624673  47.2188711  46.3399220  19.5858908  48.1757689
  46.4448118  20.4763436  46.9563103  79.4526672  26.7406225  47.2321939
  79.4324350  26.1374903  47.9751968  78.5316658  26.9270444  47.0498848
  22.7004814  54.7764301  60.4969692  23.3781838  54.8339033  61.1705017
  23.1443167  54.3878317  59.7431564  44.3020344   3.5667101  37.7417707
  44.2909622   4.1939521  38.4647346  45.2235842   3.3254793  37.6480627
  12.9662359  63.5634851  27.7711034  13.8945293  63.6007595  28.0015683
  12.9000032  62.8280258  27.1620512  44.1637993  17.3464930  15.2181244
  44.3942451  16.8317342  14.4447243  44.0566778  18.2388234  14.8887229
   0.9794158   8.3878738  54.7598076   1.4750014   8.5546815  55.5615568
   0.1542214   8.8560939  54.8865175  63.6480868  -0.1003024  49.4526577
  62.7866114   0.3143028  49.4994974  63.9275992  -0.1755663  50.3650379
  71.5474129   7.7988309  64.5029211  72.3219919   7.4486268  64.9429417
  71.4506817   8.6832339  64.8560572  50.5436182  16.8663204  35.0596380
  49.9186802  17.3656845  34.5339799  50.3727484  17.1415222  35.9603596
   4.8484150  30.7296371  50.2589321   5.4991204  30.2163100  50.7377958
   4.1459021  30.1080132  50.0684214  55.1852512  56.0776615  50.0993729
  55.6328201  55.2715254  50.3563881  54.5297766  55.7948303  49.4617271
   5.4020059  39.2859459  34.8480988   5.3298050  40.1839924  34.5247912
   6.2969440  39.0245628  34.6313143  18.3152926  71.0979271  21.3620543
  17.4298346  70.9701681  21.0216498  18.2222629  71.7884398  22.0183849
  70.2869225  31.9932532  40.3268862  69.5609570  31.4480877  40.0235653
  69.8998308  32.8597283  40.4518414  66.9824696  45.3983259  40.4334927
  67.0533466  45.8405590  39.5875382  67.7642107  44.8481274  40.4823780
  26.0251355  25.7830024  50.5877638  26.8561363  25.9654474  50.1491451
  25.7538891  26.6274166  50.9477901  62.4961699  -0.1262042  12.4908876
  62.8664458   0.6574491  12.0846689  61.8804825   0.2097896  13.1422436
   4.5623684  40.0123310  30.4206228   3.7296069  39.9912643  29.9491382
   4.4975269  39.2970181  31.0533595  73.2416391  57.0816660   1.6712853
  73.6003685  57.0601797   2.5584632  73.9984512  56.9370556   1.1033510
  22.4810934  62.6961803  41.1487389  22.0635104  63.4452581  41.5738726
  23.1643414  63.0821037  40.6005907  13.6091650   6.4073449  32.1827245
  12.9845953   5.7086515  31.9878626  13.0633080   7.1594805  32.4119925
  65.0452995  18.3883727  40.9376144  65.0184250  18.3232617  39.9830103
  64.2821932  18.9204586  41.1629677  74.6577072   8.2004285  59.8263168
  73.9197254   8.0470145  59.2363358  74.7663450   9.1514283  59.8317242
  74.4336510  54.3553352  14.8065722  75.2764320  53.9025259  14.8369026
  74.6359587  55.2553034  15.0622237   0.1597446  25.1892304  40.6104136
  -0.4319674  25.7178378  41.1458397   1.0216754  25.3200221  41.0056400
  62.9882860  31.3929987  46.4522552  63.6397505  31.8118215  45.8897543
  63.4296179  30.6140876  46.7910099   6.9413769  24.2594433  46.6004229
   6.8709302  23.4008813  47.0177221   6.1554390  24.3274617  46.0582924
  58.7583113  44.8371077  59.9281120  58.5028791  44.6786308  59.0193367
  58.8964653  43.9634132  60.2939129  59.9522400  14.8283029   3.5208806
  60.7507229  14.5670581   3.0621833  59.6114731  14.0140831   3.8912284
  30.6461859  22.1823215  36.9931030  31.1497140  21.9353509  36.2174106
  30.6035471  23.1378818  36.9567418  24.2545414  64.4587994  19.5078123
  23.8360882  63.6703968  19.1620576  23.6306238  65.1611710  19.3244100
  32.1915269  49.3812513   4.4940716  32.8743839  48.8350153   4.1047552
  31.3713145  48.9885569   4.1952816  39.4099617  18.5860777   2.1298288
  39.3958926  19.1839206   2.8772357  39.9118161  19.0512073   1.4604810
   4.6203408   2.0446721  54.0850639   5.5600792   1.9133842  54.2111111
   4.5566741   2.8640017  53.5942698  61.0624313  17.4850321  17.2486770
  60.1399565  17.4917507  17.5040650  61.4074707  16.6724491  17.6186621
  23.0628133  69.0105963  25.6096005  23.1870699  69.9522209  25.4907012
  23.0558467  68.8879061  26.5588808  52.7343130  50.4742575   6.4385909
  52.1480370  49.7191048   6.3910955  52.5413990  50.9773827   5.6474632
   4.5380813  13.5990310  58.1234932   5.2761132  13.4161425  58.7049484
   3.8052690  13.1180787  58.5080719   8.4400737  49.0272141   7.0953625
   8.1767303  49.2239714   7.9943442   8.8511753  48.1644917   7.1495885
   2.4981885  23.3819771  15.2456605   3.0192357  22.9257607  15.9064233
   3.1036088  23.5212350  14.5174396  77.0129967   4.9633417  26.2013555
  77.6651525   4.4637963  26.6926551  77.3997736   5.0728649  25.3326583
  64.9634409  10.5742884  51.1922741  65.8539724  10.7776248  50.9062004
  64.4303083  11.2874448  50.8409739  72.1445227  34.5502591  47.5840473
  72.6744080  34.0785503  48.2266569  72.6030779  35.3811240  47.4590635
  22.7424669  31.8207264  10.0609207  22.5237608  31.2970567  10.8317447
  23.1073594  31.1909938   9.4392115  43.3199692  29.6139407   9.3733686
  43.5267258  30.2566051   8.6947930  42.6544857  30.0409341   9.9128526
  52.3759556   4.6342361  64.5679379  51.5078306   4.6493140  64.1649914
  52.6694918   3.7283704  64.4705915  58.4728670  42.0889521  60.8243322
  58.1311798  42.1997404  61.7115784  57.9300117  41.3989115  60.4430389
  36.4755570  36.4204501  65.0122275  37.2599017  36.3700628  64.4658812
  36.5279519  37.2811889  65.4276930  65.2235174  22.4951530  44.9042988
  65.5964327  21.6155910  44.8448086  65.9816074  23.0701637  45.0086594
  43.7958002  18.7893152  44.2051077  43.5617733  18.2311332  43.4635592
  43.4660101  18.3201516  44.9715042  60.7678461  33.0823994  42.3005724
  60.0375032  32.6482916  42.7414656  60.4580879  33.2229519  41.4058495
   6.7456317  21.5132761  57.2217655   6.0766953  22.1801305  57.0666504
   7.4350286  21.9725823  57.7013493  67.2135878   6.7857701  33.5534573
  66.4190245   7.1892786  33.9028525  67.9210329   7.1498847  34.0855980
  27.5299025  52.9072762  19.4063675  26.9154143  52.5535393  18.7633240
  27.9610825  52.1362782  19.7749865  33.0317140  20.5817151  50.7729292
  33.6435008  20.4996943  51.5045166  33.1711245  21.4691806  50.4424715
  58.6221743  14.3265057  51.8667936  59.4905329  14.0981925  51.5350389
  58.6726046  15.2659321  52.0433283  35.7290125  11.1820626  11.5617800
  36.2313056  10.6438148  10.9500420  34.8242044  10.8902764  11.4503539
  56.2130928  34.7678208   4.7106588  55.3502226  34.5025206   4.3923795
  56.7904997  34.0435386   4.4693112  53.5487461   7.1929175  46.9575834
  53.2487488   6.2861603  47.0210361  54.3814707   7.1374482  46.4888430
  29.8425555  39.1331077  15.2797580  29.6833277  38.4613395  14.6167314
  30.4565787  38.7258077  15.8907521  38.8370800  14.7889340  61.0441160
  37.9105973  14.5484746  61.0507154  39.1703272  14.4357216  60.2192402
   5.3384614  11.8771946  44.9282646   4.8765361  12.6627874  45.2210140
   5.2590454  11.2658107  45.6604767  21.8097782  49.0772629   5.5842739
  21.3314652  49.6309519   4.9671197  21.1745811  48.8825512   6.2733626
  28.9833951  25.9364343   8.3263958  28.4160542  26.4016199   7.7116132
  28.5657668  25.0824785   8.4385484  -0.1531689  24.2149782  36.6844034
   0.7726174  24.0707636  36.8802428  -0.4105131  24.9348664  37.2603965
  35.3208995  64.0288162  15.5255640  35.5413294  64.4617319  16.3503206
  36.1449313  63.6410332  15.2309024  51.1691952  17.6477230   9.2910731
  51.4622116  18.3758128   8.7431157  50.2558899  17.5109124   9.0392953
  39.2561650  70.8675814  54.8212242  40.0524855  71.3983107  54.8003960
  38.8986897  71.0063934  55.6982517  10.8310127  60.0778103  62.2333622
  10.3396964  60.7782125  62.6626348  11.2760890  59.6240377  62.9490662
   4.1007620  53.4584427  55.5077696   3.5767168  54.0490961  54.9667168
   3.5144374  53.2022047  56.2196684  78.1989908  48.6899567  51.3322878
  78.1842232  48.5793114  50.3816175  79.1156769  48.5585928  51.5744925
  58.4290504  19.9140191  49.6293974  58.3301830  20.3472972  50.4771757
  59.2301178  20.2872276  49.2616558  62.8737783   6.1247498  47.3857498
  62.8340816   5.9281516  46.4497948  62.0774031   5.7348979  47.7463627
  48.1953335   7.8309739  53.5986757  48.8046455   8.5126770  53.8819599
  48.4148502   7.6805431  52.6792145  46.9141626  19.2676413  62.9035950
  46.6230965  18.5896575  62.2938013  46.1228275  19.7692430  63.0995893
  51.4420080  21.1649966  46.9478035  51.8382692  21.2142754  47.8177357
  50.6567860  20.6318951  47.0721388  42.7182055   8.6603630  45.4290485
  42.4953413   9.5285052  45.0930548  41.8751335   8.2178372  45.5271959
  75.8368826  35.2400398  52.6257849  76.2474918  35.6290531  51.8535805
  76.4259815  34.5288754  52.8776598  17.9736936  12.1803904  47.8793430
  17.0310163  12.0479155  47.7791405  18.3613086  11.7119324  47.1400642
  59.7508144  25.9072638  63.1094074  58.8772488  26.2167883  63.3488131
  59.8245192  25.0500774  63.5289621  54.2848921  18.4556103  48.2410002
  55.0296974  17.9036677  48.0025482  54.5987415  18.9745605  48.9815569
  53.9727259  52.7729082  33.5538864  53.8955927  51.8382692  33.3622241
  54.8740292  52.9922485  33.3177257  52.3895121  11.0481548  15.9514236
  52.4047184  10.3708363  15.2752280  53.2711935  11.4205444  15.9372902
  40.0849104   3.3188644  23.1142020  39.7987175   4.0825844  23.6152577
  39.5660615   3.3515400  22.3104858  77.5976086  25.6687403  60.3446960
  77.3701954  26.3503122  59.7122622  77.3757935  24.8488331  59.9033546
  10.6066465  29.1328263  19.0032637  10.2611697  30.0182199  18.8894451
  10.1011205  28.5979581  18.3912253  72.0772552  47.4714327  41.9325924
  71.9162846  48.2057285  42.5251532  72.4120474  47.8777218  41.1331701
  12.7174056  39.5561528  29.8776245  12.1671271  39.1147804  29.2306209
  12.1532130  40.2342653  30.2492166  44.6152210  71.9072342  17.7646542
  45.0901222  72.7237606  17.6097655  44.7229624  71.4099932  16.9538689
  20.3749084  74.4424915  50.1879644  19.8038757  75.1155710  49.8176718
  20.0062037  74.2651510  51.0533190  28.4980202  20.9061170  26.0188580
  29.1305971  21.0392046  25.3129053  28.6780071  20.0218868  26.3381934
  75.3572607  13.8733363  22.6301932  75.5645752  14.1289222  21.7313457
  74.4485140  14.1475201  22.7536201  40.2375698  41.6682768  11.8309116
  39.8194408  42.2032738  11.1562419  39.8123336  40.8139277  11.7567873
  56.8754053  39.8025036  59.8925018  57.0974970  39.7898960  58.9615059
  57.0060825  38.8995886  60.1821566  56.0916471  72.3407030   0.5149531
  55.2543354  72.0524883   0.1515384  56.7450047  72.0254660  -0.1095340
  73.8793087  48.5059452  14.9912739  73.4129858  49.0085173  15.6592512
  73.2206106  47.9078960  14.6381688  72.9015970  28.3625841  59.6880627
  72.5707483  27.4886227  59.8953342  72.6505995  28.8983774  60.4404974
  53.9940929  62.7196312  49.3848228  54.4235897  62.1986151  50.0632811
  53.2841253  63.1700945  49.8422813  74.4167900  40.2589607  39.7397399
  73.5179996  39.9388766  39.6625876  74.4672346  40.6202507  40.6246996
  60.5800533  43.8652182  33.3448553  60.3992701  42.9963589  33.7035084
  60.2317238  43.8337612  32.4538398  16.1216247  54.1946459  56.6067171
  16.9897962  53.8233805  56.7638016  16.1224735  54.4205952  55.6765699
  74.9574137  39.6473694  47.4761105  75.1010370  40.3917027  46.8916655
  75.8080053  39.4999146  47.8896093  73.1709909  17.3583162  49.8984671
  73.4757280  16.4592695  50.0212717  72.4187183  17.4384356  50.4849005
  10.5756986  31.7072177  26.1842132  11.4794111  31.6483831  26.4941740
  10.0601232  31.8582344  26.9764304  21.6701865   9.3325561  50.9683180
  21.3226724   9.9894112  51.5716457  20.9506488   9.1608083  50.3608608
   3.9883557  59.2637157   2.8250921   4.5088965  58.9897299   3.5802093
   4.6353132  59.4720411   2.1510898  32.2085690  65.2800894  17.2881019
  31.7470312  65.0136995  18.0832434  33.1320143  65.1189613  17.4818063
  24.5057702  39.2739320  34.2668676  23.8604760  39.4509411  34.9513364
  25.2416539  39.8488665  34.4770050  52.9883289  37.7949071  43.3576536
  53.3319759  38.6676717  43.1668091  52.3681879  37.9329562  44.0736151
  63.3056927  66.9449139  51.6347885  63.3519459  66.4722681  52.4658728
  62.6134777  67.5928831  51.7659616  15.6664276  63.8179016  56.9557238
  15.3773189  62.9210043  57.1237087  14.8871338  64.3529224  57.1063375
  14.4976652  67.1431017  58.3325624  14.3386376  66.2533760  58.0173969
  14.3663955  67.0889282  59.2791653  20.2630234  62.2003174  51.3821459
  19.4548082  62.5433254  51.7634106  20.9150004  62.8805065  51.5509605
  47.6964092  13.6990416   1.0037073  47.2501659  12.9680550   1.4312093
  47.1139812  13.9486504   0.2862754  61.7466164  34.1098762  48.7391138
  61.5898514  34.5789123  47.9195642  62.6849508  33.9209461  48.7312412
  40.9714842  63.1891441  20.9512711  41.2480354  62.4822521  20.3681278
  41.7730474  63.4556532  21.4014864  45.3164220  73.5743952   0.5414960
  45.7032216  73.7060762  -0.3241160  44.4454921  73.9662147   0.4767797
  25.0316215  56.1311531  61.2416220  25.7687449  55.6454468  61.6117144
  25.3901935  56.5519476  60.4602194  78.6622429  29.2037010  33.5479331
  79.2695475  28.8259840  32.9117417  77.9591465  28.5582232  33.6203551
  31.6583014   2.3644862   1.8543744  31.2240100   2.1202129   2.6716590
  31.1264014   1.9585401   1.1698871  27.6900959  19.1904235  53.2554054
  27.3123980  19.0492046  52.3872852  27.9039216  20.1232338  53.2747221
  53.1058359  19.8799682  43.5455227  52.3643017  19.7417259  42.9562426
  53.1181192  19.1011250  44.1018343  66.8665695  59.3765593  63.4008884
  67.1397924  60.2915430  63.4670591  66.1715937  59.2863703  64.0528870
  11.9288754  49.1307116  50.6322861  11.7857933  49.3965769  51.5406227
  11.1304259  49.3966961  50.1762629  70.6026888  63.8529205  13.5690224
  70.8349371  63.8541985  12.6404262  69.8187733  63.3059263  13.6190951
  44.9612284  12.4945199  13.5940015  45.2925110  12.4730194  12.6962161
  45.4032040  11.7659056  14.0299034  11.4145708  54.2984867  33.9750195
  11.8697917  53.6349630  34.4934201  10.6653607  53.8363075  33.5991120
  63.0144119  19.0911376  64.6518850  63.7348032  18.6738896  65.1242971
  63.2181787  18.9462709  63.7279129  62.7431679  61.9184494  25.4995918
  62.2406530  62.6231003  25.0907183  63.6319351  62.0313644  25.1625848
  70.4202223  45.0069141  61.8135691  69.4923544  44.9680376  62.0454741
  70.4889774  45.7596207  61.2262583   2.9935995  26.3422871  48.6306667
   2.8485063  27.1637607  49.1000938   3.8821852  26.0816693  48.8730001
  65.9850216  15.9835696  52.7691555  65.4303217  15.4423225  53.3309317
  65.6243467  16.8660390  52.8551435  74.6212435  68.9184380  28.4937596
  75.4313087  68.7700605  28.0059004  74.6113348  68.2284307  29.1570997
  66.2249804  58.0654812  45.3826809  66.5477800  58.8687229  45.7911348
  66.9056273  57.4162817  45.5601597  29.7734308  15.5993056  48.7032795
  30.2415943  14.7733498  48.5814047  29.4434571  15.8184242  47.8318787
  17.9953277  29.4125676  20.2980518  17.4863338  28.7716889  19.8016334
  17.7534592  29.2554164  21.2107587  46.2040663  45.7481527   5.0937980
  45.9549904  44.8478889   4.8847148  46.0935402  46.2244987   4.2709300
  74.0808725  63.2858801  39.3942213  74.4656897  62.4724483  39.0679193
  73.1398678  63.1779909  39.2560196  50.4302168  60.1913500  26.0262966
  50.5861664  59.3655252  26.4844728  49.7177315  59.9966240  25.4174590
  64.1279697  53.3695507  49.9002028  63.7731361  52.6474524  50.4187584
  63.8949823  54.1559315  50.3937149  58.3527756  39.9824762   4.0799308
  57.9872656  40.4616451   3.3362690  59.2578936  40.2880144   4.1402236
  25.7951784  21.5303922   7.2809124  26.5175104  21.0728312   6.8506753
  25.0583816  21.4359283   6.6772246  49.4398880  18.6204565  44.1323805
  48.7375832  18.0724096  43.7821770  50.1823568  18.0244064  44.2308426
  29.6728754  52.2402811   7.0464897  29.1458058  51.8029881   7.7152205
  29.5677280  53.1736040   7.2311026   1.5346847  31.9785738  47.1748686
   2.2897816  32.5664306  47.1969128   1.9130009  31.1069822  47.0589542
  77.9722023  64.4076920  63.2351494  77.6478338  65.2388144  63.5819197
  78.1180620  63.8653660  64.0102863  62.4729824  72.7008438  17.5098634
  63.1038523  72.2007036  16.9920874  61.7249537  72.1120548  17.6099539
  68.9588833   4.2446640  54.3943167  68.4729481   3.4324396  54.2515230
  68.2832813   4.9195391  54.4602060  14.0155268  49.5828438  29.5164204
  13.5874605  50.4334593  29.4192743  13.6467588  49.2197037  30.3216362
  15.2679968  56.3925123  58.0072641  15.6103313  56.0951853  58.8502550
  15.7278490  55.8578968  57.3599958  79.7498322  65.3917265  51.5211296
  78.8849163  65.7632256  51.6947460  79.8745918  64.7418594  52.2127485
  56.0764456  16.7884159  53.1587601  56.7147827  17.4932921  53.2678890
  56.1044598  16.3095546  53.9870977   9.1024566  37.5503564  24.9915767
   9.3558848  37.6194406  24.0711236   8.1849623  37.8226614  25.0084758
  23.3426189  51.4772749  25.4216504  23.6627936  51.0004044  24.6559381
  23.3473563  52.3954630  25.1512122  56.4467955  51.9040108  41.6057444
  56.7711973  52.5228691  40.9515190  55.5043936  51.8573332  41.4447260
  74.0045738  71.7706823  37.2030926  74.0017366  70.9220934  36.7602324
  74.9061108  71.8799496  37.5056195  71.7741823   2.5440502  28.5563517
  71.1969042   2.3827298  27.8100538  72.5496960   2.9553798  28.1747580
  13.4581435  39.4695568  21.5424347  12.9926360  40.1255369  22.0613050
  13.0117440  38.6463833  21.7407870  73.0448055  36.0273647  56.2007284
  73.2730293  35.4112124  56.8967915  73.2987928  36.8833232  56.5457773
  21.3424087   3.0655903  37.1693492  21.4762759   2.5559697  36.3702250
  20.3915906   3.1027874  37.2732401  52.3458099   9.0131056  14.1807938
  51.5053415   8.5553366  14.1636896  52.8401518   8.6334509  13.4543526
  41.7833614   7.4326450  15.5708754  40.9339571   7.1822834  15.9342813
  41.8779325   8.3576149  15.7982945  68.5469198  20.9917164  20.2433610
  67.6139736  21.1194634  20.0715208  68.6374760  20.0494504  20.3853679
  35.5125618  47.3702574   6.6120094  35.8771229  46.6864872   7.1739590
  35.9897327  47.2818851   5.7869458  24.3329978   9.7100562   2.4620174
  24.3753695  10.4567039   1.8645608  25.2445483   9.5429575   2.7015680
  13.4702384  42.7941847  51.0742664  12.5256026  42.6413536  51.0974646
  13.8556838  41.9440460  51.2862349  19.9170494  32.6767921  54.2182446
  20.5760193  32.3468089  53.6074257  19.7030973  31.9240284  54.7694254
  77.2406054  60.8686066  23.1213474  77.4937820  60.7622051  24.0383077
  77.1932697  61.8161631  22.9943466  71.2865925  35.7943678  53.2935572
  71.4270401  36.5734887  53.8315868  72.1458340  35.3747106  53.2508516
  13.2053900  48.0350351  45.3337622  13.7984383  47.4306154  44.8874378
  13.0782592  47.6494980  46.2006092  18.6977684  67.9159021   2.2253707
  19.5670331  67.6934958   2.5587583  18.7862027  68.8139963   1.9062455
  50.1253176   5.4043013  38.6984396  49.4243765   4.7642058  38.5751796
  50.3138113   5.3754282  39.6364522   2.1451397  44.6290874  45.3626871
   2.2841910  45.3402185  45.9881353   2.9803908  44.1620350  45.3414726
  51.3090897  59.2193604  38.9127445  50.6204367  59.7993660  38.5878110
  51.6544485  59.6668863  39.6851945   6.3818049  27.3899865  45.0809145
   7.2258413  27.1127796  44.7245550   6.4592630  27.2413659  46.0233307
  14.8518324  42.2109509   4.4590151  14.7563863  42.5225973   3.5590163
  14.5888674  42.9558516   4.9995771  55.9981251  51.6395378  45.0436687
  56.5455198  51.2216282  45.7084560  56.5478945  52.3354959  44.6836233
  19.9241936  32.0186043  64.2673111  20.1646256  32.1899843  63.3567905
  19.0743697  31.5815449  64.2124367  76.2088776   5.7632595  43.5101986
  75.5253458   6.2231266  43.0228138  75.8607912   4.8804900  43.6358356
  54.9920654  69.3802261   9.9598747  55.6548214  70.0690365   9.9095207
  54.1590500  69.8418999   9.8641175  71.7566013  71.7759418  56.1029816
  71.9710875  72.5471926  55.5782032  70.9670877  72.0251369  56.5833998
   9.5800756  54.1608055  65.2589938   9.4376301  54.1593822  64.3124537
  10.4900478  53.8832887  65.3646752  13.5903406  60.5575466  29.0497780
  12.9056191  60.0646734  29.5019555  13.1216502  61.2591934  28.5978317
  42.3299456  11.2105489  55.0870466  43.1466770  11.5869677  55.4148912
  42.1564674  10.4708254  55.6692410  75.3753710  74.4844389  55.2667379
  75.8168602  73.6351347  55.2669096  74.8073292  74.4592524  56.0367537
  59.8738670  49.3347788  45.5897903  60.1188850  48.4386301  45.3593063
  60.6374931  49.8605919  45.3518391  65.9809494  58.7523413  51.0426998
  66.4474344  59.4985914  51.4191818  65.4033661  59.1383791  50.3842115
  25.1531219  30.7636166   3.1031716  24.8382831  31.6469812   3.2949400
  25.6103110  30.8486581   2.2665244  77.3854065  43.9614916  34.3103004
  76.8011475  43.5598278  34.9533725  76.8148613  44.5244455  33.7870479
  30.5458069  27.7485204  63.5537100  30.2033854  26.8810153  63.7691498
  31.4937258  27.6258731  63.5023308  55.6085920   5.4399550  10.0355184
  55.3312588   5.5447119  10.9456539  55.7360554   6.3344491   9.7195041
  74.9257326  52.6804638  45.3875685  73.9900589  52.7756405  45.2095461
  75.0424528  51.7466831  45.5626869  71.0866928  43.2580948  48.5138321
  71.6657400  42.5300217  48.2883358  70.2049780  42.9206610  48.3558750
  23.4172201  54.0944433   8.6794853  22.6478100  54.6294546   8.4845531
  23.8916326  54.0457964   7.8495455  70.4060555  39.2597055  20.1573300
  71.0320950  39.7316313  19.6081579  70.8660746  39.1284585  20.9864187
  15.3237736  65.4283047  26.5482163  15.8830142  64.7521734  26.9307423
  14.9658871  65.0241661  25.7577610  60.6971312  36.9952035  41.8725777
  61.4970922  37.5052762  41.9995499  60.4794502  37.1171689  40.9484768
  28.6368251  64.0665913   4.8014456  29.1894150  64.5810986   5.3897971
  29.2425966  63.7187338   4.1470224  59.9077368  22.5406218  19.8943329
  59.7391033  21.5999007  19.8410511  59.8458672  22.7425408  20.8279467
  10.9625340  62.3454237  45.7391024  10.9111857  61.9689131  46.6176462
  10.5351949  61.6996622  45.1764202  39.1579103  58.3923292   3.7995574
  39.2199707  57.5569296   4.2626837  39.6471310  58.2535362   2.9886127
  63.6725664  10.0955617   6.4689106  62.8350592   9.8617405   6.8690884
  63.6906576  11.0522902   6.4928901   9.4898075  68.7850332  59.2569828
   9.1430050  69.1306829  60.0794697   8.8686413  69.0814495  58.5917616
  78.4287834  36.0261106  37.2676086  77.9688454  35.3275466  36.8020964
  79.1574907  36.2581277  36.6919470  38.7044215  63.5763788  56.6579866
  39.4225740  64.1486120  56.9282436  38.5593963  63.7927485  55.7369089
  42.7554846   1.2254883  12.6416159  42.0916462   0.6139645  12.3228836
  42.3059845   2.0698333  12.6771331  20.5505705  28.8147426  27.2805429
  21.0464573  29.3683791  27.8837132  20.9091091  27.9369307  27.4114108
  76.6619301  65.6644344  54.9639797  76.9835138  64.8705578  55.3912735
  75.9717512  65.3572607  54.3761683   8.2923985  49.5678043  25.6158829
   7.7125281  49.6139526  24.8557162   7.9009944  50.1660728  26.2523651
   4.2861879  35.5363417  61.2096119   4.6283209  34.7418332  61.6194105
   4.2036059  35.3113484  60.2829027   2.9427171  69.6757841  21.7441010
   2.1143140  69.8595762  22.1870446   3.4400865  70.4902029  21.8187737
   3.8180128  53.8461399  27.8671956   4.2824787  53.9301729  28.6999273
   3.1488431  54.5299578  27.8961158  79.6846676  47.3646021  29.1374111
  78.7824631  47.3042822  29.4514394  79.8003387  48.2889223  28.9172149
  50.8394480  33.9711499  63.3145761  50.9639215  33.1604648  63.8080597
  51.7150307  34.3536901  63.2575798  20.1568651   1.4215723  52.3110390
  20.2304339   1.4208883  51.3566685  19.2746663   1.0926114  52.4834919
  68.6142397   1.5314358  58.5751486  68.5040283   2.1923640  59.2587137
  69.5621061   1.4570835  58.4644747  76.2285567  33.1847624  -0.0012305
  75.6154300  33.5375313   0.6436441  76.3348676  32.2663693   0.2467296
  14.0676427  29.7477770  44.8168325  13.5213447  29.7603345  45.6027269
  13.5135853  30.1257992  44.1339302  52.0591164  51.2552834  38.6018276
  52.1562719  51.8873739  37.8896093  52.4560785  50.4520369  38.2649970
  54.2460537  57.2768021  56.8591642  54.8943663  56.7971802  57.3748112
  54.7622538  57.8898716  56.3357925  11.8867064  36.1854005  37.2267008
  11.0807431  36.3411427  36.7343593  12.5539184  36.0434079  36.5552115
  54.9499607  55.7396078  41.0285711  54.1389322  56.1545992  40.7349014
  55.5426598  55.8163691  40.2808714  61.5664530  21.9819474  43.5169172
  60.7410908  21.8545437  43.9846516  61.6575480  22.9321837  43.4463453
  59.2636442  62.0006990  43.3512974  60.1031590  62.4239874  43.5309505
  59.0397167  61.5561771  44.1689110  29.7621703  19.5420623   8.3174986
  29.9483323  18.9020979   9.0045363  29.9615240  20.3882742   8.7180179
  76.7417622  62.2152185   2.5043964  77.5011253  62.7814579   2.3666655
  76.7535639  62.0225525   3.4419307  25.5038404  32.3184371  52.6281023
  25.9859228  33.0885148  52.3267603  26.0365415  31.5758538  52.3434401
  14.3041229  25.7968450  53.0512094  15.2007878  25.8035064  52.7162743
  13.9798784  24.9189544  52.8501987   0.1817144  49.8165178  27.6546454
   0.8113517  50.5089903  27.4539733  -0.3932920  49.7866774  26.8899822
  63.1728029  10.8723271  42.9516172  62.4942589  10.3299427  42.5495911
  63.9214134  10.7970834  42.3598766  13.7448251  35.7109761  54.9898624
  12.9210341  36.0939598  54.6883249  13.4983909  35.1767826  55.7449389
  37.0609164  28.2939553  12.0073736  36.1583185  28.3494663  12.3211658
  37.0378089  28.6962652  11.1391306  69.8247290  66.8396616  39.9240208
  70.6414843  66.3846970  40.1293278  70.0660276  67.4707842  39.2460155
  58.5198164  17.1334422   4.6445265  59.2409563  16.5977108   4.3141106
  58.6277485  17.9772842   4.2057630  55.7635164  41.9942951  52.0963764
  55.3366041  42.1553183  51.2549210  55.0887299  42.1855211  52.7477789
   3.9727038  26.5469885   8.6982995   4.8705903  26.6667867   9.0076208
   4.0610746  26.4040470   7.7559668  76.2207031  56.9842434  30.1940250
  76.3561773  57.8560686  29.8228216  75.4428053  56.6515446  29.7463489
  25.4913926  13.2597494  17.7320099  26.3070726  12.9825568  18.1492162
  24.8356509  13.2032931  18.4270263  48.4169722  40.8857346  59.7856426
  48.3115196  41.0612345  60.7206869  47.5775290  40.5133343  59.5156765
  76.6067600  53.0720901  25.7366776  76.0824871  52.8759527  26.5131426
  76.2081575  53.8621855  25.3718591  67.3696613  65.8244419  37.9874992
  68.0092382  65.9275913  38.6921501  67.8029013  65.2542114  37.3523879
  32.4632668  19.1718853  13.3497953  32.1728396  19.8099208  12.6980317
  32.5069618  19.6676731  14.1674244  50.2863455  16.5447307  60.6042957
  50.0892735  16.6584468  59.6745300  50.0786209  17.3918855  60.9985161
  69.0813398  65.7175684   3.7294313  69.4750166  66.5561914   3.4886718
  69.8263216  65.1279688   3.8461104  76.5220070  48.7138128  59.8500776
  75.9802723  49.2256832  60.4507017  75.8943129  48.2136059  59.3285179
  59.4897890  30.2876949   1.3091405  58.6887026  30.6686640   0.9494810
  60.1949310  30.6896496   0.8017553  57.9958439  42.1134329  37.8788686
  58.1644154  41.7645121  38.7541223  58.8413143  42.4581766  37.5915313
  67.3208523  35.8691216  62.7180767  66.4342022  36.0604548  63.0238152
  67.3120403  34.9306273  62.5299788   3.4523246  46.3712358  28.3991122
   2.9635701  45.5486155  28.4246063   4.1802445  46.1989355  27.8018880
  70.5003929  69.1754246  53.0521393  70.5780888  68.2350636  52.8911781
  71.3155460  69.5447159  52.7124643  60.2876091  43.7234020  26.3214731
  60.4738522  43.6548662  27.2578740  60.8066177  44.4723177  26.0282302
  40.3550529  58.0081320   1.4755565  41.2550497  58.0080318   1.8015024
  40.2505207  58.8645840   1.0610816  75.9732676  65.0447989  49.3969488
  76.6230202  64.9190855  48.7053919  75.2398157  64.4855356  49.1410160
   0.4449489  53.7770653  64.3911409   1.0765963  54.4157219  64.7218513
   0.4242405  53.0923700  65.0597239   5.5344433  25.8231950  49.7925901
   5.3869677  24.8789310  49.7392035   5.9300137  25.9554982  50.6541300
  62.8178167  59.2483521  63.4448719  62.1483326  59.6333075  62.8793335
  62.4019003  58.4680700  63.8114834   6.1400545  30.2129459  56.6178751
   6.0831094  30.3902245  55.6789589   5.3644246  30.6339097  56.9885778
   2.7204934  27.8523707  11.1168313   3.2802361  27.1300411  10.8319509
   2.3344226  27.5468445  11.9377053  74.1285753  41.9922256  45.0981140
  74.7661066  42.7047014  45.0515795  73.3375692  42.3520374  44.6967649
  42.4095726  19.3188059   4.3586034  43.3385944  19.4348633   4.1594207
  42.2065401  18.4363031   4.0484396  34.0988898  10.0045252  31.7537284
  33.9545894   9.5643282  30.9160924  34.1139770  10.9363139  31.5351534
  75.1283360  20.0376701  10.2075720  74.4403505  20.3333139  10.8038104
  74.8173809  20.2912378   9.3385249  37.7669835  50.5258417  20.3060198
  37.1318913  50.0376225  20.8299780  37.6620030  50.1805401  19.4194663
  70.0493622  14.5600772  34.1992831  70.4045868  13.6883688  34.0255880
  69.2017412  14.3953574  34.6123672  21.1041236  71.5692711  30.7081747
  22.0298266  71.3497400  30.6027651  21.1053610  72.4850178  30.9868097
  43.7547874  22.4088478  32.4399996  44.1507101  21.9073129  31.7272997
  43.1430960  21.7983270  32.8515005  71.5737581  12.4001014  21.9370794
  72.1864367  13.0607045  22.2602844  72.1030378  11.8399310  21.3693619
  14.3371928  53.6368704  23.8155770  15.2349782  53.6941957  23.4885812
  13.8144922  53.4200239  23.0435705  71.2806225   2.2754669  10.9136820
  70.7514381   2.4134320  10.1280856  71.4497614   1.3334115  10.9261358
  54.9485064  27.3773074  49.1203403  55.5862188  26.7163777  49.3900108
  54.4063568  26.9346547  48.4673691  73.7141848  62.9177094  25.4720259
  72.8731585  62.7480745  25.8964467  74.2056942  62.1035194  25.5804014
  57.3705149   1.7088681  59.1723919  56.8163776   2.4241707  58.8601398
  58.0724096   1.6491991  58.5243034  56.5800047   6.4963269  52.7703476
  56.9825792   5.6287503  52.8087759  56.3685083   6.6214645  51.8452311
  33.1178665  65.0770569  46.1958265  32.2559476  65.2693319  46.5650940
  32.9493761  64.4127178  45.5276203   9.6543592  70.4823685  50.8410597
   9.5223355  71.4302349  50.8222342   9.1276872  70.1818514  51.5816927
  61.5681458  29.7225046  12.1334541  61.4580250  30.5049706  12.6736856
  61.5746212  30.0511122  11.2344503  29.2248416  73.8818026  33.4843445
  29.2447639  72.9450226  33.2886791  29.1921997  74.3050385  32.6264191
  12.9338467  58.2963896  50.4432869  12.0378053  58.3365917  50.7775402
  12.9133666  57.6006794  49.7861719  67.6744127   0.3508298  47.4787378
  68.1473827  -0.0757215  46.7641830  66.7509651   0.1919674  47.2831726
  48.5782909  69.4122744  52.7940273  47.7250719  69.7659969  53.0452871
  48.4122801  68.4852409  52.6229239  38.0673671  72.5824785  48.8083458
  37.3245502  72.0986414  49.1693974  37.8086472  73.5017776  48.8730145
   0.9504208  23.9638615  60.6484795   1.4230718  23.8771248  59.8206472
   0.2213203  23.3481956  60.5736494   0.5093271  41.6138124  49.4986296
   0.3360350  41.7739296  50.4262972  -0.3477737  41.4042616  49.1275501
  68.4502602  20.2019167  23.5457778  68.1961870  19.9712694  24.4393563
  69.3500948  19.8860478  23.4635329  64.7361660  59.3305635  15.2010453
  63.8921928  59.7323847  15.4071569  65.2321768  59.3827343  16.0180426
  60.9101820  25.9749413  28.1907558  60.5836248  26.5640211  27.5106239
  61.2026119  25.1978898  27.7144051   7.5915915   8.9658314  60.8620071
   6.8942213   8.5766482  61.3896847   7.3884940   8.7020409  59.9645710
   1.4554243  18.5212731  20.1811051   1.5549053  18.2143188  21.0822773
   0.5697034  18.2554865  19.9339449  40.5731201  50.7404709   9.4840986
  40.2786541  51.2755489   8.7470663  40.2587700  51.2063217  10.2589512
  76.7310667  28.0462885  38.5416818  76.8380165  28.9727306  38.7573123
  76.1027527  28.0394244  37.8195953  11.6773903  71.9573498  57.7817297
  11.6743147  71.0083628  57.6566410  11.1969423  72.0928383  58.5984564
  79.3219233  22.5995207  40.6204176  79.1392708  22.6110554  41.5599585
  79.4945908  23.5145497  40.3987360  10.0991416  43.2710838  10.9153163
   9.6818388  44.1112757  11.1055052   9.7285348  42.6682377  11.5598786
  78.8959217  15.3158903   3.6025059  78.0859470  14.9691236   3.9765754
  78.9202499  14.9614084   2.7136964  49.2882109  70.6138945  60.6761169
  48.3743238  70.8404922  60.5037689  49.5187283  71.1229467  61.4532661
  15.3025341  74.8286009  42.4181223  14.9281466  74.7580051  41.5400076
  14.8035300  74.2021465  42.9423189  40.8730936   0.9029223  23.8751888
  40.4239416   0.8717279  24.7198868  40.5884075   1.7283183  23.4828806
   5.3700697  14.5307124  41.2518740   4.7043353  13.8868332  41.0101128
   5.1480514  15.3085101  40.7400465  50.9563684  25.5614543  56.4849138
  51.4206314  26.1073780  55.8503580  50.4056931  24.9889851  55.9508038
  67.0505953  13.8746750  47.0904732  67.2422171  14.7538829  46.7641211
  66.9268084  13.3478332  46.3009501  71.2837219   4.9801272  26.1715412
  70.7764387   4.1741538  26.2680030  70.6252050   5.6729287  26.1203957
  66.9984865  33.8932920  21.5239692  66.8260527  34.6487045  22.0859718
  67.4607944  34.2570877  20.7688832  12.5553596  10.6505966  47.7564907
  13.2416272  10.1230145  47.3479223  11.8094897  10.0555861  47.8331280
  40.9722710  63.2711363  42.3732853  41.7261648  63.5803080  41.8709993
  41.1625814  62.3494673  42.5480509  43.0827522  60.3174210  28.5822296
  43.0208349  61.2295151  28.2985330  43.9966536  60.0795031  28.4259868
  20.9560299  52.5775242  20.2059269  20.9512329  51.6222525  20.1453924
  21.8355751  52.7934694  20.5157661  71.3431597  59.5925474  46.3621569
  71.2221384  59.2502499  45.4764843  70.6506538  59.1772413  46.8761492
  21.1484790  56.3292742  51.2362337  21.4051318  57.1709538  50.8594894
  20.2194238  56.2443161  51.0220575  53.4103727  24.7669983  60.6371307
  52.5091887  24.6302509  60.3449106  53.3674049  24.6899700  61.5902567
  62.0045614   8.0887389  32.8810406  62.1134949   8.8087076  32.2597432
  61.1099529   7.7806520  32.7361798  35.7958674  28.3332443   1.5700787
  35.7693911  29.1610074   2.0500167  36.4410448  28.4781837   0.8780033
  28.3229995  50.8907413   4.9926960  28.3412790  51.5594387   4.3080464
  28.7917328  51.2870741   5.7271641  66.0140944  17.0240235  63.2011652
  65.2550650  17.4940336  63.5464096  65.6407547  16.2774003  62.7327585
  64.1450691  27.0262194  41.5651560  64.1256142  27.6045346  40.8026600
  63.3207273  26.5418553  41.5194941  61.9582653  16.2488067  46.3035536
  61.9606686  15.7616436  45.4796028  62.8273582  16.0962379  46.6745424
  32.2056460  53.2805872   9.5221239  32.7384591  52.5445127   9.2212331
  31.3416457  53.1220865   9.1418415  57.8740883   4.1717589  51.5106249
  57.2470522   3.4497675  51.4683914  57.9847383   4.4464454  50.6003809
  12.3027337  22.5043368  40.5054283  13.0069041  23.1452489  40.4074049
  12.7542698  21.6704226  40.6355572  78.5839885  35.9576988  64.1189300
  78.6553830  35.7103347  65.0408548  78.1872123  35.1958560  63.6965665
  32.6178026  73.0486298  45.3543758  32.6275373  72.5806332  46.1893129
  33.5298467  73.3011532  45.2107000  20.3419495   6.9840533  33.5043883
  20.7002568   7.1448249  34.3773150  19.9876320   6.0960537  33.5507369
  17.9660523   2.7695027  19.2717040  17.6596558   2.2037238  18.5630107
  18.4037340   3.4951681  18.8266468  13.1795347   2.8741854  62.7757692
  12.8348637   1.9812101  62.7704096  12.8077281   3.2791355  61.9921827
  48.4276485   1.1025745  58.3296633  48.1655502   2.0142992  58.4573030
  49.3841743   1.1294521  58.3056927  59.9561739  57.9003572   0.6499971
  59.7348452  57.0802927   1.0912965  60.9074354  57.9676008   0.7325449
  51.6755629  73.3308029  36.9340515  51.4433670  74.2186260  36.6618752
  50.9848452  73.0799627  37.5474167  68.4921932  22.8562856  33.1400847
  69.3302965  22.9630518  32.6901770  68.4186602  21.9136000  33.2889724
  70.7100773  10.0722826  12.4040222  71.0752010   9.2015237  12.2468805
  71.4670563  10.6575787  12.3785710  66.7443609  14.6556628  43.8143587
  66.0679436  14.0641081  43.4845877  67.0093346  15.1665998  43.0495310
   2.1831231  52.8387928  41.8685913   1.7024457  52.1897936  41.3547993
   3.0882549  52.7602100  41.5672731  12.0949030  62.7599239   8.3257991
  11.9559157  62.3003960   7.4977010  13.0444288  62.7539349   8.4466082
  12.6810193  12.9961157  31.8813968  13.1948197  12.3499870  31.3968778
  12.5707090  12.6112390  32.7508402   3.6571017  53.0808258   4.3902349
   3.7637281  53.7014532   5.1111233   3.8146660  53.6001825   3.6017743
  44.4520235  72.0763063  64.2774343  45.1212358  71.4175081  64.4628143
  43.9970541  72.1966934  65.1109457  19.1968000  73.3455658  35.4628897
  20.1497841  73.3337164  35.5518532  19.0401685  73.1541157  34.5382047
  78.8095570  44.4599962  20.6852913  79.6802855  44.6652794  21.0257673
  78.4129715  43.9077902  21.3591027  36.9124103  68.9178085  34.8123837
  35.9788251  69.0945244  34.9282455  37.3502159  69.5969486  35.3255367
  17.7590346  29.6574211  16.7924547  16.8022764  29.6671343  16.7650473
  17.9820585  30.1855063  17.5590169  32.7117729  27.9732227  22.4811220
  32.2619724  27.1299338  22.4284458  33.5003686  27.7925062  22.9926801
  62.5439072  33.9533591  60.9238911  62.0603085  34.1100359  60.1128340
  63.1140137  33.2111001  60.7232428  56.2281656   1.2993513  27.7280307
  56.9301796   1.9428450  27.8245807  56.2426710   1.0665394  26.7996883
  66.0567856  54.9972248  55.5658770  65.8701229  54.1388607  55.1856184
  66.5748167  55.4472923  54.8985624  41.7448378  21.3071704  49.2020702
  42.1276522  20.5158520  48.8232517  42.4983931  21.8343401  49.4675541
   8.0840170   7.9279280  28.8555598   8.1058240   8.8372260  29.1537762
   7.1641785   7.6736259  28.9294457  55.5157661  73.2993269  38.3945203
  55.1710987  73.3636999  39.2851901  56.2939787  72.7483034  38.4780884
  32.4772215  35.4166126  39.8629141  33.2596922  35.9671378  39.8329902
  32.8021336  34.5520306  40.1142359  57.3623276  72.2781134  58.0731058
  57.3808479  72.5421906  58.9929724  56.5525770  71.7754412  57.9844856
   6.6897726   6.9791913  16.8949842   6.3708729   7.8795975  16.8333137
   6.6200691   6.7635828  17.8249776  64.4360685  21.5716648  49.0300369
  65.1079464  22.0883417  48.5852289  64.1827965  20.9063888  48.3901215
  17.0908201  21.1215925  16.2689006  17.0373225  21.3197041  17.2038448
  18.0286992  21.1206293  16.0775554  68.0208588  70.3051472  43.7118483
  68.0015612  70.4082966  42.7604198  68.5120821  71.0645914  44.0251827
  74.2077875  39.5593882  44.1659880  74.6331406  40.2689505  44.6474743
  73.3154869  39.8722172  44.0170956  55.1548719  33.5712743   0.2232040
  54.2588568  33.3699083   0.4931001  55.0637341  33.9347863  -0.6575826
  50.4850721  21.5671659  44.4297695  50.9562159  21.6838002  45.2547836
  50.0165272  20.7393312  44.5364857  10.1130569  49.1695881  64.3763018
  10.1580703  48.3922148  63.8196182  10.6756866  49.8094463  63.9401102
  55.1742840  20.0022554  50.4538488  55.0870991  20.9197092  50.7125187
  55.9711266  19.7043753  50.8926439  67.9484177  34.4905972  24.5061827
  68.0091095  33.6551332  24.9693751  67.4005604  35.0374031  25.0692892
  49.1017008  18.9516068  34.1656327  48.3419895  18.4741604  33.8322926
  49.6842623  19.0321016  33.4104013  31.2159348  70.9207106  46.8131924
  31.0974050  70.0681019  47.2318077  30.3834105  71.3727140  46.9504070
  77.1528864  11.0997069  28.9944673  76.3375330  11.3521469  28.5612178
  77.2599602  10.1725686  28.7819123  57.3263025  17.0868123  29.4005179
  56.8243408  16.6018045  28.7455106  58.1221485  17.3556125  28.9415979
  34.3358660  16.3332224  52.5128937  35.0512314  16.3438547  53.1487942
  34.5159316  17.0765805  51.9373703  54.5305443  69.7445488  42.8333998
  55.1412868  69.0090275  42.8806210  53.7077141  69.3949652  43.1754160
  52.9265547  11.9216001  64.5375347  53.8184071  11.5740740  64.5448923
  53.0369520  12.8615808  64.3944311   5.2460623   6.5636516  28.0638051
   6.1046875   6.1421788  28.0269933   5.1809931   7.0469832  27.2401619
   2.7893886  12.2030067  28.4920835   2.9768476  13.0448651  28.0769157
   3.0293930  12.3299026  29.4099760  18.9445639   1.3155532   1.2228079
  19.7542572   1.6584939   0.8446293  19.0421200   0.3645144   1.1754794
  57.5991392  35.7078886  55.8065033  56.9776392  35.8061743  55.0851822
  58.4527397  35.8904719  55.4137468  65.9292269   8.6388564  39.0306902
  66.0476208   7.7696019  39.4135904  66.6053247   9.1763961  39.4432116
  73.5978842  40.8038950  54.8685074  73.4746790  40.0847816  55.4881287
  74.2245245  41.3858414  55.2984953  37.3714805  64.2200804  29.0283275
  38.3139133  64.2046356  28.8615489  37.0435238  63.4167671  28.6241412
  12.8571606  10.7941926  59.9261475  12.9810488   9.9490350  59.4941807
  12.0904636  10.6674266  60.4850197  14.5552945  27.3941684  15.1057518
  15.0010502  26.7140126  14.6008539  14.8308170  28.2149053  14.6974492
  24.3176246  71.5349674  53.5131931  23.3690739  71.5455627  53.3852434
  24.5096540  70.6446695  53.8076830  71.8054581  12.8460324   5.1992363
  72.3174286  12.2627473   4.6389714  71.9158649  13.7123537   4.8074085
   8.8471991  30.8504272   0.1016077   8.9664513  30.0821662   0.6599857
   9.4665003  31.4945006   0.4449266  78.7147045   9.2096001  60.4898405
  79.3779612   9.7900474  60.8632040  79.0273046   9.0274554  59.6036482
   3.3219403  25.3033948  25.1292849   3.8168052  24.5681691  24.7676468
   2.6675868  24.8957324  25.6966162  15.7656932  74.7813034  29.8490405
  16.0132277  73.9748907  29.3966460  15.1481402  74.4978285  30.5232096
  13.7848020  12.1978736  29.5404696  13.7797523  13.0332088  30.0078273
  14.3869841  12.3360980  28.8093710  13.5753584   1.1620587  36.8785715
  13.8098669   1.4411327  35.9934998  12.8091311   1.6907595  37.1012902
  79.4580650  25.6799364  52.7578926  78.9286137  26.0436630  52.0482349
  79.9482107  24.9663377  52.3495245  52.5805473  64.8528004  46.7823696
  53.3738995  64.7939205  46.2500572  52.3062468  65.7664299  46.7031860
  70.0853157  17.4441421  50.1319695  70.2677870  17.8808749  50.9639549
  69.6532631  16.6268599  50.3801823  43.8258410  11.2304389  23.6692667
  43.9176464  10.8944297  24.5608377  42.9630661  10.9271550  23.3866644
  74.2359304  25.7140660  32.5146914  74.3634224  25.5537248  33.4497142
  75.1132393  25.9043884  32.1825123  68.8933516  30.9309602  49.0602160
  68.5125399  30.1379776  48.6828709  69.8034906  30.6966162  49.2417526
  62.5239420   5.6622988  28.0113077  62.2755957   5.3413045  27.1444035
  62.2150612   4.9863353  28.6145473  27.1369529  68.1743479  21.9918346
  27.5299096  67.5400639  21.3922524  26.9272804  67.6655579  22.7750301
  26.4260626  16.2818789  17.6536083  26.1370468  15.4471827  17.2848499
  26.7140484  16.0650802  18.5403407  27.5601935  19.1488600  36.0901546
  27.9709792  18.7110138  35.3446484  28.2791185  19.3037689  36.7028379
  38.8472605  70.8230829  46.6650486  38.7655973  71.5108585  47.3257542
  38.2456326  70.1381063  46.9567347  16.5695310   8.0643964  33.2431507
  15.7564843   8.2722473  32.7827334  16.3498425   8.1558114  34.1703033
  77.2019005  21.1636925  55.6125975  77.9032135  21.6261554  55.1537752
  76.4166689  21.3470197  55.0968170  30.5465412  10.2345991  57.9184008
  30.8438873  10.6987941  58.7009239  29.6121049  10.0893915  58.0666351
  71.1455965  74.5979261  34.1715169  70.9268427  74.4461107  35.0909352
  71.7547131  73.8933182  33.9507413  50.4330206  17.6651311  39.3826723
  50.4351568  18.0102897  38.4898734  50.4163933  16.7145061  39.2719078
  17.3088694  48.6357069  15.1398885  17.5648177  49.5580292  15.1466036
  17.7089667  48.2703638  15.9289885  54.0922451  15.9572780  41.8937683
  54.1441441  16.1092508  40.9501314  54.9337816  15.5607224  42.1191359
  70.8408356  43.8651466   6.5656650  70.3178930  43.0829859   6.7416900
  71.5825224  43.5466003   6.0512143  66.8210363   2.0724867  36.1327338
  65.9728003   2.0458360  35.6899929  66.7929840   1.3400839  36.7483878
  15.5659831  39.5169902  40.2639580  16.0210264  38.6841512  40.1392841
  15.7084024  39.9925923  39.4455743  22.2403073   2.8812683  57.7483082
  22.8380990   2.1410792  57.8531694  22.6581049   3.5964030  58.2281637
  25.2627945  23.7822747  22.8624535  24.4787407  23.7238955  23.4084225
  25.5613017  22.8770804  22.7744269  13.1625175  64.1766834  14.5916617
  12.4514389  63.5470867  14.7108722  13.0887914  64.4510126  13.6775839
  73.6319160  52.9732847  48.6675549  73.8563728  52.2151613  48.1280184
  73.3362579  53.6339378  48.0411720  76.3329268  14.8493171  16.9656157
  76.4823723  14.8470652  16.0201573  77.1771955  14.6009815  17.3421443
  41.9777489  38.2966018   3.1426677  42.3627710  38.9986086   2.6180977
  41.3303089  38.7366915   3.6934611  59.8870611  20.3375387   9.8699969
  59.7844791  20.8103085   9.0440446  59.4748640  20.9034824  10.5227065
  65.5600071  24.9716306  18.1037116  66.2996578  25.0606298  18.7047315
  65.2663946  24.0677023  18.2174551  23.1716132  18.0815852  23.5106850
  23.7195945  18.6036789  24.0966582  22.6114535  18.7222290  23.0724740
  60.0060797  66.3963985  43.9047813  60.6105185  66.5831089  43.1864357
  60.4904270  65.8009720  44.4767141  28.4457707   6.4848071  56.0625076
  27.7955985   5.9393299  55.6198263  29.0107226   5.8613145  56.5189266
  65.0366974  20.4149985  37.6053762  65.9097958  20.2070284  37.9380655
  64.8700857  21.3066912  37.9109192  59.0643644  19.0106034   6.8360710
  59.0932417  18.2994413   6.1960346  58.6238813  18.6308610   7.5963372
  13.2523680   8.2109904  58.9901829  12.8608692   7.4815685  58.5096598
  13.6758077   7.8011239  59.7444677  57.4278545  49.7490120  16.7654812
  56.7018557  49.8807907  17.3752260  57.0255041  49.8034525  15.8986580
  70.0985718   8.2883877  21.3661218  69.8746634   9.2123193  21.4776874
  70.7813406   8.2867229  20.6952596   8.6245883  27.6903725  17.6770127
   8.0683035  28.1059742  18.3358407   8.3645576  28.0992723  16.8515325
  65.3337479  14.5643532  34.1704535  64.8119974  15.0971854  34.7705364
  64.9858379  14.7704923  33.3028722  10.5747747   5.1268464  28.5741425
  11.4642060   5.2614421  28.9012933  10.1052392   5.9232193  28.8222528
  74.1695786  64.3791580  36.6020894  74.4709921  64.2982769  35.6971908
  74.2920589  63.5058355  36.9742990  16.9954634  52.3062754  41.8707037
  16.4551520  52.6467323  42.5837135  16.3712049  51.8969154  41.2715721
  31.5180659  11.5982068  38.8742423  32.1141672  12.2095382  38.4416127
  30.9616852  11.2668610  38.1693459  32.2679448  72.7004385  22.4692178
  32.0430136  72.0404768  21.8134046  32.4750495  72.1956873  23.2557082
  46.4942312  61.6089296   2.5982681  45.8330488  62.2485781   2.3338443
  46.0612679  60.7612371   2.4973232  67.4522352  11.3655841  58.1655836
  67.5318718  12.3078001  58.0168486  68.3015203  11.1069775  58.5234594
  50.0060272  25.7015228  42.7862310  49.8036146  26.2904644  43.5131454
  49.9821711  26.2616467  42.0103931  11.6623282  64.8315811  45.9751749
  11.1076796  64.0525150  45.9345436  11.1399364  65.5192947  45.5623960
  10.2903986  29.7443867  42.7657413  10.2740085  30.4113603  43.4521198
  11.1792707  29.7855282  42.4129725  77.5744104  32.3299575  29.6575046
  77.8213024  31.7907095  30.4088306  78.2670498  32.1768022  29.0148354
  25.6812429  26.5793037  23.6618590  25.1745439  27.1521807  23.0862713
  25.2789927  25.7171750  23.5562062  12.8206599  58.5207367  22.9692101
  12.7458537  57.9914618  22.1751666  12.8228307  57.8828716  23.6829019
  65.3479147  18.7411666  33.1498003  66.0507965  18.1763446  33.4709907
  64.6682739  18.6831665  33.8213325  61.5899181  42.3080969  38.5871506
  61.7881584  43.1027889  38.0917668  61.8437195  41.5927553  38.0039644
  64.3426418  16.3631511  35.8274126  64.8131180  17.0338500  35.3323889
  63.4272861  16.6414750  35.7976723  43.1315565  68.3686924  53.4122705
  43.7422752  68.4722376  52.6825237  43.2842970  69.1364098  53.9631939
  60.2509689  51.0870457  15.2281177  59.7665882  51.8122005  15.6227863
  59.5782995  50.5482149  14.8116910  59.0809441  64.0989828  61.5176487
  59.6117353  64.7997236  61.1388874  58.8688850  63.5317612  60.7763529
  61.4663887  59.0108776  60.4413462  61.9477701  59.8128366  60.2379560
  60.7701445  59.2933273  61.0343838  65.8500099  66.2760448  45.9156418
  64.9260616  66.1053991  46.0984850  66.0507250  67.0676899  46.4148855
  64.3597937  35.9237814  50.8477640  64.4701052  36.5214705  50.1082850
  65.1592779  35.3974342  50.8516359  39.9196100  21.8966126  24.2491555
  39.8316860  20.9441876  24.2864132  39.1424322  22.1904778  23.7738943
  75.5850697  15.5631554  55.1640558  75.7405949  16.5018022  55.2688694
  75.2397537  15.2815270  56.0112143  61.4942169   4.5676991  13.0917943
  62.1587467   5.0773889  13.5553157  61.6613388   4.7422960  12.1656096
  20.7001328  62.1685696  10.6556559  20.5864787  62.6997995   9.8675507
  21.4275336  61.5825415  10.4466403  50.6993961  16.2794602  42.0981073
  49.8213005  16.5596724  41.8399286  51.2821627  16.9360757  41.7166948
   0.4821006  52.9050541  56.0452986  -0.0162568  53.6110497  55.6336641
   0.5842652  53.1831360  56.9554996  39.4813776  72.2093630  60.8296013
  38.5698557  72.1839952  60.5385399  39.7656465  73.1053448  60.6489229
  53.3165836  28.5967612  11.5800571  52.8214741  29.2473722  12.0778584
  53.5675669  27.9390979  12.2286832  78.8118887  16.5411115  34.3618441
  77.9805803  16.4262533  33.9014482  79.0291595  17.4649310  34.2370224
   8.0711526  20.4206967  17.8479671   7.6108295  20.4112315  17.0087743
   8.9738828  20.1900864  17.6285851  73.4473419  49.8956013  28.1352043
  72.9747725  49.1496325  28.5045791  74.3672752  49.7165442  28.3298540
  57.7043676  56.9919157   3.7614167  57.6782227  56.1716080   4.2540035
  58.6035204  57.3039484   3.8633564  44.6930599  30.5566335  39.6957517
  44.2555046  31.2422919  40.2003813  45.4521227  30.9921074  39.3079138
  50.4076946   0.6348089  33.6403346  51.2501920   0.9441665  33.3075833
  49.9752319   0.2509883  32.8775167  31.8761110  71.4588547   2.0813954
  31.4075613  70.6725836   1.8012717  31.1852455  72.0807409   2.3098542
   0.1226630  50.3996134  12.0679557  -0.2400301  49.5380592  11.8620217
   1.0707118  50.2799559  12.0121205  12.8882694  63.0469513   2.9558405
  13.0079603  62.1202707   2.7480698  13.7661314  63.3582735   3.1764543
  75.3839684  50.2846003  48.8850641  75.7493305  49.4228935  48.6845636
  75.4779768  50.3697538  49.8338223  61.8520451  28.7118793  50.3869772
  62.2051096  29.6009445  50.3532219  62.4973249  28.2169247  50.8918238
  65.5627251  15.2703524  56.4321852  66.5034723  15.1312447  56.3232231
  65.2323914  14.4318426  56.7546940  10.3423309  35.2367282  54.2832279
   9.5657384  35.5841231  53.8445330  11.0773158  35.6622910  53.8417196
   0.3335616  60.2473640  22.3682070   0.4544626  60.7529783  23.1719303
  -0.4227135  60.6512880  21.9426179  59.4253540  58.3109045  48.9909267
  58.8836002  57.6017666  49.3371344  59.5316362  58.1001282  48.0632925
  45.4096031  69.2466736  28.2627463  45.1031780  69.9742556  28.8040018
  46.2409544  68.9865446  28.6595082  57.7406645  33.8670039  45.9266949
  58.4475994  33.7402081  45.2939272  57.5511312  32.9875088  46.2534952
  78.9691973  61.9299936  29.5806074  78.8129330  61.2033796  30.1838040
  79.8753452  62.1892834  29.7476196  28.4342289  26.0105586  49.4451714
  29.1997957  26.0572171  50.0178528  28.5413837  25.1873398  48.9686680
  68.8171434  32.2975922  44.7066164  68.7942219  32.6727581  45.5869341
  68.3213615  32.9158521  44.1697884  72.6030684  26.3211226  49.6618176
  72.8251314  25.7820249  50.4209566  71.9874811  25.7865715  49.1602802
  12.9978013  46.2690735  57.7314758  12.2005093  46.0043478  57.2727013
  13.7044060  45.8342409  57.2541332  73.0229664  33.2687521  20.7845831
  72.6532412  34.1381025  20.9387469  72.7775955  33.0605435  19.8830998
  11.0484588  38.0187631  12.1675229  10.1430035  37.9887128  11.8585241
  11.5393484  38.3908272  11.4348376  73.6879873  66.5964746  30.4890537
  73.6161518  65.9336853  31.1759186  73.3769417  67.4027061  30.9007168
  60.8073568  32.2985125  56.0304260  60.5509853  31.4228821  56.3198709
  60.9935570  32.1972632  55.0969887  60.4409504  26.2925386  33.7310839
  59.6794701  26.2357259  33.1538916  60.8912325  27.0910382  33.4556341
  14.7578931  38.3777547  36.9378543  14.5508790  38.7074709  36.0634017
  14.9647772  37.4530482  36.8023896  75.1235533   6.7106843  27.5988960
  74.5791960   6.4904982  28.3548212  75.3626490   5.8642554  27.2212410
  21.5138030  71.0141134   8.5816467  22.1456528  71.3320017   7.9367083
  21.8414259  70.1503801   8.8323647  51.3838291  74.1036606  27.3198605
  50.9056711  73.4697390  27.8544021  52.2998953  73.8358116  27.3927617
   6.3865882  37.7644563  45.8020210   5.4688495  37.8658509  45.5496216
   6.4208555  36.9167161  46.2451839  56.7375803  50.3679085  21.5376186
  56.0391855  50.6331635  20.9391904  56.7797947  51.0727453  22.1838784
   8.1141710   5.3804511  15.2147627   7.7240783   4.5316195  15.4234350
   7.6727462   5.9970093  15.7989132  23.3508062  10.5973077  41.9268274
  22.5747252  10.7092416  41.3778305  23.6478186   9.7061443  41.7428589
  58.0054855  53.0806923   9.0806180  58.2446194  52.7762079   8.2052118
  58.6987972  52.7448225   9.6487218  60.0989151  56.2919140  55.6714869
  60.9576941  56.6801119  55.8389187  60.2477741  55.6845951  54.9467564
  46.5452099  15.1292491   6.3928545  46.8506861  15.2510393   5.4939204
  46.5282345  14.1798329   6.5134931  75.6040335  33.7864614   3.5448650
  76.2822628  34.1487765   2.9748103  75.9674454  32.9556751   3.8513860
  17.8038645  15.3272176  52.1247625  17.7676201  15.7056606  53.0032253
  18.1949723  14.4629192  52.2522593  63.5203028  19.3166757   4.9263287
  64.4528770  19.1045570   4.8870310  63.2666159  19.1152978   5.8270633
  71.5114355  25.2687621  32.0916963  71.2633181  25.6910419  31.2692904
  72.4402571  25.4751563  32.1962214  65.1234818  13.7472475  37.5279975
  64.4524717  14.3800068  37.2718811  65.4986095  14.1079116  38.3313823
  23.5284519  72.6143694  22.6291609  24.1202259  73.0637932  23.2325315
  23.5025573  73.1772137  21.8553567  67.2897768   5.2189583  42.6731157
  67.1808290   5.4860067  43.5858297  67.0748806   6.0024917  42.1670246
  49.0531158  24.1405702  55.2102900  48.2982826  24.1306686  54.6217680
  49.6198940  23.4413147  54.8846626  74.3418837  36.7635989  39.5827889
  75.1676798  37.1809292  39.3375659  74.3585873  36.7434382  40.5396318
   1.5754008  11.7965019  64.2359781   1.8575291  12.6705909  64.5054293
   2.3645729  11.2589264  64.3027067  69.1596270   9.3584007  41.4468050
  68.9893150  10.2950168  41.5466833  68.8475943   8.9697433  42.2640038
  66.4501381  46.5535927  57.1559238  65.7090616  46.1154652  57.5743437
  66.7162943  47.2257900  57.7832556  40.0546312  18.5164702  37.6709676
  39.2942929  18.9249766  38.0847812  40.0185728  17.6024663  37.9529738
  40.4097080  46.6913176   4.1156575  39.7245669  46.6173458   4.7799942
  41.0219288  45.9854269   4.3233544   3.2845983  39.2491055  63.7758636
   2.4208310  38.9200068  63.5272026   3.2928434  39.2017674  64.7318554
  41.0915136   7.3495120   9.5125091  40.8411741   7.6427561   8.6363983
  40.3986025   7.6815867  10.0833297  23.7316322  58.3670759   9.7312731
  22.8165507  58.0912781   9.6784037  24.1197467  58.0682421   8.9088994
  22.5601268  72.0437527  16.2365198  22.3451400  71.9576931  15.3077531
  23.0730653  71.2609005  16.4371741   5.2791679   7.8121531  61.3062668
   5.0399739   7.0644587  61.8539619   4.4578823   8.2863188  61.1763096
  64.0543699  29.6652031  54.1905594  63.3004999  29.7421193  54.7753668
  64.2855597  30.5693316  53.9776421  61.0704327  75.0572777  55.2023792
  60.9840298  74.6172571  56.0480452  60.6094170  74.4868088  54.5873451
  54.7740746  21.8264246  47.4649858  54.0698290  21.5803289  48.0647421
  55.4185486  21.1239672  47.5512457  18.2790184  69.9182606  59.8776484
  17.3887908  69.9248600  60.2293348  18.2701981  69.2262173  59.2164135
  59.7426701  31.3883114  47.4358654  59.2774153  32.2233248  47.3856497
  60.0065660  31.3159513  48.3531189  66.6887379  21.1897564  41.8574953
  66.6942978  20.9290886  42.7785063  65.8204603  21.5688610  41.7211103
  43.6911488  64.4055080   6.1338705  44.4595528  64.7831440   5.7058817
  43.5557175  64.9516106   6.9082487  36.5611696  47.3376608  10.3338480
  36.5414906  47.1192837  11.2655962  35.6415796  47.3368263  10.0681734
  57.1358013   3.5373899   8.8054997  58.0141115   3.9101774   8.8818341
  56.5613651   4.1957563   9.1964126  37.3446798  26.0895586  39.9934340
  36.6880488  25.3941631  40.0321102  37.3145390  26.4958787  40.8595896
  17.9806018  29.8118496   0.2578576  18.1161976  29.5149207   1.1576793
  17.0365226  29.7348738   0.1199376  14.9867237  40.9091711  57.4258375
  14.5006859  40.5415821  56.6876793  14.6299756  40.4626465  58.1936789
  55.1048231   6.1027747   1.5276030  55.1181793   5.8732569   0.5984232
  54.1806459   6.2578332   1.7227547  63.5955954  23.2504797  35.6771350
  64.0641069  22.8066039  34.9702382  64.2552090  23.8097477  36.0874534
  11.7807102  23.1172657  43.1605148  12.0197880  22.9503489  42.2488070
  11.6872513  24.0684271  43.2133293  67.6325274  27.5586939  39.6737599
  67.9568052  27.2780919  40.5295277  67.6486158  28.5149407  39.7133112
  58.9480352  14.9810946  31.4331555  58.1070995  15.4341805  31.4946008
  59.1044092  14.6456158  32.3158979  54.0981436   7.4346131  50.9328222
  54.4114637   8.0558103  51.5902281  54.6585178   7.5879681  50.1721048
  67.5921917  45.8268404  24.7131371  67.8022289  46.5102005  24.0766335
  68.2344675  45.1373196  24.5449829  73.7502527  28.5620546  14.7813344
  73.9830732  29.4393229  14.4773102  74.2741680  27.9733825  14.2380023
   8.3261800  54.0706778  13.8149273   8.2135135  53.1211662  13.8593006
   7.8214550  54.4066334  14.5556152  58.6794138  73.1179190  42.3182726
  58.5653830  72.1799517  42.4713898  59.5003128  73.3346939  42.7602673
  25.6868982  12.2940528  24.3895698  26.1711192  12.6979053  25.1097536
  25.3337789  11.4859772  24.7617960  28.2255507  41.6086102   8.7129515
  28.9182687  42.0984411   9.1561735  27.4193406  41.8884087   9.1465074
  75.3932095  25.6104445  57.0883656  74.8148251  25.2815580  56.4002275
  76.0974026  26.0555267  56.6169310   9.3524486  32.3247218  62.3479843
   8.8700897  32.3794103  63.1729507   9.2166489  33.1771040  61.9341755
  62.4400330  71.3839674  26.9738698  63.1793451  70.7784796  26.9187808
  62.2913837  71.6632938  26.0704827  64.3452454  15.9018469  47.8209019
  64.7427368  15.9344220  48.6910534  65.0808525  16.0067177  47.2174740
   9.6140605  65.2894783   6.1220527   8.6648619  65.3066778   6.2443578
   9.9202722  66.1098433   6.5086609  26.6488218  50.7898235  26.0215712
  26.0708499  50.9427881  26.7690897  26.0688472  50.4647350  25.3329659
   1.1804058  49.9201441  41.0779715   1.1452366  49.1545868  41.6514826
   1.9292459  49.7558546  40.5048370  13.7569237   1.1279579  41.2907028
  14.4729173   0.5539919  41.0184002  13.8244700   1.1589044  42.2450161
  57.7735710   2.7789739  25.9868550  57.0683146   3.2028118  25.4977703
  58.2917833   3.5038382  26.3365126   2.8091910   7.4824995  19.5101309
   2.1374956   8.1640869  19.4878912   2.8458038   7.2121543  20.4276299
  63.8268805  17.1628380  29.2453003  64.0620804  16.5660608  28.5348296
  62.9264545  16.9267035  29.4682479  21.8280339  52.3769188   5.0728887
  21.2957096  52.1183538   4.3205547  21.1952591  52.7001047   5.7142758
  73.3676624  57.8722763  31.2569499  74.3136215  57.7291727  31.2871289
  73.1015348  57.5347853  30.4016685  10.3576052   0.6639580   2.5341210
  10.4686546   1.1898425   3.3261722  10.1053596   1.2956351   1.8606314
  45.4682875  62.0686626  29.8106861  46.1152935  62.7735329  29.8385334
  44.9277878  62.2088242  30.5881476  55.6925392   7.3494005  43.1515360
  56.4680624   6.8665612  43.4373093  55.7441187   7.3413742  42.1957588
  73.9020300  28.3116746  44.5041084  73.0601883  28.5851288  44.1397429
  73.9142895  28.6852169  45.3853273   7.9095232  68.4103155  35.7730770
   8.0075651  68.8414431  36.6220450   7.4521714  69.0521908  35.2298856
   5.5590546  19.3661284  62.6897383   5.9827822  19.9892950  63.2799530
   4.9427754  19.8960876  62.1841955  48.4742594  74.0983725  57.8598928
  48.2530689  74.7175598  57.1642542  48.9873171  74.6121407  58.4836292
  62.7420759  62.8968239   9.6461040  63.2452488  63.7032557   9.7588569
  62.6874971  62.7791834   8.6977291  58.6863613  24.4924426  43.7660170
  58.1365013  23.7554598  44.0319872  58.3895540  24.7056937  42.8813362
  68.2839060  41.2405252  19.8301554  67.9375744  41.3650656  20.7137728
  69.1060305  40.7676697  19.9595714  61.5832710  17.1974659  35.5734444
  60.6487799  17.3045111  35.7509422  61.6167068  16.6615844  34.7810149
  20.1544285  65.2014303   6.7707843  19.5354271  64.4883156   6.6141570
  20.7171392  64.8797750   7.4751455  23.5394931  53.6862707   0.5659395
  23.7416959  52.8753853   1.0326482  22.7843475  54.0477610   1.0299538
  63.5756731  12.9542613  62.9049349  64.3767357  13.1726277  62.4286509
  63.8825178  12.5783002  63.7299967  28.0895066   9.9096954   0.4997779
  28.6529374   9.4630021  -0.1320779  27.2610855   9.4316655   0.4618506
  55.0673151  44.6129704  36.6072083  54.5977402  44.4186831  37.4183702
  54.8152781  43.9086771  36.0099816  60.8663654  48.0761051  13.2068288
  59.9837875  48.3803129  13.4183598  60.8074284  47.1216822  13.2496667
  59.3913126  29.8424244  57.5525713  58.4835577  29.9602389  57.2726822
  59.3676901  29.0761709  58.1257486  71.5053177  62.4842691  26.8895245
  71.6370058  62.9362345  27.7229619  70.6090021  62.7050543  26.6363358
  42.3296547  57.6622057   5.2321136  42.6178074  58.4631443   5.6699443
  42.7927208  56.9598007   5.6886572  74.2153788  37.7019382  17.1596062
  74.4638109  36.9403672  17.6835585  75.0313282  38.1884575  17.0423269
  54.4918346  51.6303730  20.3925681  54.7434855  52.3722696  19.8425770
  53.6298609  51.8673706  20.7347107  72.4029827  22.6192856  29.5850730
  72.4988127  23.5703278  29.5343852  71.5450668  22.4861503  29.9881697
  57.0863867  43.5979128  13.0356991  58.0227375  43.7933493  12.9999602
  56.7308760  44.2404032  13.6497402  17.6082850  28.8829446  33.0193448
  17.5862110  29.6009016  33.6520219  16.8353283  28.3575940  33.2261729
   4.1948569  61.1539936  53.6920404   3.6892441  61.2365580  52.8834820
   3.5721514  61.3678980  54.3868160  16.9359219  67.5651789  24.4495201
  16.9540954  66.9857788  23.6878109  16.4611030  67.0692015  25.1164412
  13.9670002  29.5479655  58.6471367  13.0991113  29.7483897  58.2966661
  13.7996602  29.2323065  59.5351648  -0.2452175  33.0883288  41.2484932
   0.1229087  32.2474432  41.5198374   0.4801352  33.7067461  41.3359737
  68.2762575   7.7453279  12.9706502  68.3209848   7.1908104  13.7495863
  68.5651541   8.6064351  13.2727492  69.2076731  19.6042657  41.9255495
  69.3185568  20.2861714  42.5880718  68.2629633  19.5669830  41.7759895
   4.1276371  50.3028965  30.0749969   3.7452596  50.2613878  30.9515214
   4.6412599  51.1106253  30.0757575  72.6305771  25.0197506   9.8367989
  72.6288414  25.9460115   9.5954072  73.4401751  24.6754646   9.4596422
  63.0836058  53.4769154  37.9345298  63.7142611  52.7857161  37.7326679
  62.2391176  53.0276966  37.9701066  23.2218814  31.8016839  60.1915359
  23.0090547  31.0398912  60.7306194  22.6492000  32.4948931  60.5197620
  18.2499290  71.1478090  46.2087154  18.6973774  71.7472553  46.8059492
  18.9415741  70.8240509  45.6316185  61.5752554  40.3776360  45.5760241
  61.2302208  41.2216902  45.2848864  62.4203873  40.5884123  45.9729671
  69.2372322  15.2156734  56.4270258  69.2556143  15.1221180  55.4745865
  69.9882078  15.7743716  56.6273499  69.4495726  71.9809341  63.6195374
  69.9059868  71.2494469  64.0352869  68.5443449  71.9003201  63.9200306
  10.6160438  26.1102295  45.8355522  11.2020159  26.2650609  45.0946760
  11.2007833  26.0125160  46.5870571  35.8256340  58.5550165  17.2629428
  35.0610518  58.0245781  17.0387065  36.0005045  58.3471584  18.1807911
   1.6130388  51.7494249  54.0756273   1.1312893  52.0056343  54.8620796
   0.9356127  51.6156387  53.4127331  71.0693979  58.2799864   4.3541798
  70.9888411  59.2074203   4.1314560  71.8199587  58.2403278   4.9469039
   2.7707714  25.9267902  45.7389593   1.8647459  25.7322693  45.4991436
   2.7527627  26.0143304  46.6919804  36.7666030   1.3979360   5.7366621
  36.7250586   0.4594705   5.5528462  36.6669369   1.8143255   4.8805553
  30.1574492  46.8450022  18.1445432  30.4398727  47.7478933  17.9987347
  29.3409085  46.9260931  18.6374104  10.3942657  53.8262606  24.6819830
  10.6517065  53.0081797  25.1070690   9.6133620  54.1082716  25.1583171
  64.0391731   6.3738531  55.4761219  63.6684275   6.8494922  56.2194586
  63.5350704   6.6782451  54.7215033  51.5330935  40.4270554   0.5034744
  52.4090242  40.6705189   0.2039797  51.0654449  41.2589550   0.5774935
  22.4589944  19.4837499  57.9922009  22.0747328  18.9804161  57.2744036
  23.1577635  18.9236832  58.3302498  13.6870837  60.5643415  19.0755820
  13.9191735  60.5782795  20.0041127  13.3748543  61.4506578  18.8934124
  18.9623559  28.3543301   2.8465664  19.0580690  28.3944035   3.7981257
  19.7902548  28.6951995   2.5080052   7.0224446  62.9119492  58.2733011
   6.2927395  63.5313368  58.2843637   7.7870387  63.4384155  58.5066700
  10.5154622   6.9481611  19.7670627  11.4012682   7.2621691  19.9486637
  10.4779613   6.8753910  18.8133693  40.5139780  73.5358000  31.9025016
  40.4850197  74.2575502  32.5305653  40.7912254  73.9433098  31.0819554
  37.9094648  13.0368209  21.1253071  38.2057786  13.1574011  20.2231503
  36.9565606  12.9758692  21.0583043  34.5577884  51.2949133  64.4363546
  35.2135921  51.5391064  65.0894403  34.8696184  51.6926575  63.6234665
  66.7992783  22.0208597  22.6619291  67.6431847  21.5979958  22.8208232
  66.5116930  21.6720533  21.8182111  69.2185736  26.3434100  52.5903749
  69.2964172  25.4691744  52.9723167  69.5411301  26.9323874  53.2725000
  71.4181471   3.2025167   3.9995512  70.5993319   3.2734871   4.4902036
  71.8726254   2.4603267   4.3980926  69.2237711  17.5842309  27.7923083
  68.7650490  17.4249923  28.6172032  69.7394276  16.7908227  27.6479769
  25.5044675  74.7153282  23.1722522  26.2966132  74.1911077  23.2902622
  25.7907510  75.6174517  23.3152342  79.0949106  20.5747914  57.4771452
  78.9996147  19.6303880  57.6006413  78.3023405  20.8362341  57.0084095
   4.5630109  19.3137944  41.7089987   4.0439138  18.5202360  41.8395233
   5.0547928  19.4150448  42.5239372  75.6309462   1.1162297  26.0620284
  75.1532459   1.0529882  26.8890929  76.3907003   0.5460779  26.1800575
  30.5993414  72.9403687  25.4123092  31.3642287  72.5575352  24.9826360
  30.4744458  73.7819481  24.9737024  27.2422361  16.7017007  42.0943213
  26.5080190  17.2666740  42.3350716  26.8330264  15.9353805  41.6924143
   2.5671557  15.5406725  30.2620339   2.3943579  14.6992373  30.6843615
   3.2067651  15.3389919  29.5790577  49.4634390  14.9182224  31.2954617
  50.2689648  14.8868155  31.8115830  49.1545630  14.0123916  31.2782168
  67.5014782  46.8185091  29.6313810  66.5813065  46.8447304  29.3690276
  67.7078819  45.8855486  29.6880651  61.7888689  52.9007912  52.0520163
  61.3876724  53.2180834  52.8610849  61.4066505  53.4468126  51.3649893
  56.8417072  21.6951966  41.9874477  56.1192417  21.3550544  41.4596415
  57.6049614  21.1941814  41.6999388   2.9440889  28.3575273  24.8472953
   2.8768998  27.4789667  25.2212572   3.0202115  28.9357352  25.6063151
   4.8143712  26.3010406  40.9545135   5.4839516  26.4094782  40.2791357
   4.8776063  27.0957732  41.4842606  42.2315073  71.4895105  37.2583580
  43.0146170  70.9571362  37.3981595  42.3597240  71.8819809  36.3947845
  28.1698728  23.6711621  26.8059492  28.8917375  23.8627172  26.2072420
  27.8362823  22.8224182  26.5151095  45.2589464  68.7622643  21.3454318
  45.7811594  69.4439316  20.9225178  45.4262304  67.9756880  20.8262587
   4.6658456  42.4067259  53.2390785   5.3100520  42.3066902  52.5382042
   3.9431444  42.8857660  52.8335428   0.9059250  63.9238501  48.0633640
   1.6612554  63.9102888  48.6511755   0.2715647  63.3369780  48.4749460
  26.0283184  60.9426641  62.4559736  26.2695336  60.0382566  62.6561975
  25.2908063  61.1281443  63.0372715  60.6758881   8.8070512  39.5827246
  60.8666801   7.9169989  39.8787618  59.9604702   8.7026334  38.9554262
  11.9214988  33.2259464  31.6544557  11.8161106  32.4594760  31.0908532
  12.6731920  33.6914110  31.2876654  64.3860054  11.7944300  34.6468139
  63.7521791  12.0345497  35.3227162  64.8372459  12.6128721  34.4400120
  76.9449806  23.2507300  36.9083500  77.8433371  23.5720110  36.8311405
  76.8313169  23.0796480  37.8432536  12.5522316  34.2318535  45.7817698
  13.0349255  35.0579882  45.7545900  12.7139223  33.8317609  44.9273634
  51.7856359  57.9753399  57.9645014  51.2818575  57.9507828  57.1509695
  52.6893330  57.8171444  57.6914740  78.6285925  16.3337421   9.2178643
  77.8684855  16.8478441   9.4902068  79.0910292  16.8992054   8.5992908
  15.4316795   6.1852658  57.7981997  14.6696138   6.1053044  58.3718681
  16.0791981   6.6546512  58.3241558  16.8452203  58.8201904   2.6936561
  16.7550230  58.4750605   1.8054089  17.7774525  59.0196609   2.7795932
  66.2526941  49.5420837  45.9938765  66.8003130  48.7711048  45.8457375
  65.3568077  49.2251682  45.8790398  41.6843510  68.2217693  18.1792116
  41.3109779  69.0209913  17.8076398  41.7224836  67.6106691  17.4434590
  69.8439074  55.2671242  10.7278228  69.5631123  56.1472893  10.4774284
  69.4532061  54.6942854  10.0679469   3.8283822  60.3587389  37.6192307
   4.6844950  60.1763153  37.2319007   4.0188402  60.5675459  38.5337567
   8.6754972  41.1181784  63.5383606   8.2666403  41.6407490  64.2282772
   8.6191636  40.2167749  63.8554287  45.6026316  59.8567772  27.6532865
  46.4670134  60.2664089  27.6890779  45.2447462  60.1262045  26.8073773
  78.4932995   9.5648223  15.9846532  78.6405516  10.5104721  16.0018575
  77.8413677   9.4114584  16.6685355  14.9420571  23.0829358  12.4232352
  14.8251140  22.2402596  12.8619277  15.3145456  22.8592849  11.5703201
  59.3666506   9.5819873   5.0846165  59.4287014   8.8702428   5.7216424
  58.4297609   9.6622092   4.9056187  11.1940491  68.6507082  15.2554309
  11.4260542  69.0961456  14.4405746  10.7065284  69.3051338  15.7557142
  12.8098392   7.9896033  17.0497143  13.4816921   7.4890608  16.5867841
  11.9824421   7.6064998  16.7583764  64.8917198  41.6240549  34.5437884
  65.5828094  42.2861958  34.5577979  65.1020765  41.0742283  33.7890220
  67.0587397  28.0455875  63.2259846  67.2565508  28.6323023  63.9559650
  66.6149902  27.3004508  63.6310625  50.5297661  70.9477091  40.5613756
  50.5434799  71.8984985  40.4516602  50.0805712  70.6230068  39.7809744
  33.3474112  24.3581986  61.7435455  33.3978987  23.5941887  61.1691141
  32.8762627  25.0137854  61.2292910  47.4572086  74.5749426  18.5318232
  46.5608406  74.4697714  18.2129252  47.6969099  73.7092447  18.8624871
  31.4638877  72.0924473   8.3548874  31.5303230  71.2211132   7.9642534
  30.8503604  71.9830656   9.0814221  15.0660217  40.8757877  29.6547151
  15.2023625  41.0595512  30.5841637  14.2471719  40.3809214  29.6260095
  73.9748716  36.5361619   6.1970586  73.1731415  36.9357038   5.8596766
  74.5502758  36.4732313   5.4347074  12.9673588  42.5453234  10.8195472
  12.0579076  42.8400803  10.8669376  13.0921650  42.3000002   9.9027741
   7.8427237   8.0495882  58.2988453   7.8361392   7.0926422  58.3198643
   8.2813138   8.2680833  57.4765730   7.0834768  56.8406534  43.8814163
   6.6738206  56.0813046  43.4669209   6.5470010  57.5833273  43.6041737
  33.1136632  19.9550211   8.5269171  33.9180708  19.9772310   9.0452462
  32.7273417  20.8225298   8.6469829  62.1015263  26.7645979  36.9213510
  62.2753382  27.6963949  36.7880225  62.9578638  26.3461614  36.8328762
  79.3237305  19.6500039   4.8689324  78.7356806  19.8925328   5.5842030
  80.1983166  19.8605514   5.1960427  34.2544103   9.8741335  59.5651627
  34.6631432  10.5089355  58.9767790  34.6557546  10.0444067  60.4173183
  36.9669557  19.8614120  16.6769326  36.6834855  19.0634966  16.2306058
  36.1885238  20.1635122  17.1449172  49.6921158  25.2567720  20.9638286
  49.2491293  26.0204840  21.3336134  50.2166367  24.9111176  21.6860723
  40.9161377  15.4570496  63.5953617  40.2992344  16.1074579  63.9309597
  41.3346863  15.8865058  62.8492928   6.9975668   0.2139142  30.1487446
   6.4878041  -0.5518958  29.8843408   6.6958052   0.4077438  31.0362148
  78.6296701  32.3015642  36.8745923  79.1978502  32.8636813  37.4013019
  78.9041996  32.4621654  35.9717798  49.4063807  18.1946552  12.4113452
  48.5466051  18.5925245  12.2745168  50.0131750  18.7691045  11.9444001
  14.6700609  70.3435326  61.9733715  15.1675045  69.5357800  61.8456173
  14.8923898  70.8841515  61.2153912  56.5337753  21.1128139  20.0201106
  55.7995987  20.9160614  20.6019211  57.2335911  20.5283594  20.3114986
  52.7489328  18.8454330  33.8232517  52.2413111  19.5486641  33.4182572
  52.1652174  18.0870509  33.8041067  65.9586716   5.1657790  15.2616978
  65.8037806   4.9741504  16.1866403  66.8577623   5.4928720  15.2321625
  49.2070627  16.1384022   6.6751456  48.3438015  15.9116721   6.3293064
  49.0273714  16.5298903   7.5299430   0.4556569  47.9885817  46.0585213
   0.3347518  47.2471380  46.6517067   1.2071576  47.7434015  45.5187416
  34.6143103  69.7698736   7.6676333  34.7845864  70.6424093   8.0224842
  33.6599874  69.7124100   7.6207829  73.1875992  15.5143070   7.9605627
  73.3588266  16.4560211   7.9700512  72.2333860  15.4440737   7.9884481
  55.1932716  58.5230541  31.4177561  55.9755278  59.0481710  31.2487650
  54.4658279  59.0825939  31.1457849  41.5889978   5.7625544  55.9910011
  42.2357082   5.0658536  56.1032677  40.7723093   5.3864402  56.3193226
  26.0817504  59.2263889  18.9123714  25.4903531  58.5050869  19.1273272
  25.7227993  59.5984697  18.1068015  27.0360875  65.6886816   6.5005201
  27.6499963  65.2197504   5.9353173  26.9337773  66.5447760   6.0847473
  71.6671753   6.2204111   9.2356038  70.9753132   6.6937804   9.6976459
  72.0958853   5.6997252   9.9148136  66.9971561  35.3937554  18.1389439
  66.7635441  36.3205624  18.0870986  66.8089104  35.0500894  17.2656238
  48.1052876  22.4635959   5.7007390  47.9765415  23.0161166   6.4716965
  47.2908020  22.5500536   5.2053899  53.7752056  14.3675053   6.3085300
  53.5710382  14.5555508   7.2246015  52.9258919  14.1854119   5.9063554
  36.0674381  62.0667887   3.4389290  35.8136511  62.5319958   4.2360529
  35.9991789  61.1404610   3.6701980  28.1736755  24.3543649   5.1167804
  28.8472819  24.9272633   4.7503439  28.6542249  23.5856247   5.4239285
   2.2135989  71.2681103  53.9727831   3.0066937  71.7963791  53.8824177
   1.6097972  71.6296339  53.3239698  67.2500753  29.0956640   3.7646207
  67.1358633  29.6959615   3.0278522  67.8114176  28.4001207   3.4220636
  42.7329016  64.0431976   1.9393703  41.8168926  63.8179016   2.1018453
  42.7831173  64.1737556   0.9924462  36.8458223  68.5931301   6.6939312
  36.1906862  69.2313433   6.9762594  37.3973179  69.0732765   6.0762405
  73.6257292  25.6837753   0.3364084  73.3989669  24.9552683  -0.2415993
  74.4127847  26.0634522  -0.0542643  64.3165493  30.7738853  33.0614066
  64.1986322  30.2862334  32.2462225  64.9627066  30.2665615  33.5526633
  64.3290329  35.4780030  31.4246893  64.3656397  36.4092278  31.2062621
  63.6604834  35.4181576  32.1071076   0.5794557  57.5752258  21.4770818
   1.5364039  57.5719309  21.4553714   0.3502467  58.4460258  21.8017459
  50.9660578  23.7735367  16.1704576  50.6399202  24.3846250  15.5098248
  50.7621384  22.9076052  15.8171713  73.2906818  14.4177997  31.7053866
  72.7313185  14.3813872  30.9294868  73.3140993  15.3453922  31.9404507
  62.5494766  60.9591389  16.4294720  62.9381800  61.7881203  16.7086351
  62.1972704  60.5770254  17.2333229  60.7913446  61.3916206  21.7027974
  59.9830818  61.7399073  22.0791507  61.3930702  62.1360111  21.6970301
  60.2829885  71.3172102  18.5979080  59.8556328  71.8656015  19.2558324
  59.5779562  71.0652208  18.0015314  78.2985687  46.1924791  61.6993380
  77.4793959  46.6728449  61.5791845  78.9757347  46.7912149  61.3843966
  67.0242596  15.0941324  26.9733119  66.6124439  14.6335328  26.2422252
  66.5251303  15.9066868  27.0561290  60.1192665  73.7794209  26.9422436
  59.6216726  74.5585442  26.6940546  60.6157064  73.5518074  26.1561322
  76.8112707  33.8897729  15.9750330  77.1486521  33.8063288  16.8669093
  76.8735361  34.8252273  15.7819474  78.1039232  30.8710574  64.5655511
  78.5919899  30.5584192  65.3273124  77.1850914  30.7389783  64.7990849
  22.8813362  51.4891911  64.1838837  23.3325648  51.7023563  63.3670664
  22.5174475  52.3231173  64.4811726  70.9206676  44.9798393  22.4124169
  70.9091520  44.8088408  23.3541489  71.6819954  45.5449200  22.2808886
  25.2640224  12.0159030  32.0793438  25.1423788  12.5651431  32.8537917
  25.7717228  11.2677741  32.3936319  51.4720964  36.3690400   9.5010084
  51.6423798  36.8436623  10.3146231  52.3408890  36.1391115   9.1715229
  43.1331110  49.9390936   6.3727748  43.5047245  50.1249552   5.5104578
  43.4398651  50.6576920   6.9257218   6.4957136  25.9378076  25.2002215
   6.7837328  25.8129883  26.1044884   5.5794811  25.6607699  25.2002788
  39.1248727  14.4637597  36.4468718  39.9798965  14.7101676  36.0941005
  39.0905333  13.5122085  36.3488770  38.5060883  14.4341707  14.7596049
  37.6966739  14.4951785  14.2522991  39.0314007  13.7826753  14.2950296
  58.2690573   8.9890063  14.1544545  58.1179619   8.2478404  13.5678744
  57.8753090   8.7213939  14.9848616  76.6922426  29.8381591  12.0921564
  77.3999262  29.4385147  12.5978208  76.7481041  29.4222212  11.2318611
  67.2378969  20.8796477   9.2254961  66.6976500  21.5165567   9.6931612
  66.7352295  20.6715989   8.4379244  57.8864861   6.2837654  12.6144290
  58.5903454   6.4862084  11.9981277  58.2847071   5.6823480  13.2436717
  75.5875540  21.2250471   4.4913688  75.4175663  20.7079911   3.7039745
  74.9665785  21.9516301   4.4394705  58.2442617  67.9320240  23.3962965
  58.9229870  68.5393476  23.6907840  58.7273598  67.2060108  23.0016351
  69.4929934  71.9010878  60.8926678  69.5572758  71.9304037  61.8472576
  68.5778952  72.1122456  60.7076359  13.0180764  67.6369381   8.1713760
  13.7549901  67.7623081   7.5734866  13.4235930  67.3939180   9.0036786
  30.3068900  62.7839231  35.9469485  29.9959517  63.6875582  35.8922410
  29.8335600  62.3253202  35.2527785  16.2191546  27.8323603  64.4553280
  15.5542254  28.5205269  64.4782686  15.8989108  27.2115970  63.8008595
  52.7962446  52.4606371   0.9565360  51.9917250  52.8578568   0.6230735
  53.1437254  53.1049728   1.5732367  71.3726473  30.7791400   2.0098965
  70.4261875  30.6487489   2.0686069  71.4945364  31.2932611   1.2117399
  11.8460703  35.3550434  12.7324891  11.5172529  36.2324739  12.5369704
  11.8254805  35.2989197  13.6878204  72.0985508  15.4702914   4.5617691
  72.9094362  15.9763360   4.5106468  71.4919329  16.0373843   5.0378489
  34.9857688  70.4021263  15.5442882  34.9515128  71.3053942  15.2293873
  35.3210139  69.9016857  14.8003781   6.0059285  18.3143377  16.5069151
   5.7924926  17.8020620  17.2868192   6.8244541  17.9345644  16.1875093
  21.0570312  17.9965317  26.3625312  20.8016181  17.7685726  25.4686451
  21.1781740  17.1534932  26.7993855  44.6429920  45.7289028   8.0927706
  45.3916979  46.3168716   8.1925786  45.0201797  44.9156189   7.7573121
  56.7417383  16.4619315  31.9285131  57.0803928  16.6934311  31.0636711
  56.4028978  17.2847629  32.2811747   0.3455683  41.8583107   7.8578812
   0.7500520  41.7710257   8.7210190   0.8250698  42.5735664   7.4398923
  66.5557146  43.5405493  13.3542967  66.0127592  44.1505527  13.8536203
  67.3767471  43.4944773  13.8442123   1.0176706  38.8497829  40.9853888
   0.3064908  39.4901681  40.9663153   0.5773460  38.0013061  40.9360743
  16.9440627  12.3026156  63.2995033  17.8109908  12.4523711  63.6766529
  16.5390956  13.1696689  63.2782173   5.3587323  17.6992393   2.6422557
   5.9996676  17.7616429   3.3504501   5.8615458  17.3839581   1.8912509
  64.5258856   1.9484101   8.0154729  64.9316263   2.0380276   8.8777804
  64.0819788   2.7841645   7.8716165  73.0742979  39.7783279  14.8621416
  73.9985609  39.8834491  15.0878119  72.7980042  40.6479025  14.5727754
   2.5419754  20.9069300   3.1839836   3.4890899  20.9638834   3.0576435
   2.1768042  21.0030198   2.3044106  28.6869502  53.2770729  59.8684168
  29.5904112  53.0283022  59.6732235  28.3508778  52.5581741  60.4036427
   0.3107923  43.6984587  34.8864341   0.8882087  44.0934181  34.2331147
  -0.5721289  43.8540125  34.5510387  59.6410847  62.1102142   8.5026640
  59.1614914  62.9210091   8.3328682  60.1252317  61.9444323   7.6937473
  63.1717873   5.1668656  10.9109855  63.8162899   5.8631122  11.0378373
  62.8481007   5.2995479  10.0200009  42.3134184  64.3320799  59.6351814
  42.8063297  65.0802088  59.9721956  42.7023888  63.5733652  60.0702572
  44.2369509   2.3074357  58.0718279  44.9138927   1.6756189  58.3142996
  43.6161661   2.2846517  58.8000727  15.1828516   8.8200837   6.2992913
  15.7187521   8.0276287   6.2667626  14.9284542   8.9746934   5.3895611
  60.9862185  24.5558882   8.2199872  60.6942463  23.7433696   7.8067094
  61.2809753  24.2892218   9.0907574  43.9336634  71.6491556   5.4514110
  43.4727621  71.0500145   4.8641872  43.6441278  72.5202942   5.1802605
  73.8609886  17.6424372   5.2038282  74.7628593  17.4735451   5.4764760
  73.5794640  18.3769667   5.7492083  57.2966003  11.2470949  41.2095690
  57.4607182  11.5964794  40.3336573  57.9682827  11.6516948  41.7585468
  60.3382969  26.5578246  25.5327654  61.1277390  26.5497208  24.9915242
  59.8243713  25.8142090  25.2178836  54.5675707  70.1194811  63.6576509
  54.5445156  70.1178503  62.7007294  54.4275999  71.0351086  63.8990402
  14.4481087  15.4816222  18.2467759  13.9832735  15.2657390  19.0552044
  14.6037221  14.6356881  17.8267634  13.9976132  59.9867296  45.8028030
  14.4199836  59.6439266  46.5904045  13.4414649  59.2698050  45.4979229
   5.5330700  16.7156518  18.5995173   4.9125102  16.0916018  18.2230866
   5.8810693  16.2708080  19.3723321  64.7185564  43.3983850  18.2207298
  65.5515003  43.0209541  17.9379046  64.8307419  43.5502052  19.1591311
  69.6226168  35.3045583  20.3503418  68.9297438  35.8808231  20.0277352
  70.2889919  35.3233910  19.6634459   8.8172174  61.2807322  56.6175890
   8.1152773  61.7693329  57.0474482   9.0272141  61.7975330  55.8397388
   4.9961898  31.9138956  34.4620037   5.7181752  31.3523459  34.1798162
   5.0558698  32.6833963  33.8958406  12.7644610  35.9629917   4.6019751
  13.0397058  36.8602109   4.7903118  13.3210063  35.4196262   5.1598668
   0.0010287   6.9819051  29.5270896  -0.3385577   6.8126321  28.6483049
   0.9509358   7.0162904  29.4142795   6.6803277  16.1853945  43.2622290
   7.3387522  15.4908705  43.2436466   6.0063249  15.8929384  42.6486969
  62.3309040  17.8245449  50.3970861  61.8277836  17.0580435  50.1221752
  62.3001528  17.8008008  51.3534975   9.7290635   5.2809364  45.0940275
  10.4580426   4.7130251  45.3436232  10.0120163   6.1594099  45.3479052
  76.8441296  41.3139439  19.4036090  76.6778469  41.6084862  20.2990580
  76.0625172  41.5749454  18.9165854  40.0177050  38.6093783  63.4790373
  39.2769980  38.0829954  63.1782007  40.7578707  38.0024362  63.4806967
   5.2812099  52.1135139  41.2906218   5.0496477  51.2898588  41.7198086
   6.0575461  51.9031954  40.7716799   8.0011749  29.6467781   6.9456011
   7.8676087  29.6940279   7.8922582   7.3434436  29.0211964   6.6418451
  26.8639612  54.9387074  58.6106968  27.0353699  55.8702612  58.7487411
  27.5452113  54.4926834  59.1138792  54.2518806  66.7479515  31.1900759
  54.4811106  66.0539818  30.5719399  53.3122110  66.6382074  31.3357043
  25.8212495   7.9823363   7.6704794  25.8190775   7.0584559   7.9208225
  26.3606143   8.4095335   8.3359289   1.5580447  58.6416388   3.8472104
   2.3315147  59.0651655   3.4749150   1.7921259  57.7147293   3.8948774
  56.7766857   9.7575730  44.5381641  56.7653465  10.7141876  44.5696688
  56.7562103   9.5484263  43.6043167  31.0698700  58.6268282  23.0741048
  30.3041363  58.6932611  23.6446047  30.7831669  59.0059805  22.2432756
   4.5187849  35.2153325  12.4582803   5.2058679  34.5524859  12.5274408
   3.7040001  34.7137427  12.4306142  48.0450487  11.7790949  54.1310215
  47.2488451  11.8726385  53.6080027  48.6333799  11.2616324  53.5811806
  35.6222820  74.5890617  19.6751189  34.9624300  74.7361946  18.9974904
  36.3903022  75.0723839  19.3705189   3.7419203   5.5840534  36.1595774
   3.8543463   6.2369746  36.8504381   3.8835806   4.7449031  36.5977454
  38.4895062  17.2709584  49.0467358  38.6538267  18.1543040  49.3767834
  38.2599020  16.7633200  49.8250771  11.8059456  34.6918845  22.4541306
  12.3001242  33.9823103  22.0436168  11.2497008  34.2546153  23.0988145
  18.9111543  26.7088628  15.9906614  19.1178882  27.5703573  16.3530385
  18.5851550  26.8916440  15.1094425  19.0956223  17.0911157  29.8360324
  18.9165986  17.6339936  29.0682673  18.3624315  17.2627580  30.4269671
  31.2483120  24.5677805  15.6608438  31.6626215  25.1769161  15.0496697
  30.3096223  24.7192121  15.5505562   6.6967398  63.6539268  17.9341447
   6.8827587  62.7158546  17.8935277   5.9723490  63.7812042  17.3215353
  73.8576698  36.5287542  46.9675875  74.3659544  36.6875887  46.1721945
  74.4468260  36.7734933  47.6811886  67.6408243  69.5371866  18.5290122
  67.0114899  70.2213287  18.7573099  67.7644873  69.0450048  19.3406141
  67.2186756  15.3476715  11.9397449  66.6926908  15.9310365  12.4867916
  66.5788651  14.7770381  11.5140033  12.7489066  25.9797406  56.6255569
  13.7026381  26.0151815  56.5522718  12.5629961  25.0818396  56.9002247
  26.8363714  59.9207687   9.5078504  26.7162752  60.8678484   9.5775211
  26.2499928  59.6564913   8.7989420  35.6514883   1.3558996  37.4381518
  35.5687928   1.6486618  38.3457232  36.0867214   2.0817780  36.9910455
  24.1268539  19.1823041   9.0994090  25.0331426  19.3595016   9.3513530
  24.1896033  18.4661543   8.4674102  65.7131004  13.1747663  11.1479652
  65.2826500  12.4667311  10.6687665  65.1601839  13.3144081  11.9167376
  10.8445740   2.8843814  46.1981726  10.7903099   3.5658735  46.8681383
  11.6173625   3.1159624  45.6830025  46.5205288  30.0690126  58.6165190
  46.2617016  30.6442404  57.8965521  46.6845655  30.6620216  59.3497753
   7.6181555   6.6909939  54.8400211   7.1739912   6.0468996  54.2885733
   7.6474243   6.2850213  55.7063723  60.8603907  45.3767109   8.3279157
  60.0498438  45.8377600   8.5439563  61.1566925  45.0100136   9.1609645
  59.3164396  64.6841192  48.8048506  58.9187050  65.0364780  48.0086803
  60.1999998  64.4296312  48.5387802  11.9866300  65.6733513  52.1904373
  11.6618109  66.5736437  52.2044373  12.9395521  65.7627201  52.1768379
  79.4764280   5.9828246  40.2954006  80.0916576   6.4496398  39.7298861
  78.6148357   6.3016731  40.0266600  72.4385595  29.1764045  26.1380768
  72.1619129  28.7302160  25.3376913  73.3928776  29.2136264  26.0739136
  61.5552450  35.8990435   0.0496910  61.7805852  36.4810423   0.7754562
  61.0096193  36.4345984  -0.5262520   8.5280973  38.3573818  17.4507749
   7.9169929  38.0289054  18.1102347   8.2823604  39.2749000  17.3324239
  69.3019295  13.1361449   2.7506167  69.4367409  13.8501501   2.1275170
  69.3566561  12.3414910   2.2198045  30.4902411  62.4713326  12.4046886
  31.3807011  62.1201801  12.4031579  30.6065512  63.4194136  12.3426557
  40.7565880   6.6993558  63.0005932  40.2740097   6.5757757  63.8179541
  41.6611004   6.4762610  63.2204103  75.5483150  63.8126183  10.5057418
  75.1900434  62.9451180  10.3178072  75.1531172  64.3829536   9.8463702
  69.5196199  18.0891347  20.3895998  69.0861988  17.3976552  19.8893678
  69.6962786  17.6927519  21.2427711  39.8372269  18.2834637  34.8945761
  38.9686990  18.6434567  34.7148633  39.9666524  18.4268844  35.8320785
   5.3338081  13.2497442  23.9761186   5.2717310  13.7560141  24.7860980
   6.0477853  12.6320255  24.1338897  39.3485832  73.3710814  22.7354240
  38.9024568  73.1747770  21.9116139  39.4214725  74.3254328  22.7468371
  21.8828797  30.2776194  29.3364739  21.3323331  30.3789663  30.1129127
  22.0280099  31.1718416  29.0273857   9.3755525  19.6346104   9.9504024
   8.4906250  19.9957454  10.0025249   9.8452175  20.0459242  10.6759834
  77.2462463  19.2747951  23.5868335  78.0316687  19.5866776  24.0363550
  76.8986511  20.0501871  23.1461787  12.0917499  47.0552969  30.2556109
  12.2628415  47.7652121  30.8744669  11.6528320  46.3833904  30.7772684
  52.5394869  26.4603639  14.2933166  51.6163254  26.4166665  14.5425010
  52.7133036  25.6197309  13.8698101  76.2792540  42.1172237  24.2212558
  75.8648300  42.7684498  24.7872901  75.7882118  41.3117361  24.3834257
  70.8619738  25.6141782  38.9288116  70.2399158  25.4853153  39.6448207
  71.3688850  24.8026323  38.9029598  72.8933620  39.5531344  23.3866024
  73.5352182  39.3156505  24.0558219  72.2085476  38.8889861  23.4651542
  29.0782619  62.5116730  47.2661161  29.1964316  63.1699800  47.9508781
  29.9349737  62.4489021  46.8438196  74.2316675  33.4368181   6.7691678
  73.9740038  33.3580375   7.6876640  74.0522194  34.3505669   6.5475959
  37.0314789  69.6995831  58.8487625  36.7434788  69.2418051  59.6385241
  36.3205242  69.5661783  58.2218838  58.2306719  18.9634609  43.1024456
  58.6036444  19.2025721  42.2539473  57.3236942  18.7276304  42.9075050
  20.6834078  71.5041637  49.6554756  20.3506851  72.2382832  49.1391468
  19.9190319  70.9460402  49.7985125   1.3727252   8.0350852  15.4328465
   1.5348811   7.5159121  14.6451938   0.5580594   8.5024542  15.2481353
  41.7941189  21.5330458  63.6003304  42.6281404  21.8946242  63.3004856
  42.0375347  20.7605100  64.1103983  63.8001633  37.2700000  53.0169344
  64.6370411  37.2824478  53.4813881  63.9503813  36.6929913  52.2681189
  71.0747766  22.8598642  22.7944565  71.7701912  23.4236193  22.4556208
  71.2008810  22.0257688  22.3421097  13.6064887  48.5386086  40.3453064
  14.0483785  48.8717651  41.1263180  13.8897288  49.1230965  39.6421838
  12.4366379  42.9177904  61.1421680  12.1809256  42.3589277  61.8760014
  11.6075718  43.2029724  60.7580423  34.4631516  34.5512294  64.8282435
  35.1884734  35.1743697  64.8711019  33.6817252  35.0823306  64.9816488
  67.8814697  52.6726913  44.3665409  68.2566738  52.7512598  45.2436256
  68.5667753  52.9980898  43.7828398  16.1519849   5.3152192  53.0204916
  16.3980663   5.3805304  53.9432096  16.0408425   4.3767878  52.8680897
  57.4953890  47.1923828   0.7531864  58.2313013  47.5584364   1.2437704
  57.8925276  46.5381527   0.1782978  35.7619333  38.6830497  62.4449968
  35.8214688  39.0912509  61.5812492  35.0339484  39.1335559  62.8731489
  67.2975254  11.4695692  40.1268721  67.2163916  11.5053606  39.1737914
  67.9719591  12.1163690  40.3342962  12.3149908   5.5223930  10.9948933
  13.0729568   5.5292368  10.4103661  12.6905847   5.4654402  11.8734813
  38.1782174  70.2057266   4.4181883  38.3730817  71.0734797   4.7721145
  38.5153937  70.2310467   3.5226980  75.1105070  64.5424843  33.3700228
  75.8414412  63.9537191  33.5579681  75.5034781  65.4151821  33.3557582
  74.6673203  11.4853883   9.7868448  74.1122150  11.8822753   9.1156012
  75.5103731  11.9289923   9.6934921  53.4768534  11.5494037  49.2467976
  52.7017355  11.1339319  49.6246958  54.1188002  10.8425546  49.1797066
  54.9975395  63.4172964  15.7450068  55.1978397  63.0426979  14.8872256
  55.8422232  63.4531927  16.1938453  53.0020332  69.2965984  12.6190877
  52.1677828  68.8963509  12.3740149  53.6437750  68.8870907  12.0388281
  28.5101175  65.0674582  52.6890326  28.7637734  65.8960152  52.2823572
  27.9226971  64.6586180  52.0534086  25.0123096  48.0395126  31.4743114
  25.4640245  48.8541174  31.6947865  24.7436523  48.1537771  30.5627203
  42.7231073   6.7888618  24.0313315  42.9638004   6.1909008  24.7389627
  41.8734932   7.1422511  24.2949581  67.2128820  21.5670371  27.2101116
  67.8569508  21.1581540  27.7882314  66.7279863  22.1662760  27.7775812
  10.1902151  18.0551124  22.1775627  10.6530976  17.4845743  22.7911258
  10.6495917  17.9357243  21.3463283  37.8036046  54.3771982  23.7678003
  37.0061660  54.2888737  24.2898369  37.7203321  53.7082434  23.0882454
  34.7513890  31.4531207  25.2343774  34.2022371  30.7079911  25.4781842
  34.6302104  32.0826769  25.9451556  72.4881077  47.7938509  29.4968057
  72.4341869  46.9435215  29.9329948  71.6201019  47.9222965  29.1143084
  53.6485291  62.8015041   7.4245447  54.1948462  62.2629547   6.8520677
  53.9826965  62.6302528   8.3050191   3.2466871  43.0079699  31.0072947
   4.2014927  43.0290079  31.0715985   2.9879335  42.2503376  31.5319562
   1.0998282  68.9773750  12.7143157   0.2958139  68.4918594  12.5297427
   1.0745959  69.1324043  13.6585402  45.1424313  24.7310972  13.5360110
  45.3339291  24.9547410  14.4468045  44.2978477  24.2820930  13.5721254
  26.5955544  37.1512961  21.0021138  25.7141781  37.3535800  21.3159442
  26.6885376  37.6664066  20.2007103  57.5676012  24.5320320  63.4757710
  57.1074772  24.7394609  64.2890930  57.8556442  23.6261106  63.5878897
   3.1580690   1.3230272  63.7611866   2.7908698   0.4940611  63.4542465
   2.5751641   1.9912562  63.4007406  33.0027056  72.9491568  59.2077398
  32.6709747  72.4811172  58.4414959  32.2224927  73.1390047  59.7287560
  71.0272169  37.1513820   5.1411396  71.0817099  38.0036497   5.5734617
  70.4024744  36.6544127   5.6693006  76.0031652  47.7332735  52.6670218
  75.5662966  47.4246979  51.8731976  76.8832731  47.9741430  52.3778439
  22.4427676  13.6428034  25.3934455  23.2461953  13.2585371  25.0426292
  21.9907880  13.9945960  24.6265101  29.6868610  12.7704751   8.9801174
  29.1171575  13.5037589   8.7478149  30.5542040  13.0344045   8.6730510
  55.5531549  51.9122791   2.8286543  55.1816273  51.7651606   1.9588543
  54.9800587  52.5678682   3.2261425  50.0132418  68.8816214  13.6724889
  50.1516628  68.2047606  13.0099702  50.6093502  68.6463070  14.3834853
  18.5431719  73.4754133  23.4560871  19.4104207  73.6687326  23.1000829
  18.6909354  72.7550650  24.0688658  69.9428225   7.3952311  17.2229445
  70.1349735   7.2221971  18.1445563  70.3257275   8.2564878  17.0560527
  53.3119965   7.4999243  11.9340837  52.5165558   6.9759852  11.8392587
  53.8975763   6.9535851  12.4583352  51.5811777  56.3336325   9.3174136
  52.2901392  56.5420723   9.9258190  51.4481783  57.1401072   8.8192755
  74.4397116  29.4222999  62.3612833  74.2120743  28.5988784  62.7930117
  73.6228752  29.7144341  61.9567347  30.9511042   9.1239345  20.7956362
  31.2601614   9.9375319  21.1941004  30.8892989   8.5080403  21.5257645
  15.9894252  10.4711127  38.7465191  15.0499535  10.6479323  38.6979485
  16.0547006   9.6596497  39.2500043  18.1290257  38.6694026  59.2809010
  18.0102682  39.4097519  58.6859083  17.2431076  38.3411193  59.4345570
   8.1495177  18.9555835  65.2062990   8.2957804  18.2820892  64.5420380
   7.5554883  19.5790958  64.7884571   4.3454909  22.4866247  33.2807398
   4.8597708  22.9205847  33.9614940   3.4351879  22.6420259  33.5325980
  50.0743675  28.5632753  15.3127754  50.0914478  27.6139045  15.1918042
  49.2082071  28.7425590  15.6786418  28.0890274  15.2359045  55.3105593
  27.4469280  14.5367277  55.1877213  28.9361477  14.7913384  55.2792501
  28.1133676  42.0249367  25.0109673  28.9086151  42.5427055  25.1363635
  28.1514311  41.7451906  24.0963483  63.6644840  43.2688189  64.3524837
  62.7277660  43.3254814  64.5411062  64.0668011  43.9048958  64.9439001
  39.1276884  45.4063940  12.3128569  38.9723706  44.4676256  12.4168837
  39.4944119  45.4924250  11.4328885  34.4888568  65.2663803  13.0215526
  34.5165730  65.2930784  13.9779794  35.2851295  64.7975111  12.7718616
  14.2013478  35.0816536  57.9812336  13.7543559  35.9265924  58.0313110
  14.9474549  35.2393126  57.4027014  30.1993394   2.2228506  29.9209404
  30.3442216   2.8154308  29.1833162  29.3356347   1.8439181  29.7576833
  60.5414104  47.1481228  64.6837568  61.2362909  47.5136375  64.1362429
  61.0014772  46.7649984  65.4306078  29.8096251   8.5857779  54.5541620
  29.5545626   7.9149812  55.1875687  28.9823747   8.8884348  54.1796112
   5.5559951   4.5115247   7.8317231   5.4576260   3.7243867   7.2960287
   5.1719761   5.2107728   7.3027492  70.4272985  72.9047441  19.5902264
  71.3589001  72.8745270  19.3724346  70.0928736  73.6606407  19.1075087
  64.5787954  24.2355299   7.9044569  64.8355722  24.3972826   6.9966388
  64.6378994  23.2854009   8.0044246  63.5001040  69.0875340   2.4133305
  64.0009356  68.4795618   1.8694815  62.6711845  69.1983318   1.9476660
  65.1257992  69.6611977  29.9390578  65.0404596  70.2523756  30.6870246
  66.0396004  69.3771172  29.9613404  45.4036140  20.7879734  13.3165669
  45.5565596  20.5015779  14.2170203  46.1384821  21.3697076  13.1221688
  69.3521595  16.5164506  32.5456500  69.4772577  15.8970523  33.2646275
  70.2124977  16.5787137  32.1307206  26.5036987  47.7497085  65.1931461
  26.0092377  48.5631545  65.2933673  26.1821770  47.3733719  64.3738611
  73.8986492  56.2974548  28.7287784  73.6962318  55.9122038  27.8762293
  73.3937025  55.7763577  29.3530512  39.7320294  41.2836838  64.3705797
  39.8717880  41.5431070  65.2812958  40.0284910  40.3743505  64.3323803
  17.7943754  13.6191654  57.1468592  16.9581473  13.1656587  57.2530985
  18.4149170  12.9270065  56.9186544  40.1496506  34.6152043  63.8390303
  39.4248366  34.9585795  63.3165646  39.7441316  33.9659357  64.4136953
  68.6118460  43.8026190  52.1504974  67.6958084  43.6946344  52.4063253
  68.9659119  42.9133224  52.1467638  47.1766329  15.8743823  15.5851805
  46.5120792  16.2343585  14.9977970  47.8117180  15.4585314  15.0021136
  70.5914402  17.8067756  57.7713680  70.5002308  18.4649622  58.4603548
  69.8178720  17.9276657  57.2207212  79.0937281   5.5127025  20.5375957
  79.1715431   5.7187200  21.4691162  79.9255514   5.0950021  20.3143740
   2.9768226  28.0037665  43.7762594   3.2955766  27.3376656  44.3853045
   2.2941124  28.4659386  44.2626095  19.5645249  30.6040287  56.3843822
  19.0513790  29.9670458  56.8815374  20.1720095  30.0727916  55.8696175
  13.1386566  72.9159689  55.4970360  12.2585332  72.7223921  55.1743221
  13.0131376  73.1296539  56.4215994  27.1182609   7.4545562  61.3421965
  27.3027229   6.7541409  60.7163954  27.9520249   7.6027924  61.7883968
  10.8242881  42.3016262  42.4429750  10.7704294  41.3653755  42.6347065
  11.7554784  42.4615002  42.2894955   2.0347950  53.1455135  16.5154815
   2.5452903  52.8004742  15.7829702   2.1545395  54.0938616  16.4652038
  57.4552584  55.3196859  17.1923470  57.0949268  56.0314322  17.7213228
  57.0854950  55.4584074  16.3204169  71.0913420   2.8371459  61.8124342
  71.5356970   3.4798139  61.2594843  70.1780891   2.8664702  61.5272284
  12.4426258  73.7266064  45.8682013  13.0802441  73.3397913  46.4682436
  12.3148131  74.6168566  46.1958408  48.8509130  63.4171820   2.5252473
  47.9605532  63.2194233   2.2347711  49.2217112  62.5658417   2.7575433
   5.4677063  70.9398270  15.9454572   5.1192486  70.4795551  16.7089772
   5.2848339  71.8633318  16.1184430  31.7604041  35.0508142  57.8964329
  31.0121703  35.1545525  57.3085403  31.3764691  34.7606301  58.7238503
  -0.0242500  23.6583161   7.6782715   0.1724685  23.4009409   6.7775548
  -0.1228477  22.8301048   8.1479269   8.9478719  24.8464370  57.0918751
   8.1137699  24.6262574  56.6771126   9.1219777  25.7465386  56.8166685
  28.5102367  66.5288258   2.7548045  28.7833118  67.2528172   3.3182716
  29.3121672  66.2571859   2.3083159  31.3005900  24.5011616  49.4597244
  30.9720945  24.6201992  48.5685730  32.2503972  24.4389820  49.3585682
  16.8110192  22.4723482  60.2536631  15.9729588  22.8852987  60.4618883
  16.5977204  21.5477371  60.1278448  28.4727168  23.4066224  48.2492208
  29.0941429  23.0633640  47.6071644  27.6693177  23.5537100  47.7500677
  71.6087866   3.3221334  48.1602478  70.8552122   2.7639195  48.3519650
  71.5860271   3.9966795  48.8389969  18.9483964  28.2782745   5.4978395
  19.3566346  27.5247121   5.9241217  18.0318904  28.2407546   5.7714117
  12.5566471   4.8333102  35.2337337  11.8640864   5.1920706  34.6788597
  12.0978069   4.2642033  35.8516455  31.8415451  46.1243200   0.8508009
  32.6967716  45.7830954   0.5892961  31.9660306  47.0722294   0.8977477
  67.0201921  12.2931767  64.4673061  67.7575827  11.7071044  64.6376228
  66.4291716  11.7804885  63.9158773  23.0853868  68.7460756  28.9569116
  23.8674498  68.3450699  29.3361235  23.1737328  69.6782017  29.1558385
  27.7349925  24.9383998   2.3773701  27.2518039  25.7645535   2.3924886
  27.3770785  24.4381428   3.1107685  42.0203066  67.8572226   4.3729126
  41.5236187  67.6141262   3.5916057  42.1662331  68.7987232   4.2806408
  32.8572512  14.3478703   0.5764917  32.3244667  14.0322351   1.3063869
  32.3725390  14.0839195  -0.2055665  22.8923035  43.5251665  11.1748052
  23.6734772  43.1125593  10.8063543  22.1620560  43.0315256  10.8015966
   4.8257500   0.0181774   2.5113046   4.0206439  -0.4989382   2.4862957
   4.5630652   0.8516124   2.9019538  72.5974464  45.5159664  30.6952095
  73.5273933  45.4308462  30.9054089  72.1452427  45.2183390  31.4846158
  40.2953339   8.3446491   7.1464789  40.4770136   8.9155543   6.3999587
  39.4647384   7.9219359   6.9281709  46.8259382  56.7717791   2.1593073
  47.6620245  56.3978386   1.8811736  46.2258530  56.0263777   2.1818464
  78.4552288  69.2805099  35.9351563  77.7492476  68.7016153  36.2227345
  78.9606094  69.4546652  36.7291903  16.2474823   8.0454946  40.0045776
  15.8824873   7.3366940  39.4748521  17.0364070   7.6703018  40.3958082
  24.7952390   4.9905449  61.1487246  25.6162310   5.2332425  60.7205915
  24.7284555   5.5870897  61.8943167   4.8012254  22.3527479  43.9581776
   4.6553096  22.5281835  43.0285740   4.5635825  23.1699300  44.3963242
   6.9121748  30.3169632  37.1014571   6.6891176  31.1396384  36.6659284
   6.9561177  30.5421734  38.0307484   2.4931417  29.2047501  55.0329685
   2.1161640  29.8750377  55.6029081   2.7874303  28.5187459  55.6321526
  10.3570926  62.3969698  64.0382147  10.5108631  63.3350086  63.9256430
  10.4435658  62.2514534  64.9803305  21.6196132  12.6257062  62.9759741
  22.4411559  13.0116439  63.2798767  21.7950463  12.3716831  62.0699263
  63.0632496  68.4829426  11.7194474  63.9898634  68.7157011  11.6607678
  62.6006365  69.3153811  11.6231632  50.4892683  24.3281198  46.3605499
  50.7735777  24.4532609  45.4551554  51.2510014  23.9511228  46.8008566
  65.3391743  42.9041290  56.1258030  65.1769352  41.9794655  55.9389830
  64.6181536  43.1625891  56.6998720   1.2076183  13.7092662  12.7539062
   0.9354474  12.8962767  13.1795871   1.0417180  13.5594702  11.8231702
  69.3634415  15.2845109   1.1455164  69.3997574  15.5642354   0.2308211
  69.1399431  16.0790551   1.6302648  28.3240962  32.3763061  44.7671461
  28.7255216  31.5223980  44.9281788  28.6287570  32.6233530  43.8940001
   5.2871215  59.6466541  63.8152409   4.6188998  60.3021288  63.6150837
   4.9296114  58.8276720  63.4721899  71.3470459  43.9322615  56.7970085
  71.1735058  43.1839705  56.2258959  71.3610649  43.5618401  57.6795197
  56.6944027  65.8308697  25.9017587  57.1783352  66.6549110  25.8470345
  56.1163235  65.9422636  26.6565037  51.3231039  67.3390436  11.8762779
  51.0036945  66.4451933  11.7528224  51.9971466  67.4473333  11.2053287
   5.6901121   8.3288330  52.1580696   5.9350067   7.4073321  52.2422934
   6.2373579   8.7817007  52.7996778  34.6596217  45.0875759  11.4681637
  35.0369120  45.6974888  12.1021104  35.0254822  44.2361641  11.7079151
  77.5938559   3.4411943  54.5458078  78.2623625   4.1261637  54.5336580
  77.3884726   3.3233923  55.4732609  11.0404432  42.5177479  38.4194493
  11.5249717  41.7337132  38.1610918  11.7150187  43.1844234  38.5487843
  36.4236021  18.2850182  57.6950407  36.5085530  17.3581600  57.9185295
  36.2458658  18.2892883  56.7544937  78.6201334  51.6491079  40.8992529
  78.9598608  52.4531746  40.5064583  79.3255901  51.0117245  40.7883263
  72.4529505  19.9030578  59.9327374  72.1278048  20.6649590  60.4123449
  72.3343372  20.1318288  59.0108776   3.8610268  74.2269754  10.0695777
   4.0933603  73.3881998  10.4679585   3.4213462  73.9906073   9.2528504
  76.0015965  17.9594946  43.9201498  76.1528969  17.2367871  44.5292759
  75.2176380  18.3948231  44.2549992   0.6022033   1.1568203  47.2337532
   0.8321275   0.2490307  47.4319601   0.0069185   1.0954833  46.4866924
  46.9905186  51.0771465   7.2989959  46.5386486  50.9317112   8.1301963
  46.6700363  50.3798103   6.7269391  25.5576992  57.3893166  11.5951502
  25.3607440  58.0775928  10.9597659  25.0704789  57.6410389  12.3796785
  16.0565233  18.5013044  38.0893826  15.5054724  19.0967250  38.5973692
  16.1974514  17.7524543  38.6686873   7.4027354   1.5279023  23.5899639
   8.2245392   1.3879836  24.0603828   7.2842389   2.4777371  23.5921311
   7.2576678  65.5901766  21.6456175   7.3320895  66.5247917  21.4527869
   6.3964409  65.3438425  21.3082194  74.5669889  41.4303064  59.6195126
  74.3958807  41.7968893  60.4870224  73.7242079  41.0726833  59.3401289
   5.8251148  72.3009396  56.0983086   5.1783788  72.7699804  56.6255283
   6.5095913  72.9478979  55.9275293  76.0567141  17.7031124   9.5028514
  75.9697104  17.9566300   8.5839444  75.6662560  18.4289753   9.9895728
   9.1131538  15.2634060  20.4373026   9.6607327  16.0333478  20.5908561
   9.4688636  14.8717511  19.6396124  75.7296371   0.2265551  16.7391419
  75.7173538   1.1836201  16.7287660  75.1873159  -0.0118008  17.4910080
  65.3108406  69.7321177  60.0300074  64.5610571  69.6322107  59.4434309
  65.3346682  68.9158726  60.5294180  13.7711453  19.6168160  55.0814629
  13.8125241  20.5647898  55.2074194  14.0861297  19.2513776  55.9081841
  21.7677593  65.9187698  33.8446379  22.4252558  65.6713820  34.4948149
  21.6239882  66.8533993  33.9930367  67.7616644   7.0987910  60.3043795
  67.3262835   7.8150398  59.8421431  68.6461592   7.0804995  59.9389124
  45.5591011  43.2659578   7.2733271  46.4601755  42.9619169   7.3822218
  45.0353098  42.4648285   7.2653711  60.7041359  65.9581852  56.8904924
  60.5342102  65.6563663  55.9981585  61.6253424  66.2181187  56.8840742
  19.0823221  44.3992281  63.8220787  18.2152164  44.4703960  63.4229612
  19.2519999  43.4579515  63.8600206  59.5259094  45.1920176  13.0743313
  59.9920416  45.3002596  13.9033282  60.2055311  45.2726221  12.4051142
  11.4498162  27.4098778  51.2522697  11.9763720  27.5109673  52.0452118
  11.1363196  26.5061188  51.2865400   9.2301100  34.6065712  57.1192551
   9.3597299  35.5029750  57.4289227   9.7962111  34.5344257  56.3507795
  18.4095347  59.2496252   5.5800086  18.7594378  59.5212030   4.7314537
  19.1845930  59.0777111   6.1147612  73.3543158  15.9390092  17.9340005
  73.9902639  15.3880370  18.3903253  72.5660515  15.3988850  17.8779900
  77.6566601  24.9340129  54.5154381  77.6953554  23.9793706  54.5737171
  78.4218597  25.1732564  53.9925003  10.6248355  45.5364990  45.8284426
  11.2351859  44.9122000  45.4360723  10.6731403  46.3067961  45.2622795
  75.9021521  18.7724233  57.8092623  76.0488319  19.4954336  58.4191608
  75.2181625  18.2455158  58.2224894  66.8749094  74.7927999  54.7742653
  66.9447184  74.5624781  53.8478184  66.4270639  74.0469170  55.1734161
  74.5247316  30.4120064   4.0241548  73.9289093  30.8073330   3.3878040
  74.2709970  29.4893765   4.0488267  24.0521264   4.5617718  46.6322374
  23.2049251   4.7390616  47.0409536  24.6329641   4.3557596  47.3646450
  19.0161741  67.9378939  55.9697294  18.9493787  67.0075655  55.7546377
  18.4430575  68.0501270  56.7281294  34.2522025  20.3373432  31.6043878
  33.7483931  21.0029268  32.0727944  34.3205070  19.6096301  32.2224498
  21.4832258  54.4557524   2.4088803  21.0858631  53.8217354   3.0058384
  20.8526540  55.1747799   2.3687562  62.9936695  43.9946699   1.5465727
  62.4531651  43.2376385   1.3207677  63.5871792  44.0957212   0.8024149
  28.1127334  59.9786997  59.2459869  28.2402158  60.6461000  58.5717821
  28.3289909  60.4223728  60.0661230  75.8309317  71.6431856  61.5300798
  75.4037666  71.6896820  62.3854113  75.1437044  71.3431931  60.9351397
  39.0698886  68.0738640  54.5355654  39.1047430  69.0300751  54.5096302
  38.1457639  67.8717566  54.6817923  75.0011683  51.8804407  11.8952155
  75.1197958  52.7796221  12.2011971  74.2269516  51.5682411  12.3635626
  51.9411373  41.0152674   8.1433564  51.9409227  40.0747585   8.3213192
  51.3002634  41.1262941   7.4410820  55.9598923  64.9734068  29.5560384
  55.6101990  65.1524925  28.6831832  56.8990135  65.1407337  29.4767833
  45.6065035  11.0557389  30.4255962  45.4734945  10.1625025  30.7428789
  46.2872648  11.4134765  30.9955311  62.0106888  51.7357635  46.5883780
  61.8410587  50.9463787  47.1025133  62.9647446  51.7795324  46.5244341
  41.8562365  65.5183363  15.2666557  41.2083483  64.8583746  15.0198328
  42.6545858  65.0183821  15.4366946  26.3286304  10.5160785  14.4304228
  27.1930885  10.4353309  14.0274024  26.4296317  11.2158024  15.0757265
  68.7163782  23.8532090  53.7052536  68.2463264  23.2636762  53.1155682
  68.0306864  24.3860912  54.1078711  49.0687275  52.5496721   0.9558622
  49.5497942  52.1591520   0.2262734  48.5151911  51.8412018   1.2843348
  78.3902931  63.8129091  10.7556963  78.7733459  63.7464571   9.8810029
  77.4538469  63.9337349  10.5985260   5.9028006  41.2035751  20.7781386
   5.0844216  40.7114267  20.8435464   6.5700197  40.6043959  21.1128521
  34.8309088  20.2552223  59.3103838  35.6013131  19.6936977  59.2243576
  34.3904686  20.1890254  58.4631157  24.0726662  68.9925337   6.2420762
  24.0703058  68.3351374   6.9378185  23.1498194  69.1017103   6.0125852
  10.9746110   8.5207695  63.8742447  10.5997014   7.6406562  63.9070177
  10.9658670   8.7503815  62.9450321  14.4396687  47.7086306  53.6860323
  13.6980021  47.3516703  53.1974173  15.0982618  47.8974915  53.0175829
  62.3281717  71.0928679  10.7693017  62.4571514  71.3569736   9.8583442
  61.9785881  71.8740654  11.1979628  23.2680988  17.4527907  61.4137316
  23.7152338  17.4581337  60.5674028  22.6202202  16.7522645  61.3379097
  73.5090876  38.7307954  31.7109513  72.6810598  39.1988897  31.8181300
  73.4811544  38.3969116  30.8143067  32.3854756   2.3314992  34.7996974
  32.9238391   1.5405127  34.8268580  31.9896340   2.3219976  33.9282346
  12.3124635   5.1783168  57.9587936  12.0204222   4.2912078  57.7490807
  11.9185710   5.7268035  57.2803831  48.5970306  10.1628375  27.8856921
  49.1928434  10.5213940  28.5434747  48.7794495   9.2231822  27.8841305
  13.8966298  34.8911691   2.0317867  13.6121154  34.4145846   1.2519456
  13.0829990  35.1619053   2.4571560  12.3961234  26.1737895  16.2811816
  12.9600060  26.6493535  15.6711757  12.4952245  26.6393995  17.1116149
  40.0871277   5.4572594  45.1498699  40.3862762   5.5245191  44.2431068
  39.9872088   4.5172033  45.3000116  51.5290928  56.0177040  19.9594557
  51.2011576  55.2491188  19.4925857  51.8304634  56.6072893  19.2682266
  25.6981015  54.6131802  10.7810485  25.5211902  54.7247839   9.8469836
  25.2377677  55.3400612  11.2005317  43.5328197  15.9487569  59.0517521
  44.2806721  15.3886366  58.8438654  42.7875090  15.5184817  58.6326981
  77.3809481  34.4269276  48.2422686  77.8451490  34.8695731  47.5317669
  76.8615055  35.1167178  48.6553144  41.6232252  14.4932365  38.5424876
  41.1190748  13.7210488  38.2859921  40.9616566  15.1456332  38.7725735
  68.5686731  62.3259544  61.7518044  68.6447191  63.2783842  61.6941357
  69.3584585  62.0503569  62.2171211  41.6402435  74.0525866   9.9437958
  42.1735430  73.2850790  10.1505566  41.7289019  74.6193266  10.7100713
  15.0744593  51.7432880   6.4061880  14.6139932  51.4630985   5.6151789
  14.4243586  52.2468853   6.8960768   2.1798798  47.0755863  30.9800243
   2.8543869  46.8531275  30.3383183   1.3743447  47.1426344  30.4673362
  33.0555344  26.5475941  52.3183966  33.3228183  26.7481470  51.4214182
  33.8069487  26.8009090  52.8545332  53.4559870  12.2986615  33.8590288
  53.8170671  12.2661853  34.7449183  54.0900612  11.8209314  33.3242822
  59.0586805  21.9331193  25.7516336  59.2078829  21.4185762  24.9584007
  58.3176470  21.5041518  26.1795259  50.9296083   9.2333174  24.3438840
  51.4443731   9.9139863  23.9103651  50.0195360   9.4771087  24.1748691
  50.6496382   4.3012670  15.7427418  51.4536285   3.9422530  15.3673232
  50.9325409   5.0905764  16.2044644  66.2944269   2.3286359   4.6315718
  65.8951569   1.4656226   4.5219100  66.5520954   2.5875038   3.7467983
  61.7554617  54.8252106  21.6934919  61.6316271  55.3835487  20.9259272
  61.0892820  55.1202631  22.3142815  12.1017134  57.1488667  57.3332357
  12.6392472  56.5023136  57.7906799  12.5707293  57.3148203  56.5154839
  43.5778952  48.6365986  17.2373664  43.8771057  48.1643724  16.4603806
  44.3715572  49.0323257  17.5975502  38.1177950  18.1563306  54.7544575
  38.5894632  18.3132958  55.5724573  37.9429889  19.0310013  54.4071436
   2.7757931  64.4490290  57.1663189   3.3297664  64.9470377  56.5652084
   2.6845682  65.0152016  57.9327106  76.7616320  68.0125904   8.4398842
  76.9870949  68.8362503   8.0074626  77.5889492  67.5336933   8.4892344
  43.3416033  27.3397875   4.9763361  42.3956203  27.2195530   5.0593233
  43.6940384  27.0558143   5.8197695  42.9049969  23.5558200  59.8069525
  43.3638954  22.8760648  59.3134165  43.0448532  24.3555975  59.2999697
  63.7198448  22.8495455  19.2728627  63.3832121  21.9546604  19.2271280
  62.9392910  23.4016991  19.2270875   1.8850462  64.0033245  15.1774251
   2.2316918  64.8853254  15.0427306   1.0237769  64.0181446  14.7600198
   6.3705611  73.5825539  13.1555188   6.0572296  74.4667721  12.9652226
   5.9318000  73.0288029  12.5097001  14.3592334   8.9642954  46.1319494
  13.9655244   9.3936777  45.3724384  14.5976174   8.0923015  45.8172560
   6.5079081   4.0548912  24.5387459   6.6648370   4.6280244  23.7883282
   5.5809772   4.1772208  24.7438455  25.4006767  67.1535254  17.6944184
  26.2945914  67.4945545  17.6653183  25.3343892  66.7279577  18.5492468
  34.5924520  35.0090575  58.6248779  33.6392379  35.0812459  58.6738920
  34.8337436  34.4957900  59.3959570  11.3397801   3.7788987  54.3733072
  11.8187428   4.1433030  55.1176453  11.5117610   2.8382066  54.4151688
  77.8535748  11.1887324   6.3721639  78.4382725  11.8803799   6.0623497
  78.2173729  10.9288383   7.2185320  77.7238131  23.9468813  23.3717704
  77.4562788  23.1599879  22.8969479  77.7952147  23.6638737  24.2833853
  69.1672325   3.2128710  42.6376724  68.6597824   3.9205182  42.2402239
  69.0034246   2.4556784  42.0754814  64.7532034  14.2525899  25.2935052
  64.6106052  14.9890327  24.6989059  63.8940859  14.0891016  25.6826282
  18.9159691  23.2222390  43.7551689  18.0047500  23.1885695  43.4640026
  19.4271863  23.0711126  42.9601574  74.2419672  56.2271309   8.7427503
  73.3182955  56.4558649   8.8463920  74.3144894  55.3486252   9.1158473
  12.3455143  35.9580088  42.7143908  11.6549730  36.5910435  42.5177908
  12.8711319  36.3802338  43.3938646  65.5636692  70.1552439   0.4034592
  66.2065506  69.4602299   0.2624023  64.7357082  69.7801447   0.1034347
   8.7614286  41.8653345   2.6051232   8.8100117  42.5353241   3.2870215
   7.9050624  41.9987535   2.1988378  68.4233856  22.0915079  15.3787243
  68.3682680  21.5021300  16.1309385  67.8512907  22.8244185  15.6062770
  39.5933843  56.9156981   9.5775431  39.5610023  55.9593105   9.5550919
  39.5225215  57.1360064  10.5063450  74.5226669  38.0145240  13.1895399
  74.9897909  38.5262847  12.5291407  73.9475203  38.6470628  13.6200428
  28.9016223  36.8055677  56.5031624  29.4924974  36.2555432  55.9887981
  28.0315089  36.6157818  56.1522818  16.9100964  28.7314916  60.7770348
  16.4949894  29.5823765  60.6359291  16.7266440  28.2398009  59.9765253
  47.6213455  23.7354350  13.1836832  46.7839050  24.1971135  13.2257855
  47.4575138  22.9949331  12.5996888   1.9265103  72.3749113  16.9697142
   0.9755818  72.4723053  17.0195258   2.1841399  72.0882654  17.8458953
  67.4139595  28.7314892  15.3499055  67.1399307  29.4652963  15.9000552
  67.6287413  29.1311598  14.5070732   6.5966505  33.4678817   3.0953497
   7.0607793  32.8553939   3.6660305   5.6867146  33.1715035   3.1155697
   1.1383577  64.0736294  21.3873410   0.9151997  64.9953604  21.5171123
   0.4101501  63.7205648  20.8761764   9.3985242  20.0273967  52.1880960
   9.9057323  19.5655453  52.8556776   8.4913164  19.7743273  52.3588657
  50.3523540   7.3439389  27.2196460  50.7213688   7.7398205  26.4301276
  50.5980682   6.4206183  27.1618986  -0.1588365  58.6796713  38.6187959
   0.7762648  58.4754181  38.6286998  -0.3978985  58.7524557  39.5427990
  64.5225906  56.9236279   3.6262363  64.4944620  56.8246412   4.5778885
  64.6281576  57.8646469   3.4863308  53.4997463  67.1002531  10.0999928
  54.0350914  67.8609085   9.8740822  54.0140867  66.6322136  10.7577384
  66.4107370  61.9517040   4.1006404  65.5407715  62.3061085   3.9168307
  66.8923998  62.0619774   3.2808405   5.8481628  14.5010412  21.5559626
   5.8308303  14.3371153  22.4988627   5.9665585  13.6355948  21.1645341
  10.1212370  24.5021081  21.8705940   9.5301539  23.9126921  21.4021468
   9.7849554  25.3782153  21.6819692  77.6877737  38.1757641   5.5919963
  77.9379702  37.8974414   6.4730006  77.5409842  39.1183186   5.6712240
   4.0753746  46.1806393  33.0255198   4.4768399  45.4305744  32.5868177
   3.6091650  46.6438103  32.3295689  18.5008657  45.8469105  26.7832851
  19.0437794  46.5944719  26.5330291  18.8855016  45.5351305  27.6024795
  24.8647714  22.8525972  60.2116013  25.0209045  23.7525368  59.9253082
  24.7179675  22.9233789  61.1548281  70.7928658  31.2852240  21.9625425
  70.1077032  31.8871808  22.2531176  71.6027498  31.7898560  22.0378232
  55.7439089  16.4539444  12.7349675  55.9585094  17.2276843  12.2139072
  54.7916794  16.3794661  12.6721847  47.4210119   0.1386809   8.8148361
  47.9882479   0.7291919   9.3105936  47.3050547  -0.6192400   9.3878472
  11.7258275  11.5992033  50.1384592  10.9581304  11.7480075  49.5864344
  12.3778069  11.2246728  49.5461035  37.7903247  53.5731125   5.7589239
  38.2779121  54.1122389   5.1361614  36.8839264  53.6155987   5.4541796
  54.3640852  67.6849508  15.6258488  54.1151237  68.6079073  15.5768549
  55.1633310  67.6243687  15.1026189   7.5795829  18.9231098  38.6810374
   7.3317850  19.5138359  37.9697919   8.5305679  18.8439226  38.6062813
  18.7303221  36.0471988  55.3458691  19.0239906  36.6425276  54.6562481
  19.1008019  36.4108944  56.1500454  54.3605566  52.9506826  25.0464821
  54.1880178  53.3902454  25.8790946  53.5815334  52.4164438  24.8917413
  76.8949270   8.7203318  46.7699671  76.2826395   9.1360837  46.1629295
  77.7468300   9.0938544  46.5441942   2.9556214  23.9497375  65.0106332
   2.4565994  24.0847825  64.2050463   3.0712211  23.0010747  65.0645796
   1.4354023  39.3289566  53.0882740   1.3624579  38.5254169  53.6032867
   1.5752019  40.0179338  53.7378883  14.7847414  53.2419348  61.0297585
  14.8517740  52.7006197  60.2431679  14.8847377  52.6247025  61.7545033
  76.1185122  29.3983459  51.1886454  75.5350828  29.8253512  51.8159485
  75.5300331  28.9932847  50.5515814  53.6571264  65.5476284   7.0386434
  53.5985851  64.7687197   6.4853752  52.9392529  65.4514027   7.6644444
  69.1694021  56.9908953   0.7324710  69.1028738  56.1244297   0.3311772
  68.8977480  56.8558836   1.6403286   1.1006584  24.4131351  48.4134960
   1.7821321  25.0851154  48.3971786   1.0831843  24.0680051  47.5208521
  61.2164879  73.1623459  12.0157814  60.6206512  73.8035440  11.6283941
  61.9703960  73.6781549  12.3017788   9.7850084  17.0690954  61.0760260
   9.9955916  17.7217007  61.7438507  10.1196122  16.2458360  61.4317179
   9.4640571  56.7194748  47.7935266   8.9845878  56.8446350  48.6124754
   8.9331436  57.1666098  47.1344090  67.6459599  48.7443399   6.7199212
  68.4483767  48.5847807   6.2230295  67.7946186  48.3111906   7.5604641
  63.8122082  59.1426897  24.7834682  64.6013308  58.6259365  24.9462152
  63.9264727  59.9289560  25.3172851   1.1644263  23.0764031  12.2703898
   0.7192589  22.3645425  11.8107033   1.2262070  23.7782431  11.6224408
  33.8425350  22.8584814  59.3161869  34.4291830  23.3416033  58.7342358
  34.3466020  22.0883417  59.5789242   6.3036495  58.5077524  31.3093591
   6.0028297  59.1293764  30.6465435   6.6911149  59.0548992  31.9925404
  21.3030624  12.3561335  40.8137655  21.7873406  13.1816375  40.8296013
  21.2785935  12.1105111  39.8889399  26.5079951  35.5140328  55.5814028
  26.7728662  34.6876431  55.9853268  25.5813432  35.3931642  55.3741837
  24.5363235  22.7723789  62.9710674  23.5848308  22.8754973  62.9548550
  24.7882032  23.0134130  63.8625240  78.2655811  33.6135650   6.2121880
  78.0236864  33.1370664   7.0063341  77.6420879  33.3108902   5.5519772
  12.1506882  55.7902527  60.5604553  11.7830372  54.9918842  60.1814127
  11.3918900  56.2673903  60.8963060  10.0705576  55.9230518  14.2545819
   9.5938087  55.1037455  14.1216326  10.9765136  55.6517220  14.4024086
  22.1475387  59.5321512  62.2296429  21.7373991  58.6740541  62.1215296
  22.6645255  59.6525812  61.4331198  25.8069873  12.1976876   3.2076627
  25.4403758  13.0805540   3.2563990  25.9487081  12.0484638   2.2728477
   7.4272239  61.7979288  25.8336329   8.3433032  61.9000673  25.5755687
   7.0444411  62.6660442  25.7067990  21.6332245  11.8014753  52.9203033
  21.4316773  11.4104223  53.7704134  22.5788617  11.9481587  52.9422903
  78.4758854  16.8173742  20.3250170  77.8820562  17.4297631  19.8907614
  78.0112362  16.5562367  21.1200905   1.9960696  45.4692173  42.6136827
   1.6070741  45.4262447  43.4872198   2.4765253  44.6461296  42.5246906
  18.1794119  17.4171412  14.5193803  19.0592587  17.3779655  14.1444588
  17.9421484  16.5020740  14.6696866  68.5199261   0.9974029  12.5068951
  69.4063473   0.6665114  12.3619699  68.5253668   1.8735999  12.1215618
  15.2579033  31.9020247  56.2419081  15.8518016  32.3060417  55.6092262
  14.3825030  32.1126056  55.9170103  64.1558886  19.0656972  14.5344615
  64.6700811  19.8700094  14.6045899  63.6035299  19.0656173  15.3162110
  32.8792310  12.7867818  29.2394304  33.1637073  11.8944395  29.0418673
  33.1088257  13.2898724  28.4581375  72.1493864  30.1997113   8.1731373
  72.5793886  30.7532907   8.8249642  72.7694082  30.1614428   7.4448955
  14.2767429  17.5837660  20.9660482  14.7357953  17.4066007  21.7870951
  14.9547088  17.9210901  20.3805518   2.5119302  74.2311764   7.3031479
   1.8267593  74.7537613   6.8864018   2.8173104  73.6424494   6.6129494
  15.8181083  20.4646277  25.6273675  15.0018406  20.8646011  25.3274345
  15.8102298  20.5872059  26.5766525   3.0698580  33.2230949  28.2401252
   3.6264402  32.5085998  28.5498738   3.6660665  33.9653134  28.1407285
  21.8633533  26.7042184  53.0738211  22.7910948  26.4704394  53.1033611
  21.6191459  26.5995622  52.1542311  71.4204407  23.0939126  11.5601313
  71.6819191  23.8027287  10.9723890  70.9627771  22.4710774  10.9954607
  61.2812090  44.2108727  19.0790629  62.0011520  44.6675920  19.5141768
  61.7118073  43.5922289  18.4890664  56.2030602  66.9759703  13.0566502
  56.7910814  66.2900496  12.7404618  56.3601017  67.7154732  12.4695337
  68.5443974  20.0003219  46.3043070  68.7065887  19.1004157  46.5873146
  68.4733820  20.4983783  47.1186352  59.3108559  21.6074491  45.4956865
  58.5580111  22.1791840  45.3454256  58.9422941  20.7241225  45.5070114
  17.3866212  17.3765552  22.3600554  17.3633778  18.0647957  21.6952109
  16.7952943  17.6862085  23.0461144   2.2752544  72.5765324  50.9355736
   2.3801270  73.3464336  51.4945745   1.5115105  72.1234131  51.2928009
  66.8017101  46.5400553   3.0814525  67.6337957  46.1126614   3.2844180
  66.2089920  46.2522411   3.7757707  11.9375515  72.3517752  16.1620533
  12.2090626  72.5918245  17.0479941  12.6633120  71.8279457  15.8227873
   7.9712451   7.6538873  26.0551310   7.0647818   7.3488367  26.0938692
   8.2638586   7.6516628  26.9665074  24.1888833  25.4312539  53.2533455
  23.9454794  24.5212817  53.4234571  24.8874164  25.3744698  52.6013756
  51.6964722  74.5162487  16.3208890  50.7833433  74.6942139  16.5461814
  52.1633816  74.5679188  17.1548879  40.2373362  23.2330728  26.6407990
  40.8527470  22.5522184  26.9127107  39.9250126  22.9449534  25.7830858
  77.0524597  40.7845879  55.4346466  77.7899837  40.2133703  55.6491280
  76.8322134  41.2122869  56.2621689   1.0868125  37.2576571   1.5779036
   1.2259004  36.8367243   2.4262556   1.2643246  38.1844568   1.7384155
  66.5171337  11.5951920  24.5001316  66.1614180  11.1910832  25.2915835
  67.2204542  12.1623743  24.8161626  41.4950657  70.8117342   4.1490912
  41.4460325  71.7668438   4.1890037  40.8541918  70.5666876   3.4816635
  16.1089480  16.0572207  29.2436528  16.3770044  15.1533210  29.0782976
  16.7307842  16.3755548  29.8980355  70.5927467   1.5862088  64.5564890
  69.7720051   1.3017958  64.1543388  71.0412979   2.0742708  63.8659620
  11.2518227  43.1349182  52.7914667  10.7746983  42.8840637  53.5824490
  11.1315620  44.0825176  52.7296066   3.7146950  19.9308264  32.0991850
   2.9509363  20.4608703  31.8712425   4.1213217  20.3980565  32.8289676
  49.1645288  69.6554756  38.4819078  48.5245323  69.4467926  39.1624117
  49.5589542  68.8126802  38.2575107  36.7457461  72.7930546  60.3281832
  36.8220758  73.0028152  59.3973732  35.9106708  72.3310518  60.4018927
  43.8345575  61.3307095   2.2624031  43.5251760  62.1953201   1.9922934
  43.6368704  60.7622766   1.5180671  61.2136984  20.3633976   7.1045810
  61.8500996  19.6740854   6.9146436  60.3684044  19.9143040   7.1092016
  33.4866548  60.5889702  12.1080041  33.5170412  61.4761925  11.7500269
  34.0479946  60.0765705  11.5261328  33.0086994  41.4384317  14.4729507
  32.3324108  41.4492989  13.7956405  33.2821178  40.5225229  14.5237398
   7.8259027   3.1071937  12.6781845   7.1522677   3.7655231  12.8486264
   8.6527592   3.5696322  12.8148973  66.7578411  60.9217358  17.2101307
  67.1107960  61.5831518  17.8052592  67.1206713  60.0951195  17.5284052
  27.6653767  37.2606754  60.9770298  28.5595679  37.3548841  61.3053226
  27.7062225  36.5117168  60.3823662  23.7905788   9.8863828  13.8027787
  23.5723853  10.5023551  14.5022082  24.7394633   9.9634075  13.7031782
  72.5762796   2.3871352   1.5678434  73.1106710   1.5986633   1.4731295
  72.2467375   2.3467086   2.4656184  43.4327793  17.1896636  41.4138603
  44.0644455  17.4376261  40.7387733  43.9044142  16.5656149  41.9655466
  68.5478020  40.7987738   9.0478045  68.3178091  41.2811565   9.8419368
  68.3477163  39.8860693   9.2555672  16.7673039  24.5825529  54.3900967
  16.8822420  23.9409065  53.6891603  17.5414848  24.4749427  54.9426317
  70.5262947   6.4646363  59.6983814  69.9552917   5.9528750  59.1254139
  71.2843370   5.8995837  59.8477602   5.5548692   9.7623587   5.9026945
   5.7579994   9.4690263   6.7909098   4.5992348   9.7363597   5.8545434
  64.4438457  68.4012747   5.1607037  64.3098783  68.4640932   4.2150092
  63.5840559  68.5886478   5.5373746  56.7377710  30.8553386  56.9580460
  57.2929430  31.6206384  56.8086338  55.8451653  31.1802721  56.8401241
  28.9222407  48.2334566  62.0816135  29.7393250  47.7401114  62.0093632
  28.2479262  47.5642300  62.1985245  66.3982058  67.5506210   9.3167239
  65.8777857  67.3962593  10.1051188  67.2990084  67.3696470   9.5851159
  76.2062502  16.7705095  37.8766036  75.9503794  16.1820817  37.1663117
  76.7843246  16.2432015  38.4279728  77.0488930  57.5598907   0.1200580
  77.1281099  56.9666862   0.8670928  77.5980186  58.3094072   0.3501099
  11.7903626  34.2878747  61.8595791  11.6805482  34.4225955  60.9182882
  11.0859454  34.7987056  62.2584295  16.9732761  54.4237995  45.3064442
  16.6014767  54.8770285  44.5497561  17.9045641  54.6438265  45.2836275
  63.8340092  67.1881866   8.6075264  64.7645855  67.3828220   8.4963042
  63.7890863  66.2321186   8.6198932  27.5504827  66.4128304   9.0579605
  26.7524362  66.1916590   9.5379961  27.3490381  66.1990070   8.1469548
   8.3560693   2.9013550   4.0743604   8.1224132   2.5132909   4.9175939
   9.2718178   2.6555675   3.9431140   6.7870909  12.1288681  20.2175570
   6.1070406  11.5638626  20.5843449   6.5371764  12.2399497  19.3002594
  56.8225813  56.9007206  23.9579582  55.8877134  56.7648315  23.8037372
  56.8942547  57.8252125  24.1954684  43.9135885   8.7473303  61.1600924
  44.2979479   8.1942946  61.8402767  43.0011463   8.8569683  61.4277840
  57.5444651  71.3063002   3.9831313  58.0798340  71.8905830   3.4462661
  57.1870184  71.8710470   4.6683490  28.2344794   2.4258564   5.3466469
  27.7099252   2.6639652   6.1110932  27.5917363   2.2647463   4.6558818
  75.5544281  12.3571789   5.4056412  76.1681366  11.7690492   5.8457470
  74.7178030  11.8927848   5.4307693  18.6259055  67.0557690  62.3391390
  18.9509737  66.6283941  63.1315470  18.6596560  66.3738966  61.6682100
  22.8065181  36.5613413  59.7794485  22.1634746  37.0321083  60.3096437
  23.5764337  36.4904737  60.3437567   5.7763463   1.2594676  10.6251109
   6.6006774   0.7765397  10.5660224   5.8938026   1.8429661  11.3747549
  29.3872833  12.7496469  61.1430264  28.8869596  12.0665908  60.6965494
  30.2899957  12.4315083  61.1316442  46.6377258  26.4164352  54.6281719
  46.0825109  25.8206391  54.1251850  46.6053772  26.0764647  55.5223751
   0.8587644  24.0617609  57.4450636   0.8256066  23.5274792  56.6515446
   0.2490043  24.7799587  57.2758961  67.8776121  29.8696876  52.5864315
  68.7238073  30.1957655  52.2800636  68.0985785  29.2218113  53.2555056
  66.4886522  50.0145912  38.7558293  65.8178806  50.6209660  38.4418130
  66.9725561  50.5128717  39.4144511  12.2580612  52.2325802  60.6611776
  13.0151391  52.8138113  60.7335329  11.6936970  52.6539421  60.0129652
   7.6271522   2.0109925   6.6247028   8.2441306   1.3856345   7.0048302
   6.7836875   1.7830929   7.0156777  16.1042368  34.4445968  60.6258917
  15.8138478  33.6976361  60.1024818  15.4523432  34.5164013  61.3231087
  78.8290215  15.7439423  55.8450460  78.4394360  14.9863696  56.2815523
  78.3707142  15.7990980  55.0065088  59.2485380   6.4669955   5.0578415
  60.1337385   6.8154132   4.9517488  58.8804293   6.4751798   4.1742915
  31.8870115  18.0685568  59.2872715  32.2672606  18.7108898  58.6880589
  31.0257816  18.4248805  59.5053196  14.1483009   9.2049229  53.5176849
  13.5045600   9.6730024  54.0494061  14.8655760   9.0147430  54.1223145
  47.4097872  43.3136654  12.3719764  47.3485756  42.9786921  11.4773941
  46.5275669  43.6270428  12.5712740  15.5870867  38.1484866   7.9291540
  16.0756636  37.8083658   7.1795928  14.6785009  37.9035354   7.7539325
  14.1400027  15.2000785  37.6436758  14.2648804  14.5381892  36.9635725
  14.9130082  15.1183403  38.2022572   9.6604133  20.2466846  59.2828798
   9.2040235  19.5724332  59.7861958   9.0161473  20.9473538  59.1818094
   8.3446878  47.5403643  58.0954647   8.7424672  48.2133532  57.5431204
   7.4256033  47.5238705  57.8285503  46.4796400  41.5861464  10.2767396
  46.2310362  40.7492781  10.6692743  45.6567860  41.9527006   9.9530345
  75.5696011  36.2656546  49.3547869  74.7581768  36.7265582  49.5678282
  76.1633635  36.4811373  50.0739813  14.3530262  22.8859782  64.9979353
  15.0847840  23.1712437  64.4507742  13.7063241  23.5870862  64.9175787
  24.3958235  62.1634102  48.6828089  24.9834085  62.0132303  49.4233608
  24.5596695  61.4268494  48.0938530  74.6324539  41.3454533  10.3892708
  75.2041054  41.4591503   9.6299815  75.2132368  41.0285950  11.0810232
  61.3477993  58.7016487   7.0567936  61.6953945  59.2216682   7.7813578
  61.5581608  57.7970982   7.2886604  11.0510349  38.0111480  38.9562058
  11.4595008  37.2967339  38.4673285  11.2124836  38.7893772  38.4227967
  20.2336121  17.5600827   7.1953315  20.2454925  18.5145390   7.2667682
  20.0525951  17.3913419   6.2706739  75.1693583  24.4406295   8.9952445
  75.8219433  24.9791980   8.5476846  75.3211021  23.5555840   8.6637336
  62.3497105   0.8501300  27.0625424  61.6421461   1.2812571  26.5832639
  62.0865250   0.9075242  27.9810596  77.4349260  14.3225563  57.7626562
  77.6572561  13.9651120  58.6223269  76.4783096  14.3554473  57.7570534
  60.6161022   2.8853044  35.3988862  60.1797724   2.6835382  34.5711541
  60.8784294   3.8019463  35.3141379  57.8809452  11.8116558   0.4432682
  58.7306738  12.2398198   0.3389919  57.2417784  12.4986410   0.2542018
  78.9348030  19.9947345   8.2800788  79.5994377  19.5196152   7.7813268
  78.1053543  19.7436297   7.8736365  51.7426109  70.2963829  26.6185427
  50.9608650  70.6883335  27.0077491  51.6390800  70.4391861  25.6777334
  37.3977733  32.1791768  58.7195158  37.9034042  31.5478206  58.2076931
  36.7554402  32.5286150  58.1018305  12.5996900  72.5874472  49.6958542
  12.6938760  71.8268347  50.2692842  12.4691999  73.3234644  50.2937508
  17.7315950  21.6111493   9.5875865  17.9973233  22.4566936   9.2260933
  17.9789209  21.6571259  10.5111384  23.0214095  26.8485451  26.5797400
  22.6432467  26.8107510  25.7012200  23.7457609  26.2232685  26.5558028
  69.1264200  44.2793560  19.0395200  69.0709591  43.3254528  18.9827800
  70.0414991  44.4533825  19.2599177  28.1443620  24.4161630  23.0504894
  27.2581339  24.6226549  23.3474684  28.0177331  23.7996674  22.3292899
  10.6890404  66.8147039  57.7684784  10.5958450  66.7855549  56.8162727
  10.5935824  67.7409601  57.9902315  22.1344829  59.4146395  58.0133009
  23.0527830  59.1449785  57.9977036  21.7228007  58.9031553  57.3167849
  29.2498469  29.6719527  44.8340654  30.0642371  29.1886616  44.9734640
  28.6779118  29.0520287  44.3814993   4.3149439  35.2532983  15.6535542
   4.9622133  35.1746583  14.9527764   3.5542184  34.7691655  15.3323936
  20.5877352  16.7255664   4.1992232  21.4837027  16.4759398   4.4254091
  20.1800728  15.9119344   3.9024991  10.5327439  10.8916318  33.2785583
  10.5325735  11.7937815  33.5984921   9.9964893  10.9184277  32.4861288
  72.6585484  15.7952726  35.0056005  72.4705315  15.3244460  34.1936874
  72.9124832  16.6729403  34.7202086   8.2085907  19.0289438  55.8694029
   9.0515304  19.2599845  56.2596655   7.8233689  18.4042132  56.4838505
  28.8940215  73.9984846  63.8977718  29.3546224  73.4653759  64.5457458
  28.2721019  74.5146084  64.4106722   1.8352205  68.0212927   9.6290779
   2.6651233  68.4747171   9.7770524   1.3175608  68.2075071  10.4123938
  30.2847600  43.4606838  26.0205197  30.3152013  42.7222729  26.6288376
  31.1493707  43.4685230  25.6098914  38.3799672  66.6426134  16.9399714
  38.8496113  66.4468670  17.7507424  38.9644051  67.2297144  16.4604092
  17.5737846  68.2770777   5.2481365  16.8953860  67.7702045   5.6943297
  17.2792447  68.3228827   4.3385321  22.6209426  62.1602869  59.3812323
  22.1810794  61.9709110  58.5524416  23.0717897  61.3460064  59.6046352
  68.1890917   3.5624766  11.9829166  68.9653111   4.0050694  12.3261786
  67.5983000   3.4986159  12.7333295  35.8973289  13.2514405   3.6068818
  36.8106174  13.3548415   3.8741702  35.4660559  14.0487623   3.9143097
  69.2422915  73.5561037   3.5456204  68.6949205  73.6150646   2.7625877
  68.7904835  72.9258680   4.1067851  70.1997375  41.5863991  58.7524939
  69.6401501  41.4348173  57.9908419  69.6492720  41.3616991  59.5026493
  11.6013217  10.7330465   4.8121482  10.7451165  10.9987557   5.1476234
  12.1480763  10.6461644   5.5930084   5.8944583  28.1241083  12.3798788
   5.2503240  28.8125062  12.5455022   6.1198199  28.2244587  11.4550149
   8.5342300  34.9023557  30.1935863   7.9838210  34.9660134  29.4130540
   9.4301122  34.9406242  29.8586798  29.6966267   4.2690036   2.4382079
  30.6153178   4.0491533   2.2835849  29.4360733   4.7676626   1.6638164
  74.0298796   8.7473959   0.3377669  73.1463814   8.8112390   0.7005188
  73.8976908   8.7094355  -0.6095016   5.6881541  12.0781553  15.6906855
   4.8019087  12.3617899  15.9150791   6.1584038  12.8898442  15.5002701
  14.6624446   7.6274759   9.6021169  14.7853088   7.7635813   8.6626428
  15.1123595   6.8027472   9.7855061  60.3322029  55.7737970  16.6377449
  59.9196815  56.4078188  17.2243202  61.1882782  56.1530924  16.4389825
   8.8840473  50.1462698  49.3751287   8.3491844  49.4431353  49.7435808
   8.8582289  49.9967241  48.4300375  60.3730726  71.0286760  13.4238529
  60.4542685  71.8432093  12.9276943  61.0481071  70.4570818  13.0580091
   7.9057276  27.6981473  27.4612546   7.3149985  26.9774747  27.6801157
   8.6994255  27.2687435  27.1420550  22.9037380  67.7812052  39.5722246
  22.6311493  67.7520466  38.6551237  22.1305394  67.4992371  40.0609922
  47.8867292  66.2725019   9.8875445  47.6577950  65.6954765   9.1589415
  47.7833891  67.1562910   9.5347422  37.7763057  68.4225845  47.6230001
  37.9201150  67.5054169  47.8561497  38.2546902  68.9167786  48.2886982
  69.9390125  47.5065422   9.8931426  70.4293108  46.9563580   9.2822921
  69.0987921  47.6558399   9.4595844   4.2166185  23.1986403   7.9814202
   3.8588902  22.3152280   8.0699843   4.3826124  23.2969475   7.0438629
  60.7556009  64.8569059  63.7564278  60.1519108  64.3855238  63.1823301
  60.8035851  64.3191624  64.5468473  32.8846693  30.8483839  13.8016140
  32.3316813  30.8592010  14.5828414  32.6769280  31.6662574  13.3497763
  33.1258559  37.2590733  11.0765803  33.4130573  36.3982773  10.7719862
  32.2485423  37.1081972  11.4284182  35.8195877  61.2273836  26.9318366
  35.2565789  61.5468740  27.6369452  36.4317560  60.6325436  27.3650217
  50.8741045  55.3625822  59.1852474  51.1660433  54.7260904  58.5326481
  51.3991833  56.1434507  59.0098429  11.9132137  29.1147327  26.3025498
  11.3181591  29.7212791  25.8618212  12.5951064  29.6750116  26.6731477
   3.0132028  43.1929684  14.2682672   3.0710825  44.1262054  14.4730878
   3.0973455  43.1511545  13.3156896  76.8341446  21.7093468  11.6786218
  76.3876104  20.9788418  11.2506020  77.7640438  21.5487695  11.5181911
   5.8129001  25.8706951  21.9625163   4.9614894  26.2525034  21.7490816
   5.7605201  24.9718308  21.6376591  44.0834284  71.1219358  50.3759813
  44.9324751  71.5113783  50.1669788  43.7005568  71.7149401  51.0225010
  78.6482096  10.3415322   9.3938529  78.3349180  10.9839249  10.0305736
  78.2116890   9.5264179   9.6413767  21.7564464   8.6058837  31.2545514
  21.4527750   9.2845368  31.8574166  21.4549732   7.7858406  31.6455460
  10.9866548  25.0301099   4.1930661  10.4303956  24.5280743   4.7886908
  10.5804217  25.8961511   4.1587347   9.7307122  67.3494148  31.1622787
   9.9617279  67.2489452  30.2388215  10.0843775  66.5663910  31.5842080
  24.2808962   2.7716178   5.6792444  24.3863583   2.8199658   6.6293871
  23.9163017   3.6223304   5.4351336  26.2363744  33.7349272   4.0809733
  27.0847511  33.4341598   4.4065917  26.2933683  33.6297774   3.1312749
   8.8157523  50.7400560  58.6526299   8.9995289  51.4587450  59.2575645
   9.6550220  50.2908278  58.5523844   0.6985532  17.4259615  51.5320873
   0.5108987  18.1508613  50.9358168   1.5082487  17.0422852  51.1953115
  16.8050718   8.8051957   3.7476954  17.3167336   8.2822061   3.1305116
  17.1296346   9.6981674   3.6315423  33.7967563  23.3046746  64.6978998
  33.4718847  22.4132729  64.8247719  33.7625051  23.4395576  63.7508678
   5.7305861  17.2072864  39.9631858   6.3804781  17.8028309  39.5900917
   5.0472176  17.7830350  40.3063393  61.3469362  10.7668185  29.2902422
  61.8316603  11.4768338  29.7111344  61.7907095  10.6378722  28.4519887
  15.8905578  26.8723607  33.8862824  15.1056099  27.1748519  34.3429947
  15.7847536  25.9226036  33.8315034  39.4882703  64.4820404   8.7621546
  40.0832653  64.2991829   8.0349863  39.0454292  65.2926970   8.5112369
  68.9615297  37.1088195  43.6288834  68.8360214  37.8399420  44.2338133
  69.1082191  37.5237417  42.7788496  17.9202127  67.4928617  48.0511093
  17.7103281  66.7157412  48.5690451  17.4886143  67.3437548  47.2098446
  21.5963078  34.8885655  25.5617619  20.6690979  34.6826029  25.6804705
  21.8873096  35.1880598  26.4230704  78.9923668   6.2786961  17.2036815
  79.7717810   5.7414508  17.3454797  79.3252182   7.0835084  16.8065453
  14.8245108  71.0053110  64.5692825  14.7446048  70.7510233  63.6499453
  14.6770287  71.9510794  64.5698833  72.5341034  60.7968712  42.0979881
  73.2545471  60.3478479  41.6557503  72.0401478  61.2115383  41.3906765
  74.5427561   3.6408007  27.8622246  74.7481251   3.5535112  26.9313979
  75.1013422   2.9934189  28.2924700  28.5126305  67.5812244  51.3911581
  27.5813150  67.7065086  51.5733290  28.6265111  67.8998327  50.4957533
  17.0274222  60.1277351  63.3576775  16.7091906  59.3746233  62.8598976
  17.4439049  60.6886530  62.7033520  73.7398577  53.8150978   2.1829332
  73.4591103  53.5376406   3.0549589  74.6622133  54.0471601   2.2908157
   3.1385291  29.9990892  18.1361282   3.4373868  29.2646194  18.6722910
   2.2019389  30.0658655  18.3220637  74.0188885  61.3931274   3.6039498
  74.6795034  61.9586945   3.2039967  74.4157124  61.1057663   4.4262576
  68.5029507  21.6202283  48.5823011  68.0455732  22.3921037  48.9158344
  69.4076252  21.7332864  48.8738775   5.9493905  46.5012360  26.9968295
   5.7711083  47.3759556  27.3422456   6.4224732  46.6582537  26.1796570
  21.1903262   8.7714076   8.8439941  21.2494278   9.7244895   8.9101362
  20.2780843   8.5727745   9.0551621  16.7368054  46.7884636  50.4483700
  17.4954927  46.2084818  50.5135155  15.9821868  46.2072897  50.5433226
   6.6188991  11.5788877  40.3716278   5.6928480  11.5447402  40.6114101
   6.9482911  10.7006657  40.5625725  14.3186843  34.8669672  62.3965073
  13.4187889  34.5508027  62.3161316  14.2773521  35.5360460  63.0797768
  77.3510027  73.8191223  11.3307047  76.9893646  73.5885191  10.4749751
  77.7190828  74.6940613  11.2072837   9.7697937  48.6613798  22.1812320
  10.1675558  48.0652332  22.8157592  10.2876079  48.5437632  21.3848233
  38.7665725  22.5212479  49.8667192  37.8177691  22.6411200  49.9071836
  38.9067006  21.9801140  49.0896940  49.2064285   3.8037893  63.7054777
  48.3789825   4.1497535  63.3709955  48.9496708   3.0826941  64.2802191
  61.7082405  68.0268478  38.5609365  61.6132355  68.8703156  38.1184840
  61.5866852  67.3778296  37.8679466  72.6977968  27.5863409   8.3823192
  72.5741434  28.4994555   8.6414862  71.8721867  27.3421931   7.9640007
   1.0655315  61.1114120  45.2681637   1.4950085  60.3441906  45.6465244
   1.6840121  61.8275833  45.4124165  16.5288115  52.3060846  46.8725061
  15.6383765  51.9872618  46.7251682  16.6432118  53.0038357  46.2273026
   9.3831319  12.6110315  20.8817124   8.4807318  12.3060799  20.7873154
   9.3055022  13.5588491  20.9905577  46.7722034  59.4759321  50.5275536
  45.9593916  59.1842937  50.9404850  47.0268965  60.2541304  51.0233116
   0.7473981  22.8218770   4.5956510   1.5235627  23.2888246   4.2861974
   0.7195586  22.0256114   4.0651640   4.2725608   1.4260407   7.9173774
   4.2275909   0.4723100   7.9852527   4.6467716   1.7081778   8.7520015
  21.9619894  66.1696196  47.3462009  21.8552232  66.8924952  47.9644918
  22.6312590  65.6120062  47.7429104  18.1686449  17.0902681  45.4061031
  18.0520380  16.7022645  46.2733316  18.0289352  16.3642585  44.7981358
   2.4622731  19.4760382  17.8517795   2.2281252  19.1025853  18.7014496
   2.3629937  18.7502885  17.2356117  74.1786098  24.1035938   5.5769855
  74.3440771  24.9531126   5.9858537  73.2986307  24.1823936   5.2086699
  40.9286690  15.1919973  49.0354967  40.9260035  15.9419465  49.6303082
  40.5653048  14.4739485  49.5537663  39.7687578  21.3720942  30.9489632
  40.4408932  20.7264614  31.1671996  40.2532578  22.0998502  30.5592656
  76.9182920  42.9480982  53.5833120  77.1037054  42.2986889  54.2616367
  76.5326309  42.4431992  52.8673697  26.0894346  24.3099427  16.3078868
  26.8381357  23.7135887  16.3013756  26.0108519  24.6056247  15.4008985
  29.8227644   1.0744934  21.2303543  29.4606352   1.2059323  22.1066070
  29.1006088   0.6990761  20.7265830  56.5323019  27.2689843  13.3597648
  56.1722946  26.4439130  13.0343676  55.7719374  27.7495170  13.6871302
  13.4572005  30.4146004  19.8725045  13.4149408  29.7913647  20.5977798
  12.5784898  30.4005885  19.4931602  26.9253826  21.4471936  16.7861187
  26.7897940  20.5131221  16.9453681  26.8856645  21.8465567  17.6551187
  11.2499249  13.7357938   6.8554991  11.3662982  12.9950702   6.2605065
  10.3222489  13.7111115   7.0901030  36.0724831  49.1287136  62.7600670
  35.2313900  48.8070631  63.0846214  35.9048152  50.0408363  62.5231123
  44.7803259  42.9004002  61.5669966  44.3721533  42.0364237  61.5107250
  44.2506599  43.3742237  62.2082329  53.4224415  65.8926201  34.4885540
  53.4458971  65.8574724  33.5322881  52.6403904  65.3950548  34.7274041
  44.1166544  71.8882751  57.1495295  44.0388060  71.2897873  57.8924847
  44.9767876  72.2940493  57.2579479  31.2423253  13.9468825  64.9359798
  30.4289746  13.4444249  64.8887873  31.0059285  14.8162115  64.6125364
  26.5884066  62.5251484  46.2269306  27.4485421  62.6093769  46.6383982
  25.9693623  62.7766371  46.9123316  13.9112997  55.2919149   2.5543761
  14.3909788  54.8959446   1.8268156  14.4163215  56.0740471   2.7767733
  64.8453665  25.7489538  24.6562529  64.6204185  24.8218322  24.5783281
  65.2248240  25.9755325  23.8071895  10.0101483  25.0023818  17.4429655
  10.6727898  25.4159594  16.8897104   9.1977292  25.4598093  17.2262490
  48.8667536   5.8532780  23.1333733  47.9371405   5.8885401  22.9079700
  49.2853069   6.4558053  22.5185513  77.4693155  15.1347375  23.5046601
  76.6671419  14.6445179  23.6847687  77.7821875  15.4073489  24.3672276
  65.6676149  26.7653489   4.2973420  65.7234383  27.6090217   3.8486403
  64.9661827  26.8809271   4.9383315  22.7316713  25.4700518  22.9887938
  22.5863242  26.3834929  23.2352328  22.6207781  25.4579067  22.0381165
  77.6092720  28.4400439   0.3268483  78.3736324  27.9585576   0.6433211
  76.9172335  28.2296538   0.9537842  24.2337084  59.9516678  60.1802683
  24.6313262  59.2639399  59.6462631  24.9554229  60.2915287  60.7092810
  49.5395041  15.4982793  12.9283834  50.2705622  15.1309919  12.4315119
  49.7382832  16.4324677  12.9917109  54.8240328   3.9168337  41.8006754
  54.2828321   4.6607104  41.5361357  54.4117117   3.1603396  41.3836145
  36.6502619  28.7236547  21.8575811  36.0371327  28.5735750  22.5771499
  36.4516973  29.6096516  21.5545702  77.4175310   0.3491087  54.2392778
  77.0736217  -0.5431386  54.1962433  76.6508150   0.9077413  54.1115665
  44.4065809  68.4805250  62.8674221  44.2451477  68.0472565  63.7055445
  43.9162254  69.3006754  62.9234123  10.1969099  24.8517966  25.9884810
   9.9498063  24.3120003  26.7393422  10.8153546  24.3106508  25.4976463
  29.9663663  45.4551125  14.2773318  29.3294477  45.1370192  13.6374998
  29.6445346  45.1294327  15.1179218  46.3055468  14.3403780  31.3304925
  45.9322882  15.1372063  31.7072868  46.8133879  13.9533424  32.0436049
   4.5219135  63.3554649  16.1016619   3.5777977  63.4085941  15.9531569
   4.6903381  62.4236012  16.2413025  35.1209331  49.2737627   0.5113848
  36.0347199  49.1273260   0.2668806  35.1335073  49.3217325   1.4672995
   5.1323283  44.6479988  23.6105847   5.7538587  44.2173815  23.0236435
   5.6637824  45.2697277  24.1078186  36.6982841   5.1497412  28.5989046
  37.3768139   5.1077104  29.2727470  35.9055948   4.8408580  29.0376139
  77.5129652  23.7357068  49.1210175  77.4257708  22.8359485  49.4357634
  78.3807850  24.0100837  49.4173861  22.6104999  72.9717731  58.1789970
  22.4019170  72.9992771  57.2452068  21.9159913  73.4827375  58.5946989
   9.0708268  36.1581755   9.9495548   9.8151970  36.0281038   9.3619955
   8.3171850  35.8333182   9.4568849  57.9434776  44.2934799  57.2214413
  57.2006273  44.5130777  56.6591406  57.8549290  43.3535051  57.3790407
   7.3653054  66.1614799  16.9372082   7.1704316  65.2931499  17.2897077
   7.0879835  66.1162853  16.0221779  58.7175846  68.2181883  48.0946207
  58.7270641  68.0248308  49.0320396  59.0800095  69.1016579  48.0286169
  75.1351929  19.8760712  17.4816918  75.3312635  19.0979886  16.9597948
  74.1803074  19.9407053  17.4658716  20.4328465  36.6039419   2.2081678
  20.1431298  36.6102862   1.2958874  19.8511922  37.2236323   2.6485008
  22.2790432  26.8396568  20.3712106  22.3039508  27.7741385  20.1654029
  21.3479996  26.6175437  20.3639698  75.5571461   1.6245694  61.6225863
  76.3535023   1.2813801  62.0278835  75.6914234   1.4953639  60.6836987
  10.0946629   3.4917900  39.0607977  10.3808236   2.7661815  38.5059667
   9.6063715   3.0731302  39.7696877  65.3630543  61.8441010  58.0346680
  65.7933998  61.5684700  58.8440275  65.7963562  62.6648760  57.8005362
   0.5255135   4.2442575   7.7641040   0.1607078   5.1289839   7.7842987
   0.0049525   3.7559208   8.4018934  49.4300222  68.6502504  26.5762854
  49.9677515  68.5405493  25.7920384  49.4367123  67.7888823  26.9936991
  33.1582117  48.5720873   7.0854157  32.7783132  48.8957357   6.2686157
  33.9330649  48.0814791   6.8113101  24.5710015  55.6678581  57.3841858
  25.0999022  56.2077570  56.7968130  25.1866817  55.3673267  58.0526543
   2.1650948  43.7027979  60.3734636   3.1043276  43.5228825  60.4147339
   1.8016189  42.9666710  59.8812866  48.5197878  60.8892822  62.8258133
  48.4883881  61.1902380  61.9177008  49.4169283  60.5771065  62.9437923
  26.2744570  22.0769382  52.0726967  27.1187425  22.3607802  52.4231911
  25.6333041  22.3860550  52.7126980  66.0654640  37.0941067  42.0070505
  66.2572575  37.5971627  41.2156105  66.0153294  36.1863422  41.7075825
  17.1615100  34.5212126  14.7334516  17.5701845  33.7702847  15.1639426
  16.2380123  34.4645524  14.9787569  62.2909260  48.4016705  20.2574372
  62.8578091  49.1197443  20.5389428  61.6639614  48.8111019  19.6611893
  38.0733991  42.0837116  18.9175391  37.3670721  42.5308037  18.4512341
  37.7902341  42.0772028  19.8318732  50.4873419  68.1291437  61.4362192
  49.7365427  68.6729813  61.1979628  51.0022640  68.0660391  60.6317902
  33.4261489   3.8627976  17.6564157  32.8772664   3.4401742  16.9958508
  34.3024039   3.8692850  17.2712266  78.3958673  48.6978960  48.5012627
  77.5218344  48.3425999  48.3398342  78.8237572  48.6794996  47.6452255
  13.3416665  25.7815552   8.1804061  13.2257724  26.3907027   7.4512005
  12.9468787  26.2272716   8.9298803  79.2839909  44.3453550  14.8080599
  79.4246578  45.2416515  14.5029545  79.2461491  44.4200945  15.7615864
  70.1988888  24.9590421  62.2433043  69.9279213  25.8486414  62.0165491
  70.6449795  25.0517797  63.0851078  28.1510925  69.5382547  47.4997091
  28.5331821  69.3638754  46.6395760  28.2516932  70.4825878  47.6194906
  47.9524040   4.1501924   2.9501581  48.1539774   3.4778923   3.6010143
  47.4215508   3.6975512   2.2947654   4.3253544  74.3865633  27.8885961
   4.6048501  74.2244434  28.7896132   4.9028194  75.0851107  27.5807071
  20.1368165   9.8490715  11.8637121  19.5541286   9.0904248  11.8977702
  21.0160494   9.4737881  11.8152738   0.5036598  11.7876339  60.8978176
   1.4437182  11.9363916  60.9997654   0.2019393  12.5207663  60.3614283
  48.0516720  60.0630140  40.2024889  47.6488304  60.2023458  39.3454385
  47.3498869  59.6961498  40.7402086  48.9119864  69.4936180  21.5031934
  49.4360495  70.1734543  21.0796261  48.6492348  68.9136410  20.7884789
  12.0666730  37.0077682   0.6925660  11.6230369  36.7981625  -0.1293126
  11.3717699  36.9918823   1.3506612   3.3211538  11.9196916  61.0702801
   3.3674845  12.7472293  61.5490961   4.1653493  11.4998245  61.2354422
  58.5430813  62.4610996  63.5559034  58.5725069  62.9501009  62.7335644
  59.4345379  62.1320009  63.6708927  40.4047394  65.4064465  57.7702379
  40.4949331  66.3553715  57.6828480  41.1354637  65.1470852  58.3314943
   5.1080042   4.7773185  13.0806327   5.1452291   5.0536716  12.1649504
   5.2789783   5.5763906  13.5791147   9.2215508  52.4374104  60.6116676
   9.2804861  52.6314592  61.5471363   9.8498142  53.0331182  60.2034426
   2.5156200  16.9554591  39.6662831   1.6122767  17.2464824  39.5417523
   2.4606118  16.2907064  40.3528023  68.2644510  24.7878718  12.4471974
  68.6736202  25.5655384  12.0676613  68.9971828  24.2058349  12.6486051
  44.8444557  68.5172701  51.3934565  45.6782341  68.3738041  50.9457207
  44.4289684  69.2273903  50.9042406  68.2716942  61.0422993  40.0481701
  67.9197550  61.9299269  39.9811649  68.2509470  60.8464956  40.9848976
  55.5328465  52.5390196  57.2663069  55.6711626  52.4517584  56.3231802
  56.3347912  52.9501200  57.5889683  58.1562805  28.1284976   3.5628167
  57.5182533  27.4150515   3.5507435  58.3236313  28.3158135   2.6391611
  14.1270173  38.1090045   5.2165610  13.5953474  38.5379148   4.5460430
  14.9239826  38.6370206   5.2643001  74.7646189  14.5724571  47.3302698
  75.1327276  14.7814810  48.1887817  75.4638195  14.7843409  46.7118359
  75.7335329  42.1888542  21.6870213  74.9348640  42.6403284  21.4140296
  75.6404638  42.0892906  22.6344705  59.3095827  63.2961082  52.2787571
  60.0336027  63.6975813  51.7982864  58.5869312  63.2774115  51.6513348
  63.4390783   3.4253970  57.8174496  64.0525436   4.1468686  57.6782656
  62.5882339   3.8512662  57.9219770  15.7702506  44.8481798  35.4808807
  16.3574314  45.5979729  35.3846455  14.9048114  45.1916742  35.2589369
  31.1705709  25.3791285  22.2503257  30.4409218  24.7595930  22.2456431
  31.9060016  24.8803473  22.6061225  10.6793308  19.1870391  57.0142412
  10.2952671  19.4361901  57.8548670  11.6192925  19.1332686  57.1868992
   4.1078463  43.1599569  11.7101455   4.6667016  43.4019899  12.4486125
   4.5084447  42.3656368  11.3568652  71.5590382  10.2198792   3.2525098
  71.4766264   9.8918420   2.3570594  70.6611347  10.4177380   3.5186920
  69.3450117  22.7914190  24.8988008  70.0093079  22.7812958  24.2097163
  69.1096687  21.8713093  25.0181437   5.5926424  49.4375563  24.0050769
   5.0735164  50.1555538  24.3673229   4.9440551  48.8170242  23.6726546
  55.7339478  53.3859205  60.2937841  56.4774466  52.8087282  60.4678202
  55.5029869  53.7440538  61.1508894  23.3561707  24.4389963  20.0789547
  22.9727983  25.2153516  19.6708703  24.0917850  24.7758245  20.5904746
   1.0605285  21.1612225  62.4037886   1.7801340  21.6902590  62.0595217
   0.4082080  21.1593175  61.7032862  28.2805037  33.4608221  29.4599533
  29.1510749  33.2195401  29.1435313  27.9078126  32.6409721  29.7842693
  27.2638679  11.9135046  19.1367924  27.8715611  11.7797697  19.8641562
  26.4947128  11.3929832  19.3685019  57.5362492  16.4738226  39.3408132
  58.3701038  16.7039323  39.7506499  57.2643852  17.2714055  38.8867378
  11.6558743   7.4926198  36.4759946  12.0045984   6.7597091  35.9685850
  12.0912504   7.4243075  37.3257089   3.5232294  12.5028324   9.1189617
   4.0017241  11.6968811   9.3131679   4.1778022  13.0817902   8.7283540
  72.7879906  24.8715568  46.3181925  73.1487751  24.9855661  45.4389477
  73.5391951  24.6174240  46.8542337  68.7899685  45.9479856   0.5822754
  69.1089058  46.6531372   0.0190062  68.0950737  46.3522005   1.1018594
   3.1819555   9.4222939  28.3516121   3.5254192  10.3056419  28.2175922
   2.9579318   9.1165125  27.4726677  22.8124046  38.1620884  12.4186063
  23.5783315  38.7349176  12.3804426  23.1572485  37.3206949  12.7175546
   0.9648801   4.3799850  55.9687757   0.2666877   4.8944634  55.5637169
   0.8380262   4.5028925  56.9095373  11.4374697  42.8858948  57.0588398
  11.4865780  43.7480783  56.6459608  10.7437289  42.9725885  57.7126265
  69.8098087  68.3328199  63.7871408  68.9823198  68.6368561  63.4142399
  69.5510960  67.7622366  64.5108366  19.7954857  20.9243083  15.8258975
  19.9195242  21.6548038  15.2199090  20.3306079  21.1506391  16.5865886
  76.0945892  74.5576572   5.7933307  75.7381487  75.2922869   6.2928355
  77.0111132  74.5058918   6.0645062  48.4903908  53.6267662  56.8163872
  48.0658150  54.3660069  57.2516918  49.3179464  53.9825583  56.4926672
  12.4570704  21.6529727  13.6757028  12.5618029  22.3446226  14.3290651
  13.3312106  21.2732601  13.5866511  26.6274238  39.9175596  14.0916955
  25.8701634  39.8652053  13.5085595  27.1493793  39.1446090  13.8764298
  12.2123218  39.3290615   3.5490552  11.7748940  38.5303164   3.2542765
  11.8674445  40.0156403   2.9781783  71.1078501   5.7204312  62.7608681
  70.1584387   5.8065379  62.6746368  71.3479710   6.3685936  63.4230328
  23.3613467  16.5938127   4.7311234  23.1441092  16.4876020   5.6572759
  23.8438439  17.4195564   4.6914533  73.2445049  13.5884833  27.9338431
  73.8728476  13.3356488  28.6102247  72.9724693  12.7604699  27.5380898
  38.1870580  54.3708897  18.8878429  38.5748219  55.2199554  19.0998805
  37.7693772  54.5041227  18.0369473  23.3685565  63.6896229  56.2995243
  23.6716604  64.1738224  57.0675802  22.5234103  63.3260918  56.5637350
  18.1998992  41.2472773  15.6962764  18.6049569  41.9473267  16.2082243
  18.1174302  41.6119146  14.8150992  18.4117365  21.4642572  32.2191048
  17.5222492  21.8127441  32.1590805  18.8581049  21.8127847  31.4474082
  28.8445950  71.9011497  53.2731771  29.1338658  71.5370417  52.4365282
  28.6253119  71.1357403  53.8044882  56.1520624   2.1387653  51.9699764
  56.2961721   1.7923433  51.0893774  55.5643463   1.5061359  52.3830128
  31.9371796  64.5278740  63.0530977  31.7335963  65.3962183  62.7055931
  31.8013620  63.9359236  62.3132420  21.9486666   1.6285045   1.0087276
  21.9183779   1.6468051   1.9652730  22.1438026   2.5314260   0.7579561
  18.6607301  12.5128472  36.1175299  18.0233312  11.7987728  36.1103320
  19.1853976  12.3735237  35.3291488   8.5412151  26.5247154   4.4301903
   9.0530080  27.3148441   4.6033883   7.8299993  26.8198729   3.8616079
  17.9939854  23.5649657   7.6051861  17.8541386  22.9718852   6.8669921
  17.1921444  24.0858793   7.6491493  23.4887767   3.2201406  29.6933413
  23.3383226   2.9862270  30.6092453  23.4980798   2.3822887  29.2305779
  42.0098591  25.2716827  63.2007313  41.9171381  24.4161797  62.7815056
  42.9540968  25.3831673  63.3112526  15.7502019  24.1972899  16.8011844
  16.0617793  24.5230579  15.9567761  16.4622772  24.3919253  17.4105263
   7.7975982  11.1609924  43.9653349   7.6932788  10.8513486  43.0656290
   6.9061404  11.3493454  44.2586899  72.6363850  38.2646608  52.8264332
  73.3501101  37.8088784  53.2726383  72.8497839  39.1931009  52.9196644
  74.0111685   0.6511512  55.7334280  73.2955599   0.1708245  55.3169918
  73.8188171   1.5713306  55.5531454  70.3453636  38.1518912  59.3807316
  70.6426811  37.3998761  59.8928881  69.4749355  38.3484817  59.7270584
  34.8298156  75.0210664  59.4654751  34.2172086  74.2971262  59.3356371
  35.3933322  74.7321628  60.1832581  41.3321257   9.4505984   4.6749812
  41.6854477   8.6369419   4.3153203  41.0456181   9.9468672   3.9082575
  46.9463491  22.4685240  37.2988653  46.5563965  22.3652744  38.1669140
  47.2203684  21.5850186  37.0527649  52.6843452  20.4608893  15.0441420
  53.0557299  20.4867196  14.1623032  52.0608521  19.7349977  15.0202775
  17.9607475  40.1917839  21.5654778  17.1766174  39.6447635  21.5192270
  18.0376816  40.5745029  20.6914973  11.2217999  43.9860821  24.5823789
  11.4352036  43.4787035  23.7992692  11.7748582  43.6119699  25.2682352
  30.8785391  67.3907232  60.7707596  31.1018276  67.6627350  61.6609192
  30.0174809  66.9810677  60.8543825  58.9288568  34.0185809   1.3561139
  59.7869778  33.8210106   0.9808405  59.1233301  34.5218515   2.1467647
  19.8189044  57.0087051  63.7919807  18.8864589  57.1617222  63.9448261
  20.2569270  57.4569321  64.5154905   4.4366822   3.2483000  37.2968364
   4.5597968   3.4450436  38.2254744   4.1225764   2.3442081  37.2831440
   4.2545691   0.5103279  37.1194458   4.7279751   0.0045641  36.4588976
   3.8322079  -0.1496947  37.6691842  69.0602112  27.5503182  23.8554025
  68.9352655  27.9732037  23.0058217  68.7196922  26.6639900  23.7341571
  72.4378872  22.3355317  61.2808466  73.0947208  23.0015326  61.4839315
  71.6029167  22.8015590  61.3241816  27.3441648   1.6479012  50.1464844
  26.7072964   1.0447440  49.7632980  28.0871725   1.0929127  50.3834677
  54.1660833  57.2680235  52.5121307  54.0422678  58.1764030  52.2368956
  54.1083384  56.7621708  51.7015696  -0.1772966  50.8089256  34.0203953
   0.5584347  50.8000040  34.6326470  -0.0162280  50.0638056  33.4415317
  45.3862906  63.0675554  57.7021265  44.5525837  62.7349901  57.3696136
  45.5923128  63.8092661  57.1332216  60.4460430  23.6458158  52.9345083
  60.9830570  23.3896565  52.1846867  61.0785055  23.9037347  53.6051035
  32.4139714  63.6428976  56.4061689  32.6118612  62.9297590  57.0132208
  31.6833591  64.1082954  56.8134069   1.7513746  10.0372815   8.4838527
   0.9117080  10.4537046   8.6782330   2.0842512   9.7595805   9.3372619
   8.5853857  26.7047381  21.0181689   8.5927522  27.1928978  20.1948357
   7.7259934  26.8881583  21.3976860  59.2858219  70.8579159  26.5484500
  58.5393524  70.9939146  27.1319962  59.7934103  71.6665936  26.6164136
  74.9610615   9.1912127  49.0260410  75.7935762   9.0357512  48.5799694
  74.5770502   9.9361879  48.5636759  36.1757255  67.7080631  54.9648523
  35.8902097  66.9614744  54.4382429  36.0614634  67.4200296  55.8705091
  51.7639875  63.0629969  42.3378277  51.2227869  63.8511276  42.2910833
  51.4930344  62.6341915  43.1495810  30.3838778  68.8878775  37.2887421
  30.5509496  68.0271339  37.6727128  29.6095324  69.2098045  37.7502465
  19.4472826  21.7207217   3.1871757  19.1984785  20.7972360   3.2259008
  19.7657609  21.9200921   4.0675479  65.4786348  10.8541059  54.3155956
  66.3111353  11.0469890  54.7468376  65.6568718  10.9799480  53.3835936
  31.4393187  35.5312228  18.8646591  32.2013450  35.7600999  19.3967891
  30.7138824  35.4953337  19.4881070  39.1732001  70.9529781  64.6524096
  39.4731927  71.7097855  64.1489363  38.9031911  70.3166151  63.9903212
   3.2576880   5.5959082  45.7445240   2.4545506   5.7176536  45.2381849
   2.9831415   5.6936550  46.6562843  54.4613361  73.4853029  59.9603844
  53.5420275  73.7496567  59.9954319  54.5512438  73.0425978  59.1164923
  41.8645144  14.4751620  57.1201706  41.5921164  13.8807929  56.4210606
  42.4188328  15.1213825  56.6827250  59.1479588   5.2232987  64.4642639
  58.2425356   4.9649006  64.2920113  59.6306372   4.9358669  63.6892557
  66.2337065  16.2899089  49.9424505  66.6796923  17.1263444  49.8093939
  66.0175419  16.2793982  50.8748627  19.3226433  15.1230395  55.1500654
  18.9563775  14.7940934  55.9709644  18.7043548  15.7956207  54.8644352
  42.7582693  58.0127716   2.3746625  42.7488375  57.7012253   3.2796943
  43.6751461  58.2294369   2.2054830   0.9573110  52.1870041  59.0359211
   1.0224407  52.6525402  59.8697519   0.2991344  51.5094471  59.1906691
  33.7326908  72.7118254  48.4835863  33.5251713  71.7811441  48.5672665
  34.0907335  72.9550886  49.3373156  27.0254874  61.0722733   1.4584042
  26.7182398  60.1977491   1.2195636  27.7312183  61.2558270   0.8383372
  14.3677223  30.2176499  64.3540096  13.4478891  30.4021811  64.1640425
  14.8071563  31.0620379  64.2533064  71.7629623  17.3251307  64.2489338
  72.5040865  16.7338598  64.1171694  71.7407179  17.8615832  63.4564972
   9.9526238  72.6717901  42.5730085  10.6533110  73.2857275  42.3531246
  10.3432250  72.0842600  43.2199001   9.6862239  70.6343603  55.8856487
  10.5413997  70.7205439  56.3069296   9.2791134  71.4941216  55.9919691
  39.9988818  25.4928684  39.4540191  40.0239182  24.5362711  39.4769979
  39.0702915  25.7101989  39.5359898  69.1680956  45.3815746   3.9349869
  69.0586567  44.4309378   3.9584318  69.9710321  45.5179024   3.4320584
  58.9327621  13.9365411  44.2699003  58.1830883  13.3414769  44.2806005
  59.4902182  13.6323953  44.9861193  15.8762741  18.8519347  51.2976885
  16.8088710  18.6540627  51.2120008  15.5077505  18.6456394  50.4386950
  64.3335056  13.4983766  53.0521250  65.2000523  13.1247437  53.2125235
  64.0328360  13.0704868  52.2504139  18.2125437  22.2464538  12.4352765
  18.5074985  22.6883674  13.2314849  17.5586140  22.8372455  12.0616806
  27.3640299  48.2525492  18.8781881  27.3356748  47.3919201  18.4601653
  27.5215173  48.8634205  18.1582808   8.4429246  17.3706126  53.6986160
   8.6645484  18.1858432  54.1486311   7.8837144  16.9001555  54.3168306
  58.0705452  58.6893034  40.3321028  58.5964298  58.6414003  41.1304617
  58.2133579  59.5771503  40.0041342  30.6824446   6.0040575  60.9431410
  30.3658867   5.1586866  60.6247520  30.8202577   5.8704627  61.8808985
  17.3972356  14.4427967  44.1768122  17.0923221  13.5758781  44.4446039
  17.9075313  14.2825556  43.3829880  22.5580955   7.8551048  19.2447984
  22.9476261   8.0827093  18.4005868  23.2607889   7.4132442  19.7214699
  40.5268764  25.7721043  29.8898673  40.1304770  26.6252303  30.0667000
  40.2575779  25.5636692  28.9952922  13.0627537  16.9191921  48.9127207
  12.5209856  17.6955831  48.7715292  12.4429357  16.2395585  49.1775894
  77.5305414  39.6600318  47.8384924  78.1996918  39.1099691  48.2458019
  77.6460791  39.5213056  46.8984747   3.2239902  62.7602243  45.0976324
   3.4400699  62.9600668  44.1868067   4.0471303  62.8807783  45.5710697
  68.5266304  63.0921316  32.5575161  67.5715494  63.0834436  32.4944377
  68.7714767  62.1683836  32.6119757  59.3047428  38.8200617   8.8417017
  59.0541601  38.7424994   9.7622579  58.4741354  38.8135982   8.3660132
  30.2391148  28.5884261  48.3908463  30.7341766  28.5944486  47.5716305
  29.7099352  27.7921200  48.3450556  74.0013170  38.9976454  20.9385872
  73.8684940  39.2520189  21.8517590  74.9520016  38.9442301  20.8406878
  20.7084846  47.9524231   7.9383779  21.0267210  47.0627022   8.0912143
  20.1972103  48.1615114   8.7201136  55.1686430  58.0515862  12.0878947
  55.0002098  58.7589025  12.7104425  56.0076380  58.2796526  11.6875088
  37.0678449   5.2093548  62.3260736  37.3441648   4.5395333  62.9515505
  36.8536210   5.9689790  62.8676558  13.6161053  12.7869976  14.8979545
  13.9882326  12.6990795  15.7754648  13.0575860  12.0163083  14.7963285
   7.2274321   1.8149185  44.3303108   7.8667021   1.9354427  43.6281443
   6.6636431   2.5865540  44.2759752  63.7872362   8.2745546  42.3240614
  63.7443018   8.9498037  43.0011320  63.0101871   7.7359140  42.4733686
  12.4445260  32.1336412  48.0504465  12.5252628  32.8841090  47.4617958
  12.1596587  31.4155149  47.4853134  29.0807581  72.2721243  29.5299816
  29.3877482  73.1769466  29.5873427  29.8233628  71.7477942  29.8297191
  23.5797596   1.4714164  11.0451233  22.7965093   0.9561047  11.2380028
  23.3273554   2.3735577  11.2417555  31.2161636  72.3482323  40.0973797
  30.7015419  72.4181271  39.2933202  31.1490440  71.4261436  40.3453159
  12.5435984  34.0061855  34.3284535  12.2662103  33.4706426  33.5851622
  12.2925436  33.4957910  35.0983238  10.1648432   0.1827768  52.3757029
   9.4492537  -0.4376170  52.5145340  10.2897841   0.5990556  53.2285404
  79.2420992  73.3106756  45.4670525  78.9654334  72.4505758  45.7831430
  79.1718843  73.8811159  46.2324905  10.1834488   1.6569945  50.1753807
  10.1458621   1.0613161  50.9237003   9.3165767   1.5930136  49.7745419
  64.1741228  70.7122993  53.6495876  63.4378242  71.3111448  53.7740183
  64.9188471  71.2839222  53.4628487  76.5060902  60.1040220  54.3004942
  75.8855343  59.5315075  54.7514629  76.6856956  59.6578884  53.4728813
  21.1183500  17.0876837  56.7748356  20.5486965  16.4559674  56.3359022
  20.7834744  17.1302211  57.6705360  31.9253111  21.2947011  62.3142481
  32.8684568  21.2372875  62.1612310  31.6909432  20.4447269  62.6868677
  33.5988736  10.7457209  47.6599169  33.0100250  10.6805527  48.4117413
  34.4674230  10.8613038  48.0452633  32.9834819  61.3509464  58.0534887
  33.7596369  61.1248159  58.5660124  32.2813916  61.4210129  58.7003231
  61.9923878  42.3544836  12.2962928  62.8421116  41.9154024  12.2586942
  61.8195105  42.4619675  13.2315946  67.9005384   5.8322257  45.4575634
  68.5878658   6.4969671  45.4135418  67.5915861   5.8667439  46.3628769
  71.7266655  73.2971859  60.5048227  71.0026741  72.7163410  60.2709723
  72.5122976  72.8205347  60.2368307   7.4380600   4.7659385  43.2637167
   6.8101639   5.2981293  43.7523365   8.2834387   5.1852548  43.4241533
  71.6445923  73.1329966  42.3871469  71.9598150  72.5674725  41.6821289
  72.4023628  73.6689186  42.6212549  28.6657047  36.8992186  13.8500857
  27.7229071  36.8746376  13.6864913  29.0572166  36.5563774  13.0467105
  49.5556164  63.3252478   5.5966949  48.6837578  63.0779648   5.2885604
  49.4400740  64.2013407   5.9645814  21.9156075  42.3068094  17.0680845
  22.6087880  42.1866989  16.4190030  21.5488553  41.4313316  17.1916246
  48.7741566  70.6884718  11.0968864  48.9132404  71.4796782  10.5764246
  49.6447372  70.4599285  11.4226007   1.0549628  31.7888165  50.0818253
   0.8426595  31.0331702  49.5339584   1.2718298  32.4827242  49.4591761
  16.9973254  10.8483469  31.7354465  17.8066444  10.3534889  31.8633080
  17.2322047  11.5343010  31.1105227  23.7666321  68.2627010   3.2038125
  23.9489937  67.8101683   2.3802875  24.5437503  68.1061745   3.7402990
  18.5065007  27.1106052  12.6996827  19.3343115  26.7293048  12.4071598
  17.8791797  26.8740606  12.0164931  68.4051323  58.9399481  49.8140717
  67.6906252  58.3940506  50.1422548  67.9961824  59.4969988  49.1517401
   1.4334852   7.8756905  42.5508785   0.5745561   7.7064848  42.9379702
   1.8657947   7.0216990  42.5445795   0.6344760  30.5997729  57.2191000
   0.8269201  31.2106347  57.9304695   1.1687496  29.8297215  57.4135351
  49.9079323  57.7170038   5.6091636  49.1261864  57.8472519   5.0723803
  49.7646952  56.8745661   6.0404533  31.1696696  74.3183517  19.3725181
  31.4873672  74.5707989  20.2394509  31.0459733  75.1481867  18.9117527
  31.0301900  17.0903051  13.4522998  30.5599904  17.1207130  14.2854965
  31.6780710  17.7919292  13.5171568  65.4069519  16.8012440  13.5007775
  64.8289156  17.5588250  13.5912037  65.8208847  16.7119873  14.3592215
  61.4201832  62.0205927  63.2860088  62.2776985  61.6267157  63.1255054
  61.5329075  62.9424667  63.0543423   8.5181791  66.6439486  52.4772024
   9.4619691  66.4843893  52.4715376   8.2712996  66.6533518  51.5524387
  13.1811440  10.4617536  39.4549060  13.0425572  10.6072104  40.3907824
  12.3413789  10.6814063  39.0514445  67.4455929  17.2307384  34.2882681
  68.1934500  17.1080339  34.8729777  67.7911663  17.0449209  33.4151816
   8.1134337  51.2338924  14.3856490   7.8026676  50.9603453  15.2486837
   7.3410803  51.1751842  13.8232839  68.3186579  54.4920158  53.1484890
  67.8313541  53.7880039  53.5764313  67.6621771  54.9564934  52.6293325
   7.2409379  24.5561314   6.0781616   7.5943798  25.3841186   5.7529706
   7.9562932  23.9300132   5.9664714  66.7771435  46.2013245  49.5930290
  66.7250681  45.6626177  48.8035250  67.7148676  46.2783098  49.7690296
  52.7293253  66.0787201  38.0940270  53.4852266  66.3917685  38.5908651
  52.5817633  65.1898718  38.4171391  49.5381689  15.3757071  -0.0239178
  50.2927303  15.5073404   0.5501360  48.9582920  14.7973502   0.4715436
   0.8670476  72.7308130  48.2242680   1.0397287  71.7926121  48.1456041
   0.9259699  72.9072952  49.1632128  60.8181715  44.2909384  49.8598242
  60.0301695  44.5609331  49.3882513  61.1181307  43.5086775  49.3968773
  55.9675360  50.1225424  14.6533072  55.7736254  51.0508728  14.5235360
  55.3132725  49.6650934  14.1251862  49.7083473  16.6265142  21.4670563
  48.9631367  17.2153389  21.5861368  49.7616863  16.4961421  20.5202770
  76.5581430   0.1685050  46.7887878  77.3955548   0.1558689  46.3253069
  75.9409631  -0.2363726  46.1793661  31.3618565  68.1167507  10.5303168
  30.7835436  68.0720806   9.7688764  30.8706689  68.6265802  11.1745536
   6.7182946  53.9864922  43.3162498   7.2364867  53.1837893  43.2581520
   6.2957132  54.0612268  42.4606371  58.9550877  69.1664696  29.6550155
  58.0872869  68.8054371  29.8361397  59.1772079  68.8317108  28.7862039
  69.7488976   3.7251374  45.2532339  69.3992043   3.5670105  44.3763399
  69.0419531   4.1755638  45.7153749  28.6320782  57.4532557   2.6945668
  28.3094406  57.6871681   1.8242672  27.8680229  57.5400782   3.2645801
  52.4828959  29.2026854  16.3673174  51.5952778  28.8451529  16.3441801
  52.3772383  30.0828695  16.7283499  39.5376945  16.1789656  39.1523695
  39.9092579  16.8430507  39.7330260  38.6950254  15.9582841  39.5491552
  53.1627798  72.4970818  55.7327127  52.2476006  72.6036596  55.9921789
  53.1749678  71.6853952  55.2255154  17.3658860  57.4578667  47.5018740
  17.1712148  57.6667261  46.5882492  18.1600809  57.9551649  47.6972723
  42.1694469  70.0325203  63.1212187  41.8977833  70.9355736  63.2853031
  41.7110348  69.7867441  62.3176718  76.6781807   4.5679620  34.5621967
  76.5642643   5.5030733  34.3924260  77.2652674   4.5314059  35.3173280
  21.0170102  43.7272644   8.6517406  20.6489038  44.3092155   9.3166173
  21.0808587  44.2708635   7.8664690  58.4021139  74.2626715  64.0760756
  58.8285923  74.5339298  64.8889494  58.2624245  75.0783920  63.5951185
  23.9122868  14.0514362  63.7038374  24.8490095  13.8546753  63.7119675
  23.8677764  14.9996150  63.5805225  45.7719803  67.2474957  47.8411627
  44.8344660  67.1732616  47.6628828  46.1725664  67.3500586  46.9778872
   4.9026406  23.7300396   5.3646505   5.7608110  24.0234280   5.6707543
   5.0983983  23.0885434   4.6817207  42.4401808  44.0030527   4.0547985
  42.3613358  44.3425322   4.9462962  42.8213787  43.1317377   4.1631418
  42.2521830  35.6021333   3.9092112  42.2481871  36.5592289   3.9227313
  43.0365801  35.3729129   3.4108007   5.3750879  12.4202311  52.5431919
   4.9770102  11.7191184  53.0591440   4.6321169  12.9187644  52.2030592
  29.8868179   5.5598229  52.7931547  29.7117257   4.7099620  53.1972742
  29.1180754   6.0890484  53.0057335   7.9935157  26.1588144  36.3231993
   7.5752455  27.0139599  36.2231588   8.9295542  26.3538289  36.3682795
  79.0118694   8.9409357  51.9724369  79.8862696   8.5598630  51.8921947
  79.1007853   9.8227268  51.6108131  25.2725482  15.5014741  53.2335043
  24.9164605  15.7945573  54.0722752  26.1970520  15.7472706  53.2667732
  50.6595707  25.5979824  36.2710857  50.6827116  25.8679199  37.1891451
  50.1538706  24.7852731  36.2730718   7.6884156  19.9364173  48.9215374
   7.2284472  19.1339850  49.1680384   7.9860967  20.3067493  49.7524834
  34.6527648  21.2030220  61.9043398  34.5846272  20.9348822  60.9879923
  34.9976158  20.4318953  62.3545313  32.9320645  30.2901626  29.7330761
  32.6024604  31.1260247  30.0631142  32.2101736  29.6768546  29.8707676
  32.2002029   1.8410261  31.8391752  31.6007161   1.9721752  31.1045671
  33.0055094   2.2849156  31.5733266  32.1147323   8.6865938  60.6246853
  31.9556046   7.7427536  60.6333685  32.9021621   8.7918246  60.0907230
  69.7571039  43.7488604  27.7188754  69.7086477  43.8658142  28.6676669
  69.7728348  42.7998352  27.5950265  30.2597976  30.2407980  20.6254697
  29.3059540  30.1727295  20.5832362  30.5322075  29.4765162  21.1333084
  21.5209126  55.2670622  13.6327350  22.0429492  55.8886385  14.1400301
  20.6136560  55.5149269  13.8107216  29.4347644   9.4470114  51.0101318
  29.4788790   9.4580680  51.9662523  29.8285723   8.6106473  50.7618523
  34.5009184   8.6626220  52.8707170  33.7314224   9.1778511  53.1128883
  35.2446532   9.2065084  53.1300974  33.7598658  70.2116632  46.2128496
  33.7306452  69.3614388  46.6515970  32.8709364  70.5561495  46.2986755
  18.0429757  33.0493116  57.4754667  17.6106596  32.3389935  57.9495811
  18.6470163  32.6065564  56.8793678  26.0638356  13.0775642  54.8540163
  25.3981471  13.2701206  55.5143309  25.5645037  12.8397644  54.0727663
  41.0092497   6.6641527  52.3913622  41.1831141   5.7299042  52.5061798
  41.8562603   7.0852053  52.5380659  27.3275661   0.5526884  64.8919392
  27.9505849   0.0752034  64.3441391  27.6359630   1.4586167  64.8715544
  34.7799873  62.6217413   8.1220627  34.1303420  63.1080198   8.6297280
  34.9724555  61.8505764   8.6554426  60.4896879  39.9219656  16.2379861
  60.3553724  40.6489658  15.6299853  59.6338987  39.4971538  16.2961614
  29.9324727  32.0871639  42.4954891  30.3622055  32.0039296  41.6442347
  30.4814720  31.5779424  43.0917501  70.4972649   7.1419948  48.3708525
  70.9802675   7.1093392  49.1966105  70.9692669   6.5420008  47.7934027
   7.3407435  15.7066154  61.4448261   7.1542925  15.7534528  62.3825216
   8.2010514  16.1156297  61.3509655   8.9475882  45.9764242  60.5246449
   8.8980407  46.5560532  59.7645092   8.4229499  46.4146996  61.1946440
  42.9055023  28.3889341  21.8727326  43.8422394  28.1963301  21.9134545
  42.8477335  29.3314457  22.0294785   0.2615483  54.6532726   3.3071154
   0.4870594  54.1145372   2.5487348  -0.3365776  54.1084242   3.8186049
  47.3133326  52.1802187  12.6426375  47.6011515  52.5124025  11.7923152
  47.7875757  52.7130508  13.2809293  72.1230316  69.3962908  59.5291519
  72.5713730  68.7153435  60.0306845  71.2086105  69.3342543  59.8052359
  22.1066856   9.2167550  60.4116058  21.8220663   8.7235016  61.1809683
  23.0121160   8.9398575  60.2710533  54.2264879  59.4146801   0.2948759
  53.7695063  60.1032210   0.7778976  53.7578309  59.3546534  -0.5375864
  69.9221468  54.1350508  59.8971796  69.8936415  53.3975458  59.2876673
  69.1602135  54.0081501  60.4624987  10.7126677  11.1774707   9.2662072
  11.5665948  10.8946013   9.5933551  10.5403197  11.9992280   9.7258204
  33.4970498  25.2749276  17.6507914  33.3309913  25.8704758  16.9200540
  33.4693789  24.4018888  17.2592950  38.5936236  39.3167162  12.5031447
  37.9696941  39.7710514  13.0692899  38.0489802  38.7708879  11.9359899
  17.3429930  53.8847828   7.6329291  16.7847204  53.2486725   7.1857953
  17.5911427  53.4528589   8.4503013  15.5559063  55.3212500  54.1589928
  15.5635905  55.3309107  53.2018757  14.6517777  55.5306435  54.3933821
  74.4456339  45.0860262   7.8758752  73.7783194  44.6206331   8.3801818
  74.6489000  44.4985056   7.1480465  60.4593086  70.8587456  47.7790260
  60.0025654  71.4849710  47.2173691  60.4388428  71.2578297  48.6488199
  19.5394075   9.3627161  48.8295364  18.8491797   9.2689973  49.4860697
  19.6290493  10.3081238  48.7095356  65.4612684  71.1935711  19.0071213
  64.7132683  70.5972624  18.9732766  65.2755642  71.7688560  19.7492766
  60.1408148  60.2986097   3.7623438  59.6088028  59.8356819   3.1151241
  59.6908522  61.1339140   3.8889787   2.1951142  21.2181044  34.9538302
   1.9755046  21.0257626  35.8654261   3.0586287  20.8249235  34.8274040
  77.9418802  51.2358189  44.8172617  78.7467957  51.7123795  44.6142101
  77.3342705  51.4841604  44.1205740  70.2811146  61.6315651   8.3459198
  69.3540525  61.5936756   8.5811985  70.5067015  60.7303858   8.1152397
  43.6544514  47.8134584   4.3347061  43.2882261  46.9462824   4.5082456
  42.9607248  48.4217930   4.5894754  77.5932837  36.4502621  60.8632278
  77.3831177  36.1153507  59.9915075  77.0025063  35.9781694  61.4500332
  76.3821077  72.7039576  48.6101198  75.5555439  72.6856327  49.0924978
  76.1272287  72.8822756  47.7048731  75.1294994  28.1998730   1.6992249
  74.4643450  28.4660864   1.0644550  74.6310854  27.8258395   2.4258028
  35.6387043   5.5506879  44.4518185  35.8227587   4.8443243  43.8326168
  34.6919799   5.5100137  44.5870590  58.3251381  71.9906092  29.7553635
  57.5246906  71.8611908  29.2466712  58.6456680  71.1051416  29.9269485
  56.3267517  20.6514859  34.6348262  55.9616566  20.2193379  35.4069567
  56.9095087  19.9981546  34.2478037  31.1572742  22.1398330  56.1841345
  31.0470796  23.0118346  55.8050489  30.8209491  21.5435743  55.5151081
  74.2829084  28.1791759  49.6081686  73.5809374  27.5335050  49.6892405
  73.8843203  28.9078450  49.1323471  22.8226328   4.7599545  59.5455170
  23.6116982   4.9108565  60.0659323  22.1018910   4.9974465  60.1289177
  21.0192156   6.3564891  36.4215255  20.3304195   6.3736635  37.0859766
  21.7162061   6.9027501  36.7848921  56.4429855  61.4679241  38.7733769
  57.1841526  61.3801384  39.3727088  56.4580250  60.6637239  38.2544613
  57.5112867  43.5708332  33.7303591  58.1091547  44.2402077  34.0631056
  58.0767250  42.9549885  33.2642674  77.2629642  65.0796938  44.2517042
  77.6350117  65.9569502  44.3424320  77.6682472  64.7284698  43.4588480
  46.5804577  32.1946335  56.0569668  46.0206842  32.9704905  56.0264826
  47.4179173  32.5164676  56.3906145  10.5611777  56.2379074  11.4622700
  10.1562738  56.0660028  12.3124075  10.9531486  55.4018116  11.2102151
  43.2782602   5.5548656  60.3561449  43.8545132   5.6672341  59.6001434
  43.7030506   6.0497832  61.0567474  36.4540267  20.2941227  44.9536753
  36.1223698  20.5324125  45.8193874  36.9638467  19.4979310  45.1033211
  53.5834646  53.4277153  29.8365545  53.9968824  52.7476215  30.3683281
  54.1336823  54.2002535  29.9656844  62.9198265  56.3135862  54.7195673
  63.6997938  56.8560076  54.8364592  63.0423403  55.5838966  55.3268385
  10.6413269  17.6265693  63.9950371  10.8048594  17.7465022  64.9305058
  11.5075028  17.6820219  63.5914326  47.4903202  17.1193683  36.1216187
  47.6313782  16.8522251  35.2133393  46.8217230  16.5168202  36.4474177
  41.1156845   3.6910599  50.9469128  41.2999439   2.7828062  51.1864042
  41.5448952   4.2099318  51.6271925   6.4695644  20.5110908  25.1587653
   7.1376979  20.3310871  24.4973826   5.6438422  20.4981542  24.6747756
   7.6566589  69.5726109  23.5629010   7.6044464  68.9703798  24.3050766
   7.0409387  70.2729273  23.7789464  74.2181778  74.5840454  24.9015307
  74.2633295  75.5366707  24.9833775  74.9637508  74.2643881  25.4096341
  59.1547585  74.8070335  50.6084347  58.4454203  74.9592066  49.9839973
  58.7217808  74.4349766  51.3767624  59.7774744  63.6975336  19.8664999
  60.5770540  64.0117693  19.4444060  59.0679932  64.0689659  19.3421924
  31.5072465  11.6808069  59.8965645  32.0569229  12.4507058  60.0426579
  32.0185590  10.9514606  60.2470541  36.7028594  23.2448649  61.4778137
  36.9947481  22.3397279  61.5862656  35.8276415  23.2623053  61.8650055
  13.3250654  42.5300837  54.4008636  13.6237693  43.3733511  54.7413063
  12.5733972  42.7471113  53.8493872  27.8234100  36.4779329  39.9204230
  27.6553178  36.0896063  39.0618324  28.6318541  36.0606217  40.2179098
   2.8937286  66.4083385  62.4070692   3.7738612  66.1295652  62.1543169
   2.8330383  66.1949158  63.3381939  33.6932731  24.6880412  22.3367548
  33.8363934  23.7442756  22.4078417  34.2651415  24.9637246  21.6203761
  34.6274352  53.3448219  18.2732058  34.9789095  53.6323643  19.1158307
  33.6896133  53.5278940  18.3298361  51.0402870  25.5396247  64.3219709
  51.9099236  25.2470875  64.0492344  50.4623795  24.8082709  64.1043139
   9.7462988  43.2967377  59.5424271   8.8581926  43.0795431  59.2590094
   9.6444619  44.0975857  60.0567293  33.2366252  22.6803780  46.1616135
  33.0695915  22.8585601  45.2360964  33.6635065  21.8236566  46.1673450
  32.2705221  25.0193691  56.2842703  32.5892258  25.8803272  56.0133266
  33.0341506  24.5927310  56.6729641  25.7037044  40.4173231  16.7914939
  26.6264939  40.6223631  16.9420004  25.7148838  39.7585821  16.0971093
  34.6278000   9.8283601  43.9529991  34.6939254  10.7490921  44.2061996
  34.8158932   9.3446708  44.7572994  46.9683695  68.4725285  15.8257544
  46.2274313  68.4982920  15.2202988  47.5164986  69.2127037  15.5651259
  16.1501467  56.0246038  42.9431677  16.9076741  56.0317850  42.3580742
  16.2703705  56.7937613  43.5000992  77.4779606  22.4178505  14.3902969
  77.3307133  22.0343518  13.5257292  76.6057539  22.4691510  14.7812653
  13.9198864  25.3127885  60.0737333  13.2344532  25.3412771  59.4061947
  14.0357316  24.3807530  60.2584457  24.9454117  68.9022493  61.1710310
  24.4612336  69.5577669  60.6689358  25.5479503  68.5124016  60.5376291
  15.2423775  34.9156213  19.3804240  14.8025215  34.3347025  20.0011420
  14.5619333  35.1519060  18.7500298  65.8903837  50.1736927  61.3989449
  65.0097132  50.4929018  61.5958118  66.3947153  50.3582144  62.1913052
  47.7317286  25.2655840  31.6885757  47.0867729  24.9299431  32.3111582
  47.2098732  25.5902267  30.9547448  53.4102821  35.8500576   7.6196766
  53.4069395  35.0314260   8.1157231  54.2349911  35.8325124   7.1341079
  73.3888721  35.5051017   1.6760632  72.6739407  34.9829865   2.0400725
  74.0624905  35.4958916   2.3560503  25.4338729  75.0263914  37.9040647
  24.6528136  75.2159526  37.3842168  25.7134997  74.1598169  37.6089549
  73.9039898  45.8856916  60.7178164  73.2690716  45.1851892  60.5681229
  73.8033533  46.1063147  61.6437912  30.1490450  31.9418001  37.7244806
  30.9677148  31.4839268  37.5337911  30.4148841  32.8441787  37.9013181
   5.4581439  48.9794207  27.8075266   4.8630875  49.1446400  28.5388565
   5.6645507  49.8492670  27.4654746  72.2949409   8.7221140  19.4279575
  72.8706551   7.9711449  19.5722866  72.7187014   9.4420677  19.8952115
   6.2342083  45.7418633  47.6234150   5.5252343  45.2352476  47.2272778
   6.1782748  45.5420113  48.5578489  58.9347029  25.9058213  52.4957609
  59.3677616  25.1132822  52.8128862  59.0790701  25.8953738  51.5495682
  75.1953459   9.7348708  44.8553801  74.6180105  10.4806983  45.0186634
  74.6048975   9.0267265  44.5982075  21.5969062  19.2574668  21.5948558
  21.4894009  18.8418686  20.7393146  20.8549047  19.8581743  21.6642594
  64.1895199  12.0293713  40.2361631  64.9093246  11.7986321  39.6489024
  63.4103346  12.0060039  39.6806931   0.6507705  13.7871838  49.4882393
   1.1907369  14.5112562  49.8050785   0.1803565  13.4819186  50.2639675
  25.3851748  52.9043913  59.7941303  25.0132227  52.2679186  59.1835642
  26.0023952  53.4106112  59.2659140  24.3454766  11.9848347  52.4431658
  24.2507362  11.0423851  52.3051596  25.0924492  12.2327793  51.8983841
  30.0171256   3.2061684  63.8769245  29.8594046   2.5325444  63.2154226
  30.5204201   2.7599072  64.5579386  51.4420938  41.5295792  60.5122375
  51.9019365  41.3726425  61.3369465  50.9457350  40.7257843  60.3580523
  53.5190201  23.1294250  23.0483532  53.0777073  22.4629951  23.5749888
  53.3653116  22.8596997  22.1428943   9.1887802  12.3067772  53.1643915
   8.4651476  12.3247349  53.7907028   9.5399088  13.1971371  53.1785011
  26.4630461   1.8761656  44.5899534  27.3346186   1.8034652  44.9789381
  25.8685184   1.5725511  45.2759457  72.0827532   9.2930973  47.2723007
  71.3318205   8.8961828  47.7136564  72.8373003   8.7981790  47.5915813
  32.0250463  19.9532318  29.9919724  31.5490532  20.4463172  30.6602001
  32.6862836  19.4636464  30.4811621  33.4118557  22.5851202  40.9244776
  33.8563442  21.9209909  41.4513493  32.5537539  22.2056723  40.7349682
  43.1485796   5.7407343  39.4051194  43.5554171   6.3941860  38.8361597
  43.1602144   6.1400336  40.2749777  69.2416382  39.6325731  28.8540697
  70.0268936  39.8831606  28.3674407  68.5156155  39.8850155  28.2836318
  49.1493559  19.3484700  46.5770054  48.2776546  19.7436619  46.5909576
  49.1684532  18.8390744  45.7668304  42.3854923  40.6697226   1.8478902
  42.8437042  40.9871006   2.6260585  42.9982996  40.8249283   1.1291327
  21.9787025  23.3234358  55.6140232  21.1079836  23.2767415  56.0088682
  22.5417519  22.8389359  56.2177372  38.9456272  27.2659564  48.3939219
  39.1673732  26.3496447  48.5595512  39.7740912  27.6699758  48.1357622
  39.6532655  24.5661688  48.3771324  39.8081923  23.8124251  48.9464331
  40.4229116  24.5994163  47.8090000   2.8120473   6.9538462  29.5921683
   3.6115220   6.4789772  29.3650746   3.0316627   7.8745425  29.4496202
  47.9665756  62.9877996  46.9015884  48.8068008  63.0963564  47.3470926
  47.3590183  63.5347223  47.3995638  19.8476017  19.3746841  54.8104382
  19.7333753  19.9682510  54.0682364  20.7332492  19.0271723  54.7051096
  23.9468837  10.0316548  29.8348236  24.1496968  10.9594059  29.9547267
  23.2703447   9.8481965  30.4866457  36.5382385  46.6853952  15.7703269
  36.9902873  47.3165941  16.3302088  35.6255865  46.9740009  15.7723510
  17.4179256  32.1516562  46.9673538  17.7762735  32.9080653  46.5029573
  16.5873528  32.4629593  47.3271751  57.4431705  26.1487031  22.5774336
  56.9196367  25.4711866  22.1495128  58.3445644  25.9512472  22.3230147
   0.6980710  54.8582888  45.3066158   1.6338456  54.9767256  45.4694986
   0.3033705  55.6927156  45.5599546  76.3832426  46.5958738  41.8690777
  76.5131187  45.7738066  41.3962460  76.1969709  47.2388554  41.1848974
  31.8593216  54.1627502   6.4553642  32.5291300  54.3931293   7.0991927
  31.9251037  53.2115269   6.3712138  24.6940899   1.6212343  46.6097260
  24.6917892   2.4788323  47.0348740  23.9827967   1.1415529  47.0342255
  20.6214643  71.1280775  19.7655690  20.4601598  70.2837610  19.3444514
  19.9541759  71.1860323  20.4493809  62.4217033  26.5197277  57.4523258
  61.8273973  26.0379052  58.0275536  63.1475353  26.7782903  58.0202579
  57.4454355   8.8136423   8.4485334  56.6729784   8.5647595   8.9560759
  57.5786257   8.0850136   7.8422385  34.9952841  20.4675484  52.8501320
  35.0304770  20.6075406  53.7963820  35.5820584  19.7272563  52.6955462
  31.7920399  35.4981709  49.7123051  32.5332308  35.7893515  50.2434206
  31.7106318  34.5643592  49.9062109  37.6292658  49.7369432  12.9679275
  37.3736238  50.0386190  13.8396311  38.3861566  49.1717386  13.1225002
  44.6354675  58.0987310  15.6266141  44.1345739  58.4029865  16.3834250
  44.7954893  58.8895750  15.1116502  17.3721278  63.7146950  20.5876327
  17.1707308  64.4698334  21.1402988  18.2987022  63.8171959  20.3704095
   2.9661933   0.8556219  59.5137644   3.0378398   1.3917658  58.7240505
   2.4043179   0.1245425  59.2567587  10.3059280   6.1392611  50.1620817
  10.3841245   5.2279723  50.4443359   9.6503991   6.5163392  50.7488728
  27.9551435  23.5430837   8.5318613  28.2102633  22.7309656   8.0941296
  27.1202803  23.3366084   8.9521015  40.0454378  64.0900660   2.5141707
  39.6491766  64.3632555   3.3415633  39.5921326  63.2778692   2.2881514
  13.1230354   9.9396348  43.9695120  13.4686720  10.6992722  43.5007715
  13.2800782   9.2023641  43.3795929  34.4962502  17.8611577  15.6858373
  34.5398378  18.0344999  16.6262007  33.6754942  18.2660913  15.4054379
  78.5326862  -0.1237490  51.5757656  78.5986805   0.4774936  50.8338833
  78.0413723   0.3642619  52.2365856  26.3371515  54.9982405   1.2563770
  27.1490407  55.2049828   0.7934235  25.7593775  54.6442795   0.5802696
  35.1509714  14.0814400  20.5787802  35.0128126  13.1633139  20.3459978
  34.3045282  14.4989586  20.4192638  45.0610542  30.0876188  42.6503849
  44.4135761  29.3879366  42.7366972  44.7541142  30.6077075  41.9077349
   7.4333686  22.6628876  43.0120039   7.5900406  23.6037803  42.9319715
   6.7163754  22.5922203  43.6422110  10.7342112  24.8937368  51.2149668
  10.1796174  24.2443943  50.7825184  11.2410355  24.3898582  51.8517303
  12.1329820  36.2059140  52.5541258  13.0191672  35.8516717  52.4805069
  12.1637297  37.0307517  52.0694304  69.4631195   6.0715121  37.6350665
  70.3940248   5.8809489  37.5196290  69.0195513   5.2628666  37.3789930
  44.6830225   2.7922693  53.5567236  44.5852041   3.1271338  52.6653624
  45.3256607   2.0871946  53.4785223  27.9803443  10.7991457  44.7872114
  27.4361205  11.0766947  45.5241108  28.7077594  10.3261888  45.1914549
  68.4624386  41.1994600  56.6130400  68.9177418  41.5819216  55.8629370
  68.7244987  40.2788448  56.6083479  28.8747883  25.3311586  63.7311745
  28.6040354  24.4488859  63.4771729  29.0288544  25.2722812  64.6740580
  24.8459744   8.5278726  59.7880316  25.1914835   9.2577493  59.2740917
  25.4046583   8.4961301  60.5646229  35.5430579  68.1977844  13.7408483
  36.4152384  68.0317593  13.3831227  34.9711227  67.5933218  13.2678294
  29.8763299  44.3380499   1.8089850  30.3462791  45.1014185   1.4733508
  30.5445170  43.6559772   1.8763229  17.8840947   5.8628315  61.0615540
  17.3949420   6.0396475  61.8651104  17.7970552   4.9185741  60.9310389
  78.4961796   7.3584169  43.6445475  77.6371527   6.9371986  43.6149311
  78.3129120   8.2866460  43.4995127  34.3082786   6.3114661   0.1201872
  33.8464975   6.8171990   0.7889342  34.0104008   5.4114413   0.2523082
  51.1646271  13.4060884  18.9042842  51.0520172  12.7748156  18.1936181
  50.3221178  13.8570035  18.9598453  56.4431524  67.5211763  42.1091843
  56.6949606  66.8102932  41.5197182  57.2593975  67.7762365  42.5392056
  48.9882278  30.6053233  41.3538980  48.9216852  31.2080526  40.6132746
  49.9158287  30.6172299  41.5897942  78.6709118  73.4762001  57.4460173
  79.1145182  73.5152149  58.2933187  78.9159918  72.6236629  57.0863771
  71.5600109  46.7852068  14.4253159  71.4866114  45.9831667  14.9425948
  71.0682678  46.6000414  13.6252320  47.2656488  20.0119758  49.6656656
  47.3577690  20.9426594  49.8695564  48.1646252  19.6979940  49.5682716
   4.4705957  18.3303320  53.9930916   4.4258291  17.5044036  54.4748259
   3.8931391  18.9211690  54.4765043  43.1566000  63.5859108   9.4951147
  44.0733147  63.7947130   9.6747327  43.0459547  63.7752199   8.5633683
  39.4923878  25.8790779  44.8536921  39.3876266  24.9569178  45.0879478
  38.8640356  26.3402247  45.4093409  21.4592218  71.1768770  34.9129581
  20.8248901  70.4765463  35.0659060  21.7109179  71.4676905  35.7894897
  11.6178167  73.6195850   4.8916999  10.6684589  73.5183859   4.8230541
  11.8642056  74.1069031   4.1055390  24.7200775  18.3341897  59.1660118
  25.2286029  18.9505577  59.6930027  25.3709912  17.8892589  58.6232615
  74.5397472  54.1883612  39.2174911  74.3354607  53.8401604  40.0853920
  75.3926134  54.6098804  39.3231964  38.3361268  22.0491099  14.9153900
  37.9158354  22.1922183  14.0673876  37.6970625  21.5430069  15.4170728
  69.7231436  29.8488355  57.7387571  70.0271416  30.2554750  56.9272995
  68.8380384  30.1919413  57.8616381  26.7168403  72.5111055  30.8990240
  27.5274634  72.3110962  30.4309249  26.5056896  71.7038584  31.3680577
   5.7660758  23.6397696  30.7020354   5.6292617  23.4311390  31.6261506
   6.1770469  24.5042181  30.7099533   7.0060122  74.4351196  38.3526254
   7.8655624  74.4280672  38.7737608   7.1799791  74.7279215  37.4580693
  57.7312088  74.3502092  56.2580252  57.5152540  73.6852026  56.9117546
  57.4791145  73.9559650  55.4230070  47.9878330  15.1267147  48.9865637
  48.6792040  15.7170367  48.6869717  47.3447847  15.1316404  48.2775497
  19.5886457  29.3356586  61.7890167  19.3979406  30.2588868  61.6231441
  18.9176226  28.8606477  61.2987852  61.1695433  19.0803599  37.8630543
  60.3095007  18.8080251  38.1830430  61.3549089  18.4842300  37.1374488
  35.7492185  21.5069199  29.2736101  35.0705814  21.2279797  29.8883271
  36.5707588  21.3692451  29.7451496   4.1913161  32.6629972   3.8187724
   3.7352759  33.4956574   3.6965659   3.6388424  32.1746564   4.4291243
  49.1212416  22.1159124  21.4775634  48.1641960  22.0987606  21.4762282
  49.3543386  22.5402308  20.6518197  24.8973155  22.4610162  49.8164129
  23.9651418  22.3996544  50.0250196  25.3394890  22.1140742  50.5912352
  34.0695333  51.2527609   9.2355245  34.9158168  50.9575176   9.5714855
  33.8147426  50.5801916   8.6038882  45.2183247  24.8254156  39.7067475
  46.0416269  24.3581915  39.8485422  44.6169472  24.1568589  39.3787074
  59.5796490  55.3855228  27.7314663  60.0025892  56.2428331  27.6827979
  58.8158131  55.4624748  27.1597481  61.3584280  13.8942409  29.1396189
  60.4970360  13.4921360  29.0276122  61.7928934  13.7686610  28.2959962
  61.7118740  23.1285429  23.9591932  61.5367079  23.3758807  24.8671436
  62.6606941  23.2142949  23.8663816  58.7355566  69.8102522  57.4434996
  58.6081219  70.7194805  57.7142286  57.8551912  69.4960976  57.2373581
  60.4768324   0.4121108  47.7153921  60.2874565  -0.5256303  47.7471638
  60.0818872   0.7085723  46.8954182  56.2291670  33.6193657  39.9243331
  57.0101547  34.1369629  40.1202393  56.1820602  33.6093473  38.9683461
  77.5829983  13.6921430  34.8744369  78.0695248  13.4318185  35.6565833
  77.0291281  12.9374540  34.6746612  27.3019814  19.8979473  38.8861465
  26.8122244  20.6406784  39.2392993  26.8619227  19.6911347  38.0616403
  32.9715323  27.4808383  38.1543612  33.8698316  27.3795605  37.8396630
  32.9152989  26.8964934  38.9104104  51.5579462  14.3702006  29.4727540
  51.8528509  14.4887793  30.3756380  50.6642151  14.0373242  29.5544672
   8.7531829  52.8184223  48.7281656   8.6693680  51.8837547  48.9168644
   8.6139607  52.8854799  47.7835226  22.4451971  70.0910711  51.4699745
  22.6232314  69.8002148  50.5755806  21.6413450  70.6058550  51.3988876
  78.8885355  15.7313275  41.9084311  78.8881969  16.2297595  41.0912418
  79.6504259  15.1561952  41.8378687  46.8103790  14.3324053  39.5138836
  45.9715557  14.2208564  39.9612784  47.2699785  13.5050273  39.6568704
  24.1087890  59.9800777  14.0049756  24.4460344  60.6220198  13.3801484
  23.1683207  60.1541424  14.0431118   0.1459124   9.2632008  47.4887514
   0.2249502   8.3283114  47.6783991   0.8087322   9.4284457  46.8182325
  44.6847677   8.8539445  37.5841618  44.8980474   7.9287803  37.4624395
  45.4865456   9.3182230  37.3436856  65.6727266  74.6284342  15.2213085
  66.4433146  74.0623903  15.2661967  65.5600786  74.8060513  14.2875016
  12.6439118  33.0802870  56.0006428  12.2492349  33.1421423  56.8704939
  11.8994808  32.9902124  55.4057121   8.4323233  58.1426382  45.8306217
   7.8299856  57.7226877  45.2165699   8.2771504  59.0800810  45.7150745
  25.7438540   5.4186279  57.5618792  25.6334591   5.2941430  56.6192484
  25.5912375   6.3535076  57.6995039  40.5029821  11.1110878  13.5722244
  40.7922029  11.9693041  13.8821447  41.2958574  10.7019436  13.2255507
  27.8864884  57.8662062   7.2116262  28.8284111  57.9441690   7.3630691
  27.7410150  56.9286060   7.0852482  62.4504614  28.9221478   4.8495150
  62.4425173  28.0274367   4.5094261  62.6740503  28.8245749   5.7751060
  48.7591934  38.3085060  63.0836916  48.5849047  38.0952382  64.0004110
  49.3750143  39.0403605  63.1209469   2.6692858   4.1401827   9.4313931
   2.2767225   4.3187684   8.5768569   3.2725933   3.4145862   9.2708892
  44.6980667  61.1231852  14.9259353  44.1522741  60.6232643  14.3189585
  45.3277588  61.5756941  14.3647265  41.2958765  17.6983142  50.6223631
  40.4900551  18.0082858  50.2090788  41.0043764  17.2831869  51.4341068
  22.1165276  33.1086850   7.6512748  22.2566199  32.9067516   8.5763854
  22.9982233  33.1941891   7.2886002  34.2097998  36.2318325  51.1598539
  34.9943137  36.7450881  50.9666252  33.9346457  36.5318751  52.0261669
   5.7798660  74.3979502  52.4168205   5.8847910  75.1963902  51.8994141
   5.8038360  73.6902761  51.7727280   7.7300256  40.1617241  46.6554928
   8.5635048  40.3485441  46.2234688   7.5068635  39.2750573  46.3722038
  53.4753799  19.3353939  62.0888519  52.9555035  18.9713252  62.8053856
  52.8325176  19.5575762  61.4153576  39.2323637  41.3493919  57.7165461
  39.0878105  40.8984995  58.5484314  40.1179552  41.0951805  57.4570560
   6.8747526  11.9962275   4.5088869   6.3522935  11.3775206   5.0192487
   6.4181674  12.0603907   3.6700511  28.9880657  24.5773411  59.0587330
  29.8206687  24.1942215  58.7826443  28.3491349  23.8751149  58.9367533
  12.5720632   6.8445212  51.9335651  13.1564343   7.5032467  52.3088264
  11.7066801   7.0695841  52.2751617  18.6369503  28.1015754  57.3543167
  17.9870343  28.3515787  58.0110788  18.3960831  27.2088814  57.1066952
  31.2804103  64.5185804  14.6092081  31.6156173  65.1185846  15.2754390
  31.4091802  63.6475849  14.9847209  29.1472292  35.7876635  28.2818961
  28.7462926  35.5673409  27.4411011  28.7974930  35.1379132  28.8916039
  39.4816613  16.2336314  46.5009260  39.0449119  16.5136290  47.3053408
  39.7687984  15.3389025  46.6832542  15.5048978  33.9826488  48.0934429
  15.5427897  34.7472262  48.6680889  15.5334258  34.3464637  47.2085381
  61.0113478  17.1637619  43.2721806  61.4939690  17.8479385  43.7360907
  61.6908693  16.6113722  42.8857279  76.7456532  15.5270720  45.3297424
  76.9457579  15.2655387  44.4309711  77.5960350  15.5456507  45.7687569
  73.3598423  59.9175072  25.0605679  73.1017780  60.0160408  25.9770417
  74.1993380  59.4590092  25.0960970  54.1637945  72.4341631  12.5989377
  54.3936348  72.1726561  11.7072976  53.2198954  72.5899267  12.5670671
  50.5576372   3.6983174  52.1366501  51.2344027   4.1963252  51.6781664
  51.0173893   2.9349917  52.4862051  71.6724491  22.8736687  52.4303627
  70.9706306  23.3953834  52.8195858  71.2270403  22.3006558  51.8062687
  49.0832424  70.8631134   6.0304880  49.4666576  70.3931284   5.2899903
  48.1933308  71.0721827   5.7466197  23.0998755   5.2164370  37.9354620
  22.5717235   4.9011546  37.2020555  23.3875632   6.0886836  37.6659179
   0.6557146  20.9627461  44.9430323  -0.0560474  20.4745340  44.5291805
   1.4533529  20.5475187  44.6150255  33.9314437  26.4327979  63.9990807
  33.8507509  25.7199335  63.3654022  34.5831990  27.0204329  63.6168051
   7.1768886   8.8094318   1.3189135   7.8506076   8.4440452   0.7454789
   7.4427426   9.7194010   1.4512406   6.3859308  26.8192959  38.8694000
   6.6084868  25.9141469  38.6516738   7.1158236  27.1221113  39.4095755
  74.6825361  27.7144194  17.5493741  74.1778994  28.2351804  16.9245672
  74.0822172  27.0209670  17.8231859  26.8915391  64.0544176  50.7890129
  26.0601854  64.5050621  50.9373474  26.6692710  63.1240463  50.8242321
  60.7269239  69.5531511   8.1564224  61.0188246  69.5945835   9.0670860
  59.9116564  70.0545359   8.1431830  25.4313493  62.8555965  60.0067663
  24.5003343  62.6744652  59.8777962  25.4657674  63.3703232  60.8130550
  23.5751367  30.9366274  50.7493544  23.9629126  30.8944321  49.8752403
  24.2562532  31.3300753  51.2947989  34.6555901  37.2116232  39.5466733
  34.9040723  37.0227766  38.6417818  35.4802060  37.1851206  40.0320005
   8.3774763  71.2855911  11.5490270   9.0452218  71.0472250  10.9059632
   7.8770071  71.9839191  11.1270106  59.8344326  16.4680040  40.8098078
  60.4536963  15.8411086  40.4359818  60.1494408  16.6128588  41.7020035
   2.3766644  55.4530859   0.4034517   3.0750519  54.9929285   0.8690087
   1.6070494  54.8947048   0.5136143  35.4511166  21.3331532  56.0873079
  35.4021263  22.1452880  56.5915632  34.6158051  20.8966565  56.2545109
  46.5464306  14.6986103  28.6560464  46.2648153  14.3688715  29.5093918
  45.8596516  14.4167066  28.0518103  38.8189602  21.1349225  47.3612022
  39.4489861  21.5061831  46.7435741  38.9158630  20.1878285  47.2619390
  30.2105999  25.7237482  51.5093565  30.8736277  26.2132049  51.9962406
  30.7125902  25.1205778  50.9612465  44.8249149   8.8040853   6.4466685
  45.0102758   7.9165465   6.7535067  44.9984932   8.7733847   5.5058390
  19.9458599  12.5409985  12.4858403  19.9261153  11.5908992  12.3711538
  20.7128906  12.8262913  11.9893491  33.7283813  53.9638134  65.1430795
  34.0401285  53.1585427  64.7300584  34.0027141  54.6605440  64.5468079
  61.8576193  61.5117168  11.8378687  62.6226044  61.1268520  12.2655511
  62.2058487  61.9171143  11.0437524  31.2195158  39.7800994  48.2254076
  30.6278348  40.3403521  47.7231455  31.9181275  40.3673840  48.5139704
  48.7962294  40.0551319  10.5348885  48.0154467  40.6032372  10.6135607
  48.6649418  39.3576455  11.1771595   3.4429836  66.4064837  29.6638870
   2.6904875  66.9919252  29.5788050   3.6032328  66.0915709  28.7742925
  44.3573809  27.7340364  64.9468803  45.2831650  27.6181817  65.1607418
  44.3587446  28.3033276  64.1773748  44.3103790  15.8906591  51.9365883
  45.1497412  16.1958408  51.5922546  44.2159796  15.0046027  51.5869808
   4.2079735  56.7953730  44.4882059   3.6910221  56.3784790  45.1775503
   4.6584079  57.5157642  44.9290943  33.8870192   7.0807797  23.8986349
  34.6092415   6.4636028  24.0157557  33.1483793   6.5362269  23.6264110
  74.7382212  12.3164690  16.2776959  74.9962616  13.1396866  16.6923785
  74.8933363  12.4596560  15.3440642  37.5365329  21.4318991   5.9475249
  38.3648324  20.9570169   6.0156429  36.8651438  20.7523966   6.0087115
  31.2371016  24.8266053  46.6307735  31.5320659  25.7241368  46.4769411
  31.8231225  24.2875290  46.0995388  46.4752150  24.6401978  43.7890005
  45.9613657  24.9840403  43.0582762  46.8286753  25.4182053  44.2202806
  19.8756230  54.0100002  64.2048120  20.1382780  53.7727308  63.3154631
  19.9563086  54.9634027  64.2320681  63.6142111   3.5839486  52.2081757
  64.4010782   3.0703890  52.0256186  63.8899565   4.2173147  52.8707838
  37.6302528  25.3002453  63.3894157  37.5765109  25.9266043  62.6675987
  37.1778941  24.5215559  63.0649996  69.7970772  70.8532667   1.6421098
  70.4461813  71.1213493   0.9916999  69.0943956  71.4979124   1.5590362
  52.3673868  21.3515353  52.6911116  52.7242804  20.4666400  52.6148224
  52.8646564  21.8659925  52.0552778  68.2190228   8.7626129  24.0050173
  67.8343725   9.2323989  23.2650328  69.1440678   9.0081698  23.9898825
  33.9423132  30.9729052  51.0298300  33.9060020  31.7243743  51.6216183
  33.5650444  30.2522588  51.5343809  21.4149332  33.2861614  57.2535563
  20.7249761  33.8996530  57.0009327  21.2109685  32.4846482  56.7716789
  50.1526642  38.6197281   8.3386701  50.5989361  37.8748131   8.7413782
  49.8666096  39.1559196   9.0781993  34.3398714  65.4463911  55.3142834
  33.7785864  65.5309963  54.5435476  33.8926888  64.8055267  55.8670473
  43.3057690  59.8585224  46.8314934  42.8292084  60.6885862  46.8210077
  43.3040619  59.5698214  45.9188700  49.0788651  63.8830662  42.0874548
  48.1919432  64.0219307  41.7553139  49.1601229  62.9323339  42.1632385
  34.0928149  21.5155959  11.7454302  33.7163138  21.8432474  12.5622058
  33.4546614  21.7565513  11.0739160  39.1753340  24.3116617   1.7689739
  38.5128546  24.9420118   1.4861086  38.8233328  23.4607530   1.5076661
  54.2237520  58.9623594  47.5648165  53.6293936  59.6994162  47.4243975
  55.0935841  59.3600464  47.6031733  73.4234619  42.8357983  28.6432958
  73.0939865  42.3806095  29.4182038  73.7511349  43.6708546  28.9772797
  28.3478665  15.0799441   1.1302850  28.2798195  14.3924618   1.7928326
  27.5020957  15.0654018   0.6822988  20.4633188  28.9040709  53.5484266
  20.3174853  29.1094685  52.6249695  21.0863519  28.1774855  53.5366917
  11.2974584  60.3882837  13.0272722  11.5226316  61.1059284  12.4352300
  11.7413938  59.6248770  12.6579916   7.5065410  21.9145155  10.2438271
   7.4376345  22.8250408   9.9567276   6.6822886  21.7440796  10.6996691
  45.1688099  65.1577187  56.1407757  45.0287104  66.0811329  55.9312296
  44.8133087  64.6847630  55.3883362  29.4812632  18.7470555  29.0421057
  30.0498796  19.4543040  29.3465829  28.6333346  18.9304876  29.4465876
  64.3491793  37.1948147  45.9053755  63.4589624  37.4641156  45.6790495
  64.5167732  36.4321971  45.3517008   7.2008550  73.3096743  10.2902651
   6.3920557  73.8122845  10.1930022   7.8492075  73.7988377   9.7837180
  53.1860733  11.0120535   3.2422197  53.7785816  10.8137238   2.5170746
  52.7383089  11.8141329   2.9731417   0.3891909   1.1731037  57.2082424
   1.1650123   1.7242801  57.3108959   0.5552937   0.6720679  56.4097404
  31.8438029  26.2263846  42.8084230  31.5547514  26.4103723  43.7021923
  32.7089357  26.6315508  42.7482939   3.3760998  10.1932478  31.2948966
   3.2366592   9.7225571  32.1166253   3.5673159   9.5071906  30.6553698
  37.6931643  33.5325217  16.9254231  38.4711933  33.7554359  16.4143348
  37.3299885  34.3777704  17.1897936  74.5429945  30.5152035   6.6588253
  74.4991112  30.6883693   5.7184422  74.7484875  31.3645720   7.0494372
  40.3348398  12.5731981  31.4903045  41.0474443  11.9797599  31.2531090
  39.6419024  12.3798096  30.8589005  54.7297478   3.1649217  31.3147569
  55.3858566   3.1800565  32.0115542  54.8414803   4.0010387  30.8623672
  69.9375772  43.3264780  45.2727842  69.7773743  43.6853123  44.3999720
  69.2878342  43.7542057  45.8305597  64.0335798  59.7618580  55.1854324
  63.2400656  59.6822214  54.6560669  63.7800550  59.4332790  56.0479832
  56.2361336  64.8933315  33.1185770  55.9757710  64.6048403  33.9933443
  55.9225941  65.7958794  33.0608296  63.8368845  35.3417921  12.0127285
  64.3353558  35.3985262  12.8279221  62.9263163  35.4680133  12.2794986
  59.1905785  59.2042971  51.7098522  58.3044291  58.9645195  51.9809198
  59.1330338  59.2981529  50.7590008  43.0462313  38.9719748  11.4821064
  42.2185230  39.3140054  11.1442554  42.9920816  39.1053820  12.4284160
  73.4750175   2.5923631  59.6426916  73.3369064   3.4996906  59.9145651
  74.2094278   2.6349798  59.0302801  24.3237209  12.6958776  43.5438633
  23.5298634  12.9212773  44.0288544  24.0981078  11.8922448  43.0753469
   6.0674959  32.5734997  60.3036261   6.6245759  32.5836396  59.5252991
   5.5326313  31.7858171  60.2050972  32.4891472  14.3308008  14.5387125
  31.7011642  14.6969509  14.1371512  32.3809004  14.4984162  15.4748845
  47.4571991  22.7956748  49.4755363  47.5035620  22.7374530  48.5212326
  48.0133200  23.5425472  49.6972275  55.1343632  71.3104248  40.6719828
  54.9848604  70.8789349  41.5132284  55.8536673  70.8190632  40.2752542
  25.5829620  73.9942122  52.5123978  24.8466563  74.4864798  52.8753757
  25.4036045  73.0846214  52.7505398  64.4003201  63.1636381   2.8393731
  63.4519291  63.2200480   2.9560074  64.6549559  64.0310431   2.5247306
  60.7477474  11.5799201  64.4035196  60.3262091  11.0310769  65.0648165
  60.4648161  12.4695909  64.6148682  46.2332392  55.5675888  17.3359382
  46.4254808  54.8228455  17.9057014  46.1484957  55.1853228  16.4624858
  59.3086672  68.8023996  51.0830832  59.9608803  69.1383410  51.6978979
  58.9118862  68.0590820  51.5372562  36.7678809   5.3868002   2.5072977
  36.0098219   5.6795162   2.0014361  36.9609475   4.5136327   2.1659262
  67.6636076  34.5864224  43.2352877  67.6679945  34.4777274  42.2842884
  68.2317734  35.3404856  43.3927965  16.5980077   0.1708157  48.1318378
  17.1448505   0.4706980  47.4057055  15.7013834   0.3377479  47.8412676
  61.3947821  34.1048479  58.1906319  62.1190023  34.6632957  57.9080057
  61.2484741  33.5112858  57.4540806   9.0825450  42.4766874  40.5036068
   9.4858456  42.4235868  41.3700724   9.8220903  42.5194883  39.8974133
  76.5858746  49.2988586  46.1607742  76.5169239  48.6426497  45.4673290
  77.1217632  49.9945068  45.7798100  43.9415359  15.7606375  55.1059628
  43.3945131  15.4984033  54.3655348  44.7970486  15.3733158  54.9207211
  70.0815582  68.4972143  37.7759051  69.1817427  68.5810900  37.4604344
  70.5799389  69.1199207  37.2466683  55.1697874   5.8514941  12.9842865
  56.0956478   6.0459363  12.8386736  55.0373983   6.0035598  13.9200115
  74.6859741  10.4471982  18.0946136  75.5189419   9.9765265  18.0652070
  74.7160578  11.0347080  17.3395252   9.1985321  59.0794945  14.1936171
   9.4154203  58.2015562  13.8799071   9.9772811  59.6017647  14.0012181
  45.6268501  66.2051630  52.7376366  45.0904894  65.7131624  53.3593130
  45.0541639  66.9082737  52.4312115  65.5260372  51.5882778  43.6835718
  65.3047085  51.1142635  44.4851732  66.2967777  52.1059084  43.9164686
  71.1650038   6.8840772  34.8258185  71.4069366   6.7985952  33.9036489
  71.3527727   6.0247481  35.2033472   8.0914509  75.2265661  43.6906147
   8.0892503  74.7411066  44.5155716   8.8612258  74.9016776  43.2235765
  61.2492132  14.2139459  50.9084272  60.9919310  14.6755779  50.1103497
  62.1446419  13.9217246  50.7380009  71.6102505   4.5681953   7.2348875
  70.7434750   4.1751707   7.3371673  71.6086817   5.3118253   7.8375840
  55.1681280  42.7543974  60.8127403  55.3231812  42.3695135  59.9501514
  55.0117493  43.6821365  60.6364584  55.8433104  68.9650106   4.1544089
  56.0812235  68.6997032   3.2660168  56.5076542  69.6096849   4.3978620
  43.2602596  64.7035265  41.6540766  43.5024309  65.5557299  42.0164824
  42.9910135  64.8932219  40.7553244  73.1066036  44.9817181  47.2891617
  72.7707863  45.6924534  47.8353405  72.5010490  44.2561722  47.4412203
  36.2765956  11.1101949  28.1364727  36.6940141  10.5580187  28.7976027
  36.6958809  10.8575046  27.3139286   8.0866504  69.3856955  43.6255646
   8.9834946  69.6772528  43.7895584   7.7429938  70.0138044  42.9902649
  31.7104650   7.7921128   0.3307912  32.4771166   8.3514160   0.2056617
  31.8878651   7.3212081   1.1450450  60.3848886  62.5475979  15.7210732
  60.7304144  63.3604765  15.3521883  61.1622047  62.0526218  15.9799314
  30.8317733  69.3827772  56.7999411  30.5859542  69.3207550  55.8769274
  30.3225565  70.1210976  57.1343327  64.1894531  33.1945205  37.5966644
  64.8421621  33.8244295  37.2910309  64.2628288  32.4592829  36.9881630
  73.6662388  12.0661724  45.1914835  73.9698696  12.3856568  44.3417931
  73.1609774  12.7937043  45.5542994  29.9006391  22.8809857  12.6242316
  30.4469132  22.1889162  12.2515988  30.4624128  23.6559963  12.6236475
  66.1010265   9.0502512  64.7641373  66.6600943   9.7262949  64.3811989
  66.6969299   8.5154372  65.2886438  76.6451073  27.0920825  48.6274767
  77.2771883  27.2446299  49.3299294  75.8020973  27.3428607  49.0051985
   2.5187001  55.0097227  53.9829159   2.6093909  54.7912788  53.0553961
   1.6099887  55.2964830  54.0737057  66.8055058  67.5084543  16.3858819
  66.7642593  68.1431341  17.1012211  67.6610899  67.6567745  15.9831250
  35.9734488  25.3035069  53.8917065  35.9155703  26.2019753  54.2167234
  35.4178357  24.7979426  54.4849396  52.9450512  45.6065083   0.2983993
  52.8869295  45.5430031   1.2517202  53.7032652  45.0694466   0.0683639
  49.4874287  27.2750497   2.6799235  48.9985275  26.4616323   2.5551930
  49.6891832  27.2921777   3.6154628   6.1832815  65.8188343  33.5175443
   5.2495563  65.7294893  33.3267379   6.4283955  66.6575956  33.1268644
  35.6568289   6.7568851  49.1951942  35.6138659   6.9871449  48.2670975
  34.8130941   7.0362461  49.5505857  65.5959749  57.1004009  26.5856028
  65.4591417  56.1787319  26.3664198  65.2164936  57.1977901  27.4589539
  61.1888075  19.1380048  26.1904621  61.1431217  19.4267714  25.2790022
  61.2908316  19.9462879  26.6929579  21.2076187  15.7848179  44.1106701
  21.0127664  16.2366915  44.9316883  21.3356590  14.8709011  44.3648195
  71.4405394  10.2893257  44.8129320  71.6548252   9.8334974  45.6268930
  72.2890902  10.4654825  44.4065285  21.9406390  28.2910633  24.0948963
  21.5813208  28.9872456  23.5449362  22.0668745  28.7023711  24.9499536
  56.5103054  58.5115385  49.5798349  55.9898853  59.1089916  50.1169014
  56.0808039  57.6621866  49.6816301  32.3326755  21.2892437   1.6088705
  33.1326604  21.7627525   1.8370047  32.3001432  20.5610991   2.2293358
  19.8218811  48.2821846  26.0958624  20.2769160  48.3671141  25.2580309
  20.3440142  48.8032150  26.7058921  53.4962749  59.4594431  50.3243160
  53.7696123  59.1274309  49.4691610  52.6132154  59.7987795  50.1784039
  44.2643547  53.9434290  22.4738932  44.0434647  53.5792971  23.3311248
  44.8904324  54.6419477  22.6644897  72.1570969  14.0650237  46.4661741
  72.8795528  14.5443428  46.8718100  71.4945984  14.7333789  46.2911606
  40.3135300  22.9727888  10.5779338  39.3645644  22.9132080  10.6881487
  40.6485796  23.1202912  11.4623630  10.7346785  68.1514597  63.7693501
  11.3190520  67.4001360  63.8705921  11.1892259  68.7272978  63.1545115
   8.9073861   1.8504517  40.8919716   9.0711606   2.0605958  41.8113470
   9.6247011   1.2652558  40.6485844   7.6636541  35.3167367  60.2934790
   7.5817561  35.6822181  59.4126034   7.3542178  34.4149423  60.2083540
  28.1076765  37.1883559   3.5787982  27.3598671  36.6251111   3.3793685
  27.7624464  38.0784106   3.5091352  37.7210617  53.2040548  64.3844509
  37.8305912  54.1486979  64.4934893  37.3086333  53.1082726  63.5259867
  14.8052692  44.2369366  60.2427483  14.0069926  43.9992571  60.7144403
  14.6338367  43.9795446  59.3368816  79.5159934  32.8050971  45.1616526
  80.1050822  32.5783539  45.8812332  79.1093645  33.6273766  45.4350424
  16.6921914   5.4754978  55.5065680  16.1645329   5.5825859  56.2979841
  17.5575852   5.8047372  55.7493114  41.9559669  68.7803173  38.7045527
  41.5359783  69.1396284  39.4860458  42.8450251  69.1343451  38.7262154
  40.9938478  30.7887220   5.3034413  40.2382326  30.2897930   4.9930373
  41.4918756  30.9873033   4.5104945  26.4801836  71.5323639  12.9182172
  27.3628402  71.7624950  13.2083702  26.0705948  71.1369324  13.6877000
  51.2750006  45.7729673  17.8472757  51.8873739  45.8210087  17.1131599
  50.8803701  44.9040270  17.7735245  13.8428688  70.4151869  15.5012965
  14.5476246  70.4645872  14.8554540  13.7599015  69.4813299  15.6943119
   0.4816305  35.3886986   8.1867880   0.2227498  36.2352276   8.5509336
  -0.2163172  35.1700544   7.5692976   0.9534046  54.9042177  28.1659055
   1.2496066  55.7263088  28.5566282   0.4592041  55.1716900  27.3910165
  13.9189517  46.7662287  33.4781647  13.8975334  47.2269440  32.6394081
  13.4278703  47.3314381  34.0744972  17.6982021  48.1948853  18.0669892
  17.5152612  47.7614069  18.9005733  17.9796386  49.0763330  18.3120894
  71.1968803  27.3288202  63.8103437  71.0488796  28.2477641  64.0336609
  72.1456528  27.2576213  63.7054968  76.8479872  49.7319508  22.3402405
  76.4886522  49.0976095  21.7199802  77.7860022  49.5423269  22.3603630
  50.6895256  70.8404016  51.8304920  50.9037018  70.3177118  51.0577297
  49.8126459  70.5495119  52.0808887  65.4010296  47.2310877  35.7960725
  64.7563028  46.5453339  35.6219935  65.9839344  46.8505859  36.4530921
  78.6146975  24.6177387  18.0742002  78.8562155  24.3823051  17.1783924
  78.1550550  23.8475871  18.4086108  19.3398821  12.4259031  15.0884938
  19.5360148  12.6934206  14.1906083  20.1204038  11.9501865  15.3725886
  52.4112177  61.4254856  36.8393254  51.7278385  61.2821054  37.4940538
  53.2304573  61.3613176  37.3302007  67.5634527  43.8721418  32.0495963
  67.0039177  43.1992865  31.6617537  67.0126820  44.6544933  32.0780253
  46.3256741   2.7603474  45.8895302  45.9553146   3.6411303  45.9468794
  45.6150818   2.1830724  46.1688948  47.9282141  70.0925827  24.0191627
  47.1496773  69.5537043  24.1595888  48.3234453  69.7393179  23.2221484
  49.9852877  65.6826945  65.2960479  50.3901320  66.3683577  64.7648252
  49.8883944  64.9419185  64.6976373  64.0432596  74.2415810  64.5328188
  63.5482311  74.0009928  65.3159523  63.4018850  74.2044592  63.8232470
  25.7367373   2.3617402  58.2910919  25.6734180   3.2417935  57.9199743
  25.1821613   1.8232608  57.7265406  63.8161230  63.0943775  29.2287660
  63.2119942  62.3783684  29.0323210  63.9745903  63.5130024  28.3826733
  52.6804972  54.3796253  46.0415697  52.4948883  53.5328722  45.6356239
  53.0543995  54.9068832  45.3355742  73.0791426  45.7607985  64.2469168
  72.4356079  46.2751389  63.7595272  72.6516199  44.9165583  64.3908548
  76.8297052  26.1016512  62.9359436  76.8725061  25.9762239  61.9879627
  77.4181223  26.8369865  63.1070566  23.4582734  26.6112423  15.6994808
  24.1708922  26.5390682  15.0645041  22.7057695  26.9000602  15.1831901
  19.0106356  17.6927948  18.5974312  19.7618163  17.8776538  18.0337048
  18.2482910  17.8771591  18.0487311  24.8121715  39.5382643  19.2296350
  24.1442180  39.1606379  18.6573863  25.5482435  39.7259641  18.6472285
  71.5476894  47.5326967  62.6352978  72.0224285  48.3591843  62.5471449
  71.3172197  47.2919750  61.7379856   3.4890917  60.5267859  60.5749989
   3.8472682  60.0847054  59.8052549   4.1638693  61.1583281  60.8241177
  52.1219110  63.9253187  50.9863329  51.6358376  63.1154108  51.1413097
  51.5906477  64.6062136  51.3990879  54.1525126  44.2925501  63.5711288
  54.3579960  45.1722002  63.2545471  53.7593365  44.4337130  64.4323540
  46.9455051  66.4616919  32.0145154  47.7872562  66.7899561  31.6984010
  46.6270065  67.1464109  32.6026917  71.3380098  10.3980017  31.6070294
  72.0745993   9.7990626  31.7292547  71.5841722  10.9289360  30.8495688
  70.1371336  68.6252928  23.6697030  70.8156252  69.0985060  24.1513085
  69.4058895  69.2408800  23.6189890   4.9153444  23.3136368  49.2983484
   4.4146690  22.5224614  49.4973373   5.4915500  23.0576348  48.5781527
  14.7129858  53.7490988  12.3069727  15.1169932  53.0167723  12.7724886
  15.4289007  54.3692589  12.1687686  62.9355192  69.1963434  58.8286686
  62.8576612  69.3910074  59.7626257  62.1165466  68.7530279  58.6073208
  48.4214115  57.4087286  60.5157137  48.9380741  56.7670107  61.0030413
  49.0038204  58.1623125  60.4201221  30.8280540  22.1730876   9.0858209
  31.2218380  22.9360628   8.6626983  29.9022222  22.3994756   9.1742367
  69.7732639  54.2067289  46.0805178  70.2761126  54.6871519  45.4228210
  70.2656603  54.3259573  46.8926525  51.4204645  66.5400028  52.1372652
  52.3210859  66.6244268  51.8242407  51.4784336  66.6991377  53.0793667
  66.2784529  17.2649169  20.5112362  66.4726925  17.5223446  21.4124775
  66.8921137  16.5535808  20.3277802  25.8548737  59.7635937   6.6603577
  26.6724300  59.3348885   6.9134259  26.1030459  60.6727648   6.4928573
  71.8140745  43.5931873  63.6427689  72.3361158  42.9800606  63.1252909
  71.2633276  44.0404701  63.0002403  11.1048555   0.6802699  27.7089405
  11.6484964   1.1211817  28.3618450  10.7063448  -0.0498119  28.1826520
  42.8776550  66.4137316   7.9511416  42.1926641  67.0717764   7.8328300
  43.2811546  66.6362000   8.7901437  40.7250023  57.9111004  21.6803837
  41.4549065  57.5228739  22.1628284  40.5584717  58.7418938  22.1256733
  39.7547054  33.6828923   8.1701165  39.9135923  34.5454717   7.7867830
  39.9386811  33.7975502   9.1024464  34.1677880  54.7116470  13.5498214
  34.2777419  53.8263893  13.8968992  33.9092898  54.5808363  12.6375175
  68.1467676  23.1067872   5.6560206  68.4338999  23.8508916   6.1852622
  68.5614204  23.2444334   4.8043457  28.1252718  69.0146589  11.4803076
  28.8263345  69.5854998  11.7947650  27.7497339  69.4844484  10.7356596
  24.7677803  50.4927397  19.2845464  23.9651608  50.1747799  18.8711023
  25.2153230  50.9818411  18.5941017  21.9273019   8.0686522  48.0088711
  22.2379231   8.8266325  47.5136852  21.0260153   8.2891577  48.2440138
  40.2191877  31.0398960  26.5787005  39.2880893  31.0787940  26.3601184
  40.2497196  30.5747223  27.4147105  37.5635147  34.1934419   9.7987741
  37.5879574  35.0781131   9.4340986  37.7733779  33.6235189   9.0589255
   3.0913204  32.3433948  15.8620596   3.8005966  31.7378807  15.6463957
   3.0797195  32.3676395  16.8188822  43.0764914  64.4243479  62.9678869
  43.1437922  63.8316345  62.2192907  42.1425581  64.6240377  63.0320692
   2.0543520   1.0118662  12.3825836   1.2978277   0.5038567  12.6755500
   2.7532977   0.7735049  12.9915917  68.4164429  44.8433018  14.9512100
  68.6375237  45.5466270  14.3407273  68.0491447  45.2932072  15.7120693
  45.6680441  71.5702248  34.9989796  45.3611803  71.0466433  34.2587590
  46.1598682  70.9534216  35.5410981  71.4098597   7.3059893  53.3087254
  71.8096972   7.3983896  52.4439526  71.8163490   7.9942429  53.8353205
  29.9966168  66.0695267   6.3373303  30.7541370  65.4852009   6.3682687
  29.5188141  65.8852720   7.1460235  44.0498352  67.1570539  42.4519396
  44.2533827  66.8217373  43.3250713  44.8874569  67.4771214  42.1170092
  57.8453827  15.8033144   6.8454504  56.9657135  15.8259642   7.2221500
  57.7582884  16.2554669   6.0062820  77.3208284  25.3616667   7.3971164
  77.9761267  24.6968365   7.6088274  77.8114128  26.0442495   6.9392526
  32.7432370  60.6326294  23.6834073  32.1930766  59.8901415  23.4338689
  32.6829267  60.6652164  24.6381497  62.2432661  37.5959039  55.4632282
  61.4460039  37.1109486  55.2500963  62.7215528  37.6460791  54.6356058
  54.9227810  47.4279881  35.6863260  54.4493437  47.5595570  34.8648763
  54.7410297  46.5188980  35.9245658  18.0140209  61.3859034  28.1424046
  18.5006058  60.6490469  27.7729392  17.7333522  61.0793591  29.0046597
  59.1933966  25.5790758  56.9319010  59.4664192  26.3117194  56.3797045
  58.3628845  25.2904510  56.5535069  50.4061413  59.9625635  56.4195633
  50.4775476  60.7659864  56.9349718  51.2689209  59.8578215  56.0184813
  66.2446785   6.8671626  26.7017531  65.7585621   7.0966941  27.4937391
  67.0029831   7.4512506  26.7084408  17.5425541  10.4819191  14.8768473
  18.2512677  11.1023355  15.0472653  17.1663535  10.7705355  14.0453398
  10.5938029  66.1655188  21.1303592   9.7800428  66.4243460  20.6978846
  10.3190434  65.8610392  21.9952464  75.5566549  14.7768295   9.0077651
  75.7207346  15.5393243   9.5626628  74.6958256  14.9414599   8.6229265
  57.7901983  54.9365807  30.4283667  58.2852697  55.7378292  30.2576828
  58.4587765  54.2759180  30.6093836  11.2084413  41.6122007  31.0590982
  10.3601527  41.1959982  30.9060907  11.0347891  42.5493813  30.9709311
  67.5208282  71.4387369  33.9637017  67.9641819  71.5739870  34.8011851
  66.5940428  71.5785503  34.1580009  -0.0473458  54.1058445  40.0281143
   0.2531935  54.3273687  40.9094954   0.7310794  54.1995382  39.4790173
  56.7791367  55.8356619  33.4830928  57.0575285  55.0767756  33.9957547
  57.1334124  55.6766891  32.6081944  34.2715359   0.3035823  15.4975069
  34.1094112  -0.0184935  14.6108186  35.1749897   0.0479888  15.6837153
  52.0727921  37.9100037  11.5383267  52.8340101  38.4670353  11.3755417
  52.3531961  37.3196125  12.2376442  44.3372011  60.6203794  51.7677546
  44.4845247  60.6993341  50.8252621  43.3960009  60.4673100  51.8510580
  46.2794209  68.0306244  41.1354923  46.7214155  68.8202381  40.8234358
  46.8887043  67.6489639  41.7674255  16.8009245  31.5222955   6.6157067
  16.6699672  31.7239833   5.6892055  16.0416126  31.9063544   7.0540857
   6.6734391  25.2818680  12.5291252   7.0472360  25.2225471  11.6499269
   6.2701404  26.1494136  12.5598872   6.9603628  24.1156721  38.7453723
   7.5101125  23.5089207  39.2412162   6.4316833  23.5525227  38.1800485
  13.3387125  36.5120435  10.3522229  12.9821813  37.3937798  10.2442527
  13.1017745  36.2657094  11.2463212  11.3308108  20.7786942  50.4011345
  10.9101140  20.4363036  51.1898136  11.4186907  20.0178456  49.8270130
  56.3469458  67.1053362  47.5234270  56.7890120  66.3522577  47.1314001
  57.0425653  67.5827360  47.9755688  11.0302150  51.9123268  42.7130175
  10.6919217  51.5418863  43.5282230  10.9340441  52.8584528  42.8218079
  65.6510162  23.1473374  29.0673804  65.3146982  22.7454257  29.8683739
  66.4378357  23.6155868  29.3464756  61.7096567  71.5365219  54.9839973
  60.8406782  71.7800379  55.3030729  62.1490431  71.1623764  55.7476616
  10.1860309  62.0675993  24.9045897  10.8938169  62.1272326  25.5462384
   9.9891806  61.1323738  24.8513532  75.8102322  49.6898842  62.4436665
  75.6844091  50.6381273  62.4085617  76.7208290  49.5790625  62.7170992
  61.8748856  26.8095136  13.8239980  61.9134617  27.6416683  14.2954481
  61.0590267  26.8543124  13.3253980  13.4463406  62.2952461  44.2742634
  13.8029981  61.6736507  44.9088097  12.6219571  62.5877905  44.6629000
   5.6245410   1.2184179  26.4583492   5.0486571   0.9574101  25.7396960
   5.2067560   1.9953164  26.8299890  41.0409880  59.1872883  26.6183209
  41.7996502  59.0804100  27.1921206  40.9058428  60.1338530  26.5737748
  55.3118467  71.1674023  48.1632662  54.8117304  70.4728079  47.7347136
  55.2690840  70.9532595  49.0952206  24.9720550  74.5575380  30.9889317
  25.5359793  73.7901688  31.0857081  24.3366098  74.3048573  30.3191590
  76.5174389  59.9786663  11.1134303  76.8254471  59.4076061  10.4096901
  76.1580563  59.3797398  11.7679226  53.8865232   0.8733789  42.1704006
  53.4267712   0.4991646  42.9219484  53.2620573   1.4918901  41.7913055
  24.5513916  67.6165199  33.1652451  24.3219256  66.8593788  32.6264334
  24.7450590  67.2474194  34.0269232   4.4163042  73.4475660   4.6447816
   5.0310898  73.6741114   5.3425980   4.5932114  72.5252151   4.4598228
  70.7250547  57.8420353  24.9252963  70.1343060  57.1015120  25.0626755
  70.2891159  58.5788298  25.3534555  65.6515074  73.6079407  36.4199948
  65.5939484  73.2209015  37.2935629  66.1272001  74.4279814  36.5522170
  56.0593378  74.2764915  53.7268209  55.2152195  74.5683570  54.0710735
  56.6384941  75.0298023  53.8422871   2.6553130   0.5630565  30.7780051
   3.2367927  -0.0379137  31.2437820   3.0530554   1.4249346  30.9012914
  32.3438287   1.6110928  22.8209662  32.5877118   2.5210503  22.6514649
  31.8397427   1.3506484  22.0500588  21.9061399  25.6517243  46.7727757
  22.4529386  25.4696369  47.5370312  21.5752530  24.7942996  46.5052509
  54.4127941  15.6771970  56.5297413  55.1012325  15.0647056  56.2706280
  54.7519112  16.5373981  56.2821817  75.5577421   8.1446713  54.2651272
  76.4377785   8.3533370  54.5785427  75.5852938   8.3374399  53.3279419
   3.7496608  57.4543524  34.6982431   4.3829626  56.8609715  34.2944360
   2.9461557  57.3262644  34.1940570  65.4613066   2.0203646  48.4833574
  65.1055622   1.2938002  48.9950037  65.4274225   1.7142750  47.5770521
  70.8807659  25.6151986   1.2245109  71.8244648  25.7734513   1.1995810
  70.6672049  25.3015828   0.3457227  68.6220694  37.0896125  24.0744472
  68.2208824  37.5547791  23.3403492  68.1774950  36.2421131  24.0926862
  13.1016350  74.0258360  37.0726776  13.9654934  73.9829493  37.4827290
  12.5072849  73.6592674  37.7273583  68.1715822  64.2621756  48.0142498
  68.5895109  65.1233101  48.0101585  67.8582430  64.1522837  48.9120102
  67.7542496  14.1022480  35.2370214  67.7510262  13.1458831  35.2768779
  66.8442440  14.3374884  35.0559521  72.8732204  56.2498808  56.3729382
  72.0179939  56.6601706  56.2445593  72.7608728  55.6994104  57.1479177
   6.8554801  21.0706544  54.0062618   7.5994295  20.8385324  54.5620441
   6.1340475  20.5346346  54.3355799  57.1063280  12.6061666  58.3011198
  56.8516922  13.4723520  58.6191130  58.0436325  12.5489283  58.4866238
   6.1188585  58.4963560  10.0984514   6.7759359  57.9488039   9.6687180
   6.1824089  58.2642174  11.0248995  39.9165583  69.9901438  36.9481587
  40.6185675  70.6386900  37.0010853  40.3325510  69.1657782  37.2003436
  72.7124739  66.8159246  36.3004422  73.2545853  66.0799456  36.5844917
  72.4498940  67.2477531  37.1133423  73.8543797   2.9106781  37.7924204
  74.0501356   2.3043782  37.0780587  74.2718887   3.7314451  37.5311494
  39.7059560  47.4622679  14.1469753  39.3906116  46.8594170  13.4736562
  40.6492949  47.5189781  13.9948869  20.4032540  62.9648924  36.0332513
  19.9743760  62.1422482  36.2689471  20.9493351  63.1758642  36.7905617
  24.4028211  19.0486443  12.4041986  23.7850761  19.6903288  12.0536768
  23.8621616  18.2888627  12.6201892  53.0598116  52.8936815  58.5574961
  53.4785175  53.1600761  59.3760014  53.6929226  53.1255627  57.8780603
  76.7974758  33.5125709  39.1365099  76.6338348  33.6784101  40.0649214
  77.7290726  33.2971621  39.0922499  56.4702511  53.5527372  49.9088669
  55.6419420  53.2980776  49.5023108  57.0709705  52.8384686  49.6962833
  38.0326629  74.1938543  10.4571235  37.9789162  73.2495928  10.3097641
  37.2500944  74.4015121  10.9677076  47.2342634  55.8207226   8.2031643
  46.9966269  55.0077057   7.7573383  46.3989925  56.2616205   8.3585972
  50.2501965  16.8007278  18.6761081  49.9932766  15.8790815  18.7042654
  51.0216522  16.8171251  18.1096971   4.1826993  33.4867620  50.8678627
   4.3454772  32.5580406  50.7029152   4.7477320  33.9433551  50.2445745
  66.3977623  59.6372128  38.3742285  67.3134089  59.7234106  38.6395502
  65.9538746  60.3679276  38.8046360  28.4921694   8.1853008  30.7597399
  27.8302336   8.0212760  30.0880480  28.4119463   9.1195613  30.9519720
  35.5740333  17.8738880  18.5937726  36.5232348  17.8701198  18.7172019
  35.2791071  18.6738765  19.0288222  25.7527781   5.0356138  54.9498463
  26.0529208   4.8579010  54.0584612  24.8385215   4.7521794  54.9557066
  64.2882681  74.8947477  40.6835461  64.6092415  74.2190504  40.0863504
  65.0453043  75.4609394  40.8337116  71.4003038  59.4749784  36.9356751
  71.9179058  59.4508982  36.1308527  70.6453562  58.9160061  36.7517304
  49.5155573  74.6336174  23.6198354  48.8540077  75.1748610  24.0506935
  49.1964102  73.7371969  23.7237978  29.3028188  70.8375502  50.7340717
  29.8485589  70.0827408  50.5134773  29.7120142  71.5712261  50.2752542
  71.3917255  63.9358234  20.2148604  70.8398771  63.3953762  20.7802033
  72.2844458  63.7584972  20.5112290  13.4758031  13.2885540  59.4527578
  13.4006834  12.3391843  59.5491266  13.6818123  13.6030960  60.3330183
  26.9234180  44.2200994   8.7546045  27.0655274  44.3821764   7.8219908
  27.8041267  44.1363192   9.1200715  10.7922637  70.7106161  44.3564177
  11.6121268  70.2175856  44.3876553  10.4971170  70.7424784  45.2664185
  11.8237388  48.7874651  27.7900982  12.7101779  49.1411638  27.8632736
  11.7734468  48.1231356  28.4773922   7.3004884  42.0837355  61.4991474
   6.6103107  42.4307919  62.0643377   8.0279130  41.9011593  62.0939159
  26.8840218  68.0746937  59.5211220  27.5559664  68.7563944  59.5227528
  27.0742774  67.5527191  58.7416458  19.7750902  65.0927067  46.2912464
  19.3644989  64.8889589  47.1315622  20.5663610  65.5789566  46.5229416
  34.9924254  48.9884710  21.1531544  34.6467018  48.2575607  21.6654778
  35.0915432  49.6992397  21.7865729  13.2808733  64.8009872  57.4099731
  12.6252770  64.4467449  56.8091917  12.7915359  65.0000334  58.2081985
  54.1897917  74.8643112   5.6224078  53.7432861  75.5997086   5.2028215
  53.7926531  74.0871477   5.2293104  66.1040306  27.6930547  55.2444935
  65.8358717  28.2989359  54.5536757  65.5868053  27.9543900  56.0063410
  64.2803526  19.7443533  28.8372493  64.6342564  19.9725056  29.6968603
  63.9321280  18.8597357  28.9487004  40.2172089   7.5228739  36.2220287
  39.7779799   6.8253636  35.7354188  40.1955080   8.2765830  35.6323814
  40.3216410  73.4874153  55.2085352  40.3097963  74.4271469  55.0268841
  40.5194855  73.4265947  56.1430883   3.7925562  70.2920866  51.1071014
   3.2416362  71.0732460  51.1572170   4.2528638  70.3768015  50.2721310
  79.1087580  60.5005550  32.0145440  78.8770056  59.7354078  32.5409174
  78.9009857  61.2484407  32.5746608  47.6982260  61.7395306  58.9152241
  48.4297132  62.2191906  59.3039179  47.0988512  62.4214220  58.6118937
  12.0056355   2.6613885  57.0587730  12.8497958   2.2103623  57.0445633
  11.4639521   2.1372704  57.6487827  25.2601838  13.4008479  37.9426837
  25.1430345  14.3496561  37.8950310  25.3172088  13.2133138  38.8795996
  62.5689125  65.5611563  31.1519861  62.1193457  66.3878441  30.9767628
  62.3650599  65.0124407  30.3946304  11.0887599  40.5668116   1.3994074
  10.6460631  39.7528625   1.1591241  10.3793585  41.1966801   1.5268737
   3.6459526  68.8776875  53.4892416   2.9833257  69.4618607  53.8578892
   3.7945884  69.2120075  52.6047277  17.4053103   0.4046730  43.8422394
  17.5618559   0.9684232  43.0846643  17.6375014  -0.4732224  43.5395575
  60.7636642  45.0905609  15.5281878  61.5933371  45.1904631  15.9949732
  60.0977993  45.3498745  16.1650658  30.1162004  53.8872862  14.3980682
  30.1242518  53.1932926  13.7388718  29.4435263  53.6163807  15.0228488
  13.4726286  42.7524471  42.0248079  13.6950302  43.3287811  41.2936354
  14.2368889  42.1846008  42.1232271  29.8881888  42.9485464  20.5888319
  29.3830061  43.7533760  20.7040215  30.0469422  42.8982496  19.6462286
  18.0870330  47.3093557   3.5343128  18.1591606  47.8483438   4.3220437
  18.9540339  46.9166851   3.4325624  12.9197669  57.6907921  43.2741261
  12.7761495  58.6202049  43.0958033  13.4498072  57.3848104  42.5381470
  64.7663021   3.6511949  55.0718355  64.6459723   4.5830223  55.2547312
  64.0128565   3.2272267  55.4826832  45.5667483  74.1165909  42.8146219
  46.2373435  74.3358092  42.1677256  44.9716985  74.8663089  42.8062391
  54.1170835  49.5997763  37.2817159  54.7912741  50.2464628  37.4902511
  54.5243025  49.0315723  36.6278434  26.9559073   2.5238273  34.3869066
  26.4795113   1.8935220  33.8465428  27.6745129   2.0185238  34.7670484
  66.7508221  22.7817369  11.4063108  66.6886282  23.3151269  10.6139362
  67.2566175  23.3179808  12.0169199  48.6146879  66.6543388   6.5939862
  49.5107746  66.9784546   6.6845834  48.5765696  66.3007927   5.7052898
  31.5853524   5.3386599  23.6552429  31.9201565   5.1332116  22.7823591
  30.6439424   5.4570770  23.5289311  47.7927113  72.6927233  24.0617847
  47.7054787  71.7420101  24.1307998  47.0426512  72.9642868  23.5327315
  72.8655767   2.5603104  45.7826710  72.4265289   2.6759952  46.6253376
  72.1524763   2.5072020  45.1463556  20.5362296  42.4813604  27.7404690
  21.2110186  42.1379375  28.3260918  21.0234737  42.8487730  27.0030189
  48.3824348  26.2260365   8.2416034  49.1390705  26.8044114   8.1455904
  47.6560640  26.8141961   8.4482086  75.9091425   1.8308604  44.0871239
  75.5072975   1.0183429  44.3946457  75.6222630   2.4929458  44.7160721
  14.2550933  61.3601732  61.8867683  14.9031758  61.4288378  61.1856937
  13.4204328  61.2497044  61.4313889   3.1125471   7.0221388  59.0600443
   2.9486001   7.3491806  58.1755161   3.2447678   7.8106964  59.5862865
  76.7442465  20.8215070  35.1204967  76.9219589  21.7613125  35.0828695
  76.1841965  20.7142448  35.8893085   4.2243928  58.3851194  54.1915512
   3.3745217  58.0088663  53.9626741   4.1145551  59.3260384  54.0542936
  60.3682852  68.0950499  58.7075424  59.8111248  68.7106466  58.2312632
  60.4028368  67.3200607  58.1468058  41.5368128  67.5824976  43.6133718
  42.4253893  67.5025129  43.2665777  41.6090059  68.2364607  44.3086052
  65.8477497  74.7706604  12.5360751  64.9799442  74.9690008  12.1842122
  66.0022736  73.8580608  12.2921073  55.5239773  24.6919870  12.9626286
  54.6493673  24.3060064  12.9145646  55.9087706  24.3154883  13.7540936
  75.2726889   3.5310417  57.7184391  75.4145575   4.4163013  58.0537319
  76.1518812   3.2020077  57.5314045  72.4732542  43.4690046  53.7903643
  73.2392645  43.2802963  54.3324423  72.2981548  44.3983412  53.9383841
  74.9423552  12.4291170  57.7592897  74.2258596  12.9610384  57.4129820
  74.6020794  12.0745516  58.5807085  33.5207391  58.3207321   6.9753420
  34.2325544  57.6922989   6.8544322  32.8621459  57.8426218   7.4792242
   5.0110453  57.4481964  56.6659832   4.8476398  57.5658751  55.7302046
   4.1540504  57.2319221  57.0334291  48.7142086  47.5807762  18.0966616
  48.5344458  47.6461792  17.1587706  49.3616724  46.8794060  18.1680965
   5.3738868  33.4936380  62.6345825   5.5755991  33.0964828  61.7873478
   5.9001034  32.9986262  63.2625103  60.3555536   6.8882608  11.3589001
  61.1598015   7.1230030  11.8218386  60.5425262   7.0823693  10.4404259
  13.3286393   0.2997560  60.2853107  13.3443928   0.0012463  61.1946344
  13.9626133   1.0163679  60.2574492  46.6074753  40.2772903   5.0616425
  45.8077383  39.7556734   4.9940559  47.0772028  39.9002337   5.8055615
   6.2571728  32.2618890  10.1887619   6.6940528  32.8085279  10.8418715
   6.4132428  32.7105951   9.3577766  66.9601631  21.3976288   2.2548528
  67.8440666  21.4825726   1.8974614  66.4778805  22.1338439   1.8785261
  51.7544031  60.3070688  22.3650670  51.3747263  61.0188007  21.8497896
  51.1003590  59.6091604  22.3279214  14.8627067   9.7957921  57.3872614
  14.5813286   9.1373950  58.0225372  14.0584505  10.0523806  56.9360828
   3.9960536  35.0458097  21.6842532   3.6192074  35.5699205  20.9774828
   3.4798932  35.2781630  22.4561477  78.8160324   5.0366575  58.7404776
  79.5094109   5.1272970  59.3941164  78.0970240   5.5705625  59.0784216
  11.3632667   7.4440676  24.8465252  10.5655861   6.9522560  24.6514368
  11.2023127   7.8296739  25.7077074  12.6800287  22.5097013  32.8633857
  12.7586031  22.0454073  32.0300269  12.3092556  23.3606052  32.6294613
  46.7708492  71.7587423  59.4467497  46.2717533  71.8811417  60.2543068
  47.2319984  72.5882244  59.3221378  77.6150513  59.2641306  46.7499638
  76.8490648  58.8646126  47.1621227  77.5192595  59.0615749  45.8193588
  22.6126003  59.5555639  53.6306238  21.9017744  58.9412546  53.8138771
  22.2498941  60.1534891  52.9770470  11.1800516   7.3245692  40.9086037
  11.2098932   7.1816027  39.9626112  11.3619828   8.2582104  41.0155916
  18.7029195  60.2976179  57.0625496  19.2500007  59.5384312  56.8611431
  18.1931102  60.0294209  57.8270102  79.4834852  64.3708038  37.5772738
  79.5603275  65.3171730  37.6985812  78.8984203  64.0860653  38.2793117
  17.3025227  63.2260847  37.0480967  16.7317498  62.6369810  36.5547323
  18.0296564  63.4090519  36.4530921  25.9104371  16.6171300  45.4599380
  25.5830216  17.5145590  45.5203629  25.5345511  16.1733389  46.2201929
  77.3630238  12.1177852   3.0581218  77.2817087  12.4889362   3.9366812
  78.1363440  11.5557396   3.1061855  45.2606869  31.4652085   5.2473146
  45.9934330  32.0672441   5.3772026  45.6338549  30.5971599   5.4005176
  78.5717243  74.4588957   7.0509529  78.4224623  75.2301136   7.5979227
  78.8447851  73.7782234   7.6660585  15.4202044  15.4625714  50.8110809
  15.4548168  16.2987959  50.3465796  16.2402415  15.4280508  51.3036013
  20.1630139  37.9795790  26.7307162  20.8694124  38.5500908  26.4278173
  19.5886838  37.8853893  25.9707761  10.4200482  61.1079216  28.0013466
  10.9509480  60.5653286  27.4182773  10.6345856  60.7957268  28.8804054
  40.5422414   0.6007150  18.5483909  39.8771990  -0.0767323  18.6709321
  40.9066487   0.4244998  17.6809883  53.1335878  68.8139391   5.0946629
  52.5728703  69.3361521   4.5209724  53.9998007  68.8604593   4.6900043
  11.0605896  68.7494850  39.7221708  11.0574567  69.7032690  39.8028755
  11.7051816  68.5691309  39.0379143  72.8613615   4.3480083  23.9937592
  72.4976206   4.5859677  24.8465753  72.3605967   4.8689437  23.3659887
  22.9945612  54.0051126  28.9190578  23.3388114  53.8839769  29.8039579
  23.7636924  54.2156649  28.3895874  10.6530976  42.2913074  50.2132893
   9.7876316  42.5371552  49.8865461  10.7506609  42.7846670  51.0277319
  64.1285992  29.6426415  30.3724217  64.3271065  28.8570857  30.8820581
  63.6735725  29.3159485  29.5962405   6.8504101  63.2596159  50.0312424
   6.3995057  63.9477253  50.5205488   7.4623364  62.8793001  50.6614351
  23.9763093  22.4192309  35.8505726  24.8425961  22.1236229  35.5705833
  23.8833857  23.2895255  35.4630351   4.8146236  43.9782667  45.7511044
   5.2097470  43.1077909  45.7023382   4.8767543  44.3198156  44.8590755
  27.3806810  68.9090824  37.2594166  27.4871373  69.1068697  38.1898880
  27.7745581  68.0433130  37.1519923  78.5952711  41.6859484  25.5901098
  77.8201580  41.6094971  25.0337076  78.8716364  42.5971127  25.4919529
  38.3339071  36.7496204   5.1682317  37.4453902  36.4303303   5.0106740
  38.8933372  36.1608505   4.6616560  61.3793135  56.4097738  34.7467136
  61.7986298  56.1686325  35.5726981  62.0264244  56.1900520  34.0764904
   7.2533840  23.6337090  -0.0702839   7.8884840  23.5117388   0.6354094
   6.4212942  23.3437324   0.3035771  38.9975715  19.9584126  21.4668918
  39.5059896  19.6306121  22.2087073  39.5491934  20.6384706  21.0802817
  63.9880466  70.3228092  42.3600483  64.2015505  71.2550259  42.4002314
  63.0454922  70.2998734  42.1948099  67.5609922  70.9625769  46.7893982
  66.8603134  71.0834026  46.1485529  67.2150660  70.3146505  47.4032068
  30.7645869   7.1577901  50.7828474  30.4209566   6.5854907  50.0968266
  30.5343294   6.7165434  51.6004753   7.6808846  51.4860296  40.0292301
   8.4324509  52.0729685  39.9462867   8.0666667  50.6208611  40.1666737
  11.1906588  39.0840197  55.1042271  10.2659535  38.8406563  55.1481247
  11.4139485  39.3390942  55.9993887   2.8089225  74.2244720  47.1560621
   3.2117930  73.4241676  46.8192482   1.9610983  73.9403677  47.4976921
   5.0193477  52.9161644  30.7700872   4.7452274  53.8113546  30.5707645
   4.9108994  52.8378916  31.7178988   7.1232736  74.4074249  29.1573858
   7.3922831  73.7580585  28.5076261   7.3705846  75.2481651  28.7723851
  56.1261892  23.7580371  18.8730133  56.9263983  24.1618228  18.5370827
  56.3968849  22.8817415  19.1469920  35.3503680  27.7173185   7.4327111
  34.9737072  27.3219013   8.2188421  34.8400784  28.5159183   7.2982705
  63.7354565  44.9904108  34.7234321  63.9839125  44.4497919  33.9736128
  62.9823589  45.4948950  34.4159102  33.0775523   7.6817167  64.6044540
  33.9572644   7.9293209  64.8891163  33.0097914   6.7510945  64.8179531
  23.7022257  21.5495586  38.3302259  24.2926455  22.1312857  38.8090062
  23.7788534  21.8286228  37.4178219  20.0439334  59.4458199  59.9858904
  20.6122088  59.5220613  59.2194176  20.3467274  58.6542082  60.4307508
  49.7642708   7.8709859  37.4776673  49.9316645   6.9954777  37.8265166
  49.7315788   8.4345943  38.2506561  62.8125334  58.2808828  39.9009013
  61.9228983  57.9445887  39.7928214  62.8625822  58.5339642  40.8226824
  72.0243835  54.4761086  32.1761036  72.0628786  53.9745665  31.3617301
  72.9382849  54.5635319  32.4469781  11.4807820  65.3908968  10.2182198
  11.6975272  64.7061443   9.5854723  10.6171620  65.7025051   9.9474943
  24.3367720   9.3387920  17.5092268  24.6575093   8.6847174  16.8883026
  23.8764000   9.9788392  16.9664288  71.6301823  64.8441267  24.4548631
  72.3883581  64.2628908  24.3951130  71.7558050  65.3179073  25.2770448
   2.3573847  44.8377323  57.1234226   1.9693005  45.5181503  57.6735640
   1.6974813  44.6679544  56.4511633  12.2093451  15.4366159  30.9434628
  12.8985631  15.8695900  31.4471936  12.0746040  14.6011662  31.3907909
  26.5157342   6.5397811  39.7509670  27.4482703   6.3270581  39.7878242
  26.3442159   6.7049897  38.8238645  41.9989681   9.9427938  16.2180996
  42.0418930  10.2898157  15.3270519  41.8659735  10.7139623  16.7693210
   4.6240541  40.4005337  15.7033336   4.4300765  39.4660711  15.6299579
   3.7721869  40.8110523  15.8517563  46.8031931  30.2110481  10.1445651
  46.5617847  30.7796359   9.4133615  46.9762325  30.8125949  10.8687413
  61.8380117  63.7824297   1.3024542  61.5509844  63.5064793   0.4319960
  62.6185179  64.3123388   1.1404754  20.5825281  67.3026180  64.6492577
  20.0941825  68.0868149  64.8998308  21.4707088  67.6172113  64.4807482
  20.5534434  59.3093109  50.6538486  20.5955911  60.2654409  50.6372309
  19.6170545  59.1109371  50.6611204  74.0210438  54.1835451  20.3324151
  73.5646391  54.1920710  19.4910753  73.3506680  54.4264126  20.9710360
  67.7241898  69.1691113  30.1888609  68.0376530  69.7420216  30.8886790
  68.5086679  68.9581490  29.6825814  38.2554913   2.0731868  46.9810009
  37.8964281   2.8532127  47.4039268  38.7601876   2.4123971  46.2417793
  64.2425966  22.8835011  32.2967815  63.4190226  23.2548404  32.6131129
  64.9209595  23.3944178  32.7383924  67.3226929  68.8650846  36.9991183
  66.4933920  69.2706919  36.7461777  67.0868826  67.9701853  37.2436070
  17.3672783  74.1040659  47.9355335  17.1165955  73.8830280  48.8324928
  16.8240523  74.8605728  47.7145433  73.9307833  62.7661467  20.8313274
  73.5409832  62.2391796  21.5288901  74.7031593  62.2702885  20.5596852
  78.7658262  51.3749790  52.6924229  78.9095449  50.4818773  52.3794699
  77.9904079  51.3115120  53.2500315   7.4551743  57.4258757  35.6191540
   8.3032036  56.9855738  35.6758118   7.0158088  57.0052385  34.8800635
  14.3681967  18.8028669   7.0094830  14.8651278  19.4194353   7.5471956
  13.9208806  18.2402563   7.6416290  40.9283257   0.8214693  47.5065231
  41.4196396   1.6011488  47.7652550  40.0356913   1.1368260  47.3651695
  67.7016306  68.5930252  52.8424311  68.4842157  68.9799309  53.2349777
  67.4673653  69.1928577  52.1342230  36.9646239   0.2390911  52.6696920
  36.4030862   0.2807114  51.8956280  36.7476940   1.0284981  53.1656837
  63.5272264  68.6748743  32.6642156  63.7379217  69.5698404  32.3979902
  62.8222799  68.4090328  32.0737815  67.6288319  50.0754023  23.3350015
  67.1973181  50.6553602  23.9624381  66.9104481  49.6156502  22.9005098
   6.0610396   2.5017381   2.7893919   6.0452729   1.5560517   2.6422173
   6.8848246   2.6586062   3.2509139  50.8747625   7.1874279  21.4622545
  50.4244280   8.0206996  21.3240790  51.5072775   7.1353096  20.7457066
  43.0912161  63.1384706  28.1985569  43.8068485  63.1274223  28.8341475
  43.4249783  63.6635923  27.4711800   1.8384758  14.2521000   2.9426986
   1.8045934  13.4096992   2.4894372   1.1788704  14.7878492   2.5021023
  55.6698275   8.2710564  10.8153391  54.7424841   8.0648327  10.9325719
  55.8678770   8.8911349  11.5171301  26.1450410  23.2604408  44.3338919
  26.9684291  22.8252053  44.5548725  25.7649422  23.4975886  45.1797724
  26.9159174  16.1598456   6.1709827  27.6056957  15.8696914   5.5741167
  27.2581768  16.9650722   6.5591842  28.8115931  72.7061653  15.2524638
  27.8898072  72.8369522  15.4748058  29.1272378  72.0763063  15.9004438
  18.7745011  34.0681458  59.8507214  18.5764945  33.9617848  58.9202833
  17.9359150  34.3014956  60.2489090   7.0260298   9.6268320  54.1608667
   7.1305102  10.5451548  54.4098616   7.0852107   9.1465253  54.9867201
  17.0174539   4.8361209  15.0938404  16.9842362   4.1342098  14.4438791
  17.6690400   5.4483813  14.7520733  14.0275383  57.5021124  34.1791368
  14.6085107  57.6626301  33.4355402  13.1713474  57.3392487  33.7833548
  26.0685873  16.9273615  57.1056986  26.7152286  16.3830173  56.6564989
  26.2571955  17.8175890  56.8087959  22.3449421  62.3002100  22.3911333
  21.5432835  62.2353458  21.8721271  22.4453878  63.2369089  22.5606513
  32.9869127  57.1068811  14.2652607  32.5459933  57.5386524  13.5335565
  33.3021808  56.2799120  13.9006174   9.6862483  22.8480721  49.7183514
  10.1399148  22.0076394  49.6543837   9.7849917  23.2401991  48.8507557
  46.7990685  10.2437150  36.4475822  47.3735857   9.6547478  35.9584212
  47.3812675  10.9298551  36.7739129  43.0068493  25.7521892  25.3269911
  42.6621962  25.7721376  24.4342136  42.6055145  26.5081310  25.7556081
  47.4093390  13.5432613  35.1374364  46.9186449  13.8827479  35.8859015
  48.3178902  13.7851310  35.3170657  15.6411254  69.8280430  45.9868670
  15.8918881  68.9155388  45.8430290  16.4614058  70.3160715  45.9147596
  12.2079492  65.0833321  33.5154223  11.3560665  65.1905632  33.9385438
  12.0018899  64.9691248  32.5876689   3.9595750  10.4276645  13.3132863
   4.8103645  10.1020813  13.6071992   3.4476534   9.6376461  13.1399703
  39.4873381  19.7957432  17.8079653  39.0637708  19.0849590  18.2892227
  38.8964009  19.9752963  17.0766747  51.1571312   7.7561992  51.6929245
  51.5979052   6.9731998  51.3629770  51.8562746   8.2748163  52.0910072
  44.6520376   4.2956564  28.3069468  45.2774000   4.1933921  27.5895238
  44.1399193   3.4870559  28.2953691  73.1409645  42.9333591   8.7201089
  73.2860661  42.6310301   7.8235739  73.5855579  42.2851562   9.2663687
  27.4568105  62.5650644  11.7841327  28.1967783  62.9754400  11.3366187
  27.8546166  62.0702982  12.5005066  21.7167497  13.4794366  45.3238153
  21.2541771  13.7240553  46.1253262  21.1043262  12.9099476  44.8581409
  51.5864944  31.4132810  17.5448549  51.5260315  32.0904851  18.2186294
  50.7049513  31.3638520  17.1751654   6.9916725  14.0076983  59.3813419
   7.0483834  14.6340549  60.1029348   7.1448863  13.1561458  59.7907495
  59.6571445   3.1232196  19.1664219  59.9068785   3.2035050  20.0869751
  58.7264681   2.9006255  19.1892684  21.9844174  11.7603874  31.8450999
  22.5470138  11.5139806  32.5792670  21.3833141  12.4091399  32.2111964
  30.4247689   5.9263986  48.3466482  29.8985624   6.5404522  47.8345203
  30.2847576   5.0796199  47.9228640  44.0754128   2.1849759  62.2499466
  43.4490681   2.2805938  61.5324640  44.4624662   1.3197830  62.1162891
   6.5416253  70.6019163  37.1356988   7.3960185  71.0114574  36.9996023
   6.2684810  70.9002542  38.0032349  62.6093340  72.9217196  37.8519869
  62.3549414  73.8292551  38.0189967  63.5571718  72.9103041  37.9850411
  10.5310035  58.4965420  51.6066504  10.3737509  57.9342937  52.3651886
   9.6562052  58.7317038  51.2973642  17.8007042  70.5746317  54.3160105
  18.1176865  71.4181852  54.6387577  18.1730425  69.9319315  54.9197769
  70.5105591  68.4450483  42.5651407  69.9239063  68.7278557  41.8636560
  69.9674702  68.4624624  43.3531666  69.0916014  66.9276619  47.5422192
  69.0124989  67.3698473  48.3874655  68.6679697  67.5203085  46.9213009
  43.3980942  25.9454942  45.0697279  42.8408813  25.5033684  44.4292068
  44.2729187  25.9233785  44.6818876  25.0543404  66.8518257  35.7476997
  24.4741893  66.1426640  36.0247302  24.6407914  67.6457930  36.0865521
  16.6987550  47.6080656  56.8572044  16.9377577  47.3018980  57.7320623
  15.7421184  47.5773001  56.8457270  10.3011906  66.7064524  28.5846424
   9.8861837  65.8569813  28.4349966  10.1702631  67.1845531  27.7657962
  17.3151016  54.9499941  48.3367682  17.1799886  55.7922220  47.9024553
  16.9384038  54.3073654  47.7356386   4.1240433  16.3836634  57.6050758
   3.1814796  16.4203918  57.7677250   4.3325144  15.4494894  57.6145840
  35.7991791  25.1319766  50.9980917  36.0022354  25.4165244  51.8891811
  36.5000176  25.5036259  50.4624319  41.1178303  44.5759010  64.6501160
  41.1156893  43.7378025  65.1125193  40.5020142  45.1211500  65.1397181
  50.4554558  15.3290963  63.8241100  50.3868914  14.8275864  63.0116987
  49.5494461  15.5296373  64.0589762  41.1094713   8.3660817  25.9753704
  41.9016886   8.3017224  26.5087390  40.4652262   7.8299987  26.4377475
  77.2859097  10.5466831  37.3119140  76.8065500  11.2755656  37.7058411
  76.7601585  10.2971017  36.5519595   9.3241203  22.0050979  34.9454951
   9.9075139  21.5744138  34.3206787   9.7130752  21.8231845  35.8009791
  45.9153652   6.2292975  38.3624029  46.6585732   5.6350625  38.4661150
  45.8903599   6.7265135  39.1799498  19.0080428  50.9553337  15.4894185
  18.9941299  51.3438892  14.6147406  19.9326015  50.7707739  15.6548345
  44.8592567  17.1919215  48.3546257  45.4493046  16.8161058  49.0079498
  45.4196739  17.3680413  47.5988817  20.1370573   4.0887707  51.6975832
  19.9793041   3.2655430  52.1597958  20.6257463   3.8341665  50.9149027
  20.2898049   4.3471768  26.7266273  19.9234533   5.2042353  26.9445038
  20.1152182   4.2428300  25.7912850  26.0976863   3.2731166  28.4221506
  26.8903780   3.5235143  28.8966751  25.4067254   3.2899782  29.0843606
  32.3677087  21.3670087  34.7828007  32.9887223  20.6410146  34.7235847
  32.5370812  21.8915129  34.0002155  19.2361987  10.2817690  59.3403149
  18.5424387  10.7533383  59.8013449  19.7948134   9.9365580  60.0367403
   5.4047740  73.1039715  34.5295620   4.9006164  73.0057955  35.3372860
   4.8553967  73.6523533  33.9694762  10.4222751  51.4786911  12.6744998
   9.6716899  51.0509491  13.0866754  11.0204673  51.6628456  13.3987141
  48.7356806  16.2702882  51.6989708  48.9287472  16.3056433  50.7621098
  47.8107929  16.5086973  51.7620802  33.9442587  24.2415571  48.5762072
  33.7578201  23.6669374  47.8337240  34.8332930  24.0075564  48.8428450
  49.6074200  39.6013856  14.9397922  50.2664423  39.9860835  14.3619239
  50.0429630  38.8425994  15.3280950  31.2390733  26.0469174  27.4666023
  30.5157566  25.6308413  27.9355621  31.5432549  25.3778934  26.8533206
  27.3223329  53.1247663  12.5824142  26.7504501  53.6762047  12.0484662
  28.0756974  52.9455328  12.0197892  76.1504507  65.9631300  28.6344028
  75.3863955  65.5750322  28.2079840  76.3992262  65.3271389  29.3051195
  37.0055008  15.9712827  32.7567554  36.4787626  15.6928349  32.0075917
  37.4542785  15.1757145  33.0429387  63.9461660   2.5723156  23.4435344
  64.4684601   1.8146783  23.7070251  64.4166279   3.3243293  23.8032174
  68.4125233  74.3341208  27.0152545  67.6535177  74.4178677  26.4380836
  68.0385828  74.2565680  27.8929687  66.3880014   4.4903588  38.4935069
  67.2182703   4.0767521  38.2572579  66.0304165   4.8017842  37.6620150
  46.0014963   3.0582136  32.6083684  46.4098358   3.1752083  31.7505789
  45.0769186   2.9039782  32.4144697  38.1969333   0.8315086  25.3237748
  38.2634163   0.0117686  25.8135080  37.9689407   0.5612784  24.4342661
  31.7611766  17.9833186  36.2639022  31.1493564  17.5880682  35.6428695
  31.2018347  18.4225333  36.9045734  45.7002401  28.1837058  22.2718334
  45.7672215  27.3810816  22.7890730  45.9956217  27.9304099  21.3972926
   9.7731572  43.3300066  35.5128670   9.3667096  43.9854717  34.9459457
   9.4431305  42.4930096  35.1861453  41.5482807   3.5403037  36.5892506
  41.0287952   4.2131779  37.0292568  42.4449492   3.6988863  36.8843317
   4.1440824  60.3142023  40.2615404   4.5231587  60.7520008  41.0236835
   4.4035155  59.3978977  40.3580427  28.8008189  22.6066685  44.4993544
  29.2877173  22.3873496  43.7049580  29.4695687  22.6651430  45.1816940
  51.6442966  31.8693256  14.6433949  51.0446453  31.5310144  15.3083730
  51.6932678  31.1729431  13.9885020  53.2751799  29.1004014  57.1167755
  53.5987997  29.9881268  56.9636631  52.6710606  29.1895080  57.8538895
  36.9711971  12.8305018  63.2593203  37.6016021  12.1102774  63.2693148
  37.2162318  13.3736885  64.0084124  20.0401139   4.0821171  13.8930953
  20.2863240   4.5526096  14.6894920  19.0832698   4.0639207  13.9117849
  54.1264248   1.4728229  24.8505354  53.4808731   2.0879714  24.5025635
  54.6603632   1.2321761  24.0934157  36.0668015  23.2347941  35.3717327
  36.3809657  23.4986806  34.5069242  35.8962345  22.2965908  35.2885890
  13.6087883  73.4230566  59.6628380  12.9445350  72.8516102  59.2775536
  13.4337378  74.2839622  59.2827940  50.7439709  18.3572209  14.8040104
  49.9388981  18.3060491  15.3192496  50.4541063  18.2623160  13.8967049
  10.9703076  12.2778833  58.0246735  11.3784444  12.6556623  57.2456121
  11.6692746  11.7729664  58.4402895  33.4899688  16.2035668  56.4175844
  34.0091085  16.4568591  57.1808434  33.0957913  15.3665566  56.6630840
  12.6918089  71.2466002   3.4031865  13.3547664  70.8821392   3.9896056
  12.4389148  72.0741177   3.8124427   3.9362523  36.4483142  34.1307330
   4.2025149  36.6400862  35.0299311   3.0883878  36.0130572  34.2196608
  37.9766822  15.7450974  23.6831570  37.2176099  16.2519717  23.9714622
  37.8441620  15.6295156  22.7422476  58.4059811  65.8437824  28.8067436
  59.2074108  65.3411913  28.9528418  58.6663628  66.5397406  28.2033563
  43.8746309   7.8679413  19.9760091  43.9611292   8.2559413  19.1052592
  44.2252350   6.9824958  19.8795795  55.1237583  56.0402250  29.9776769
  55.0573349  56.9652367  30.2146745  56.0069990  55.7870483  30.2460337
  20.5616999  19.2222571  44.1702604  19.9604201  19.8146856  44.6216202
  20.0523710  18.8769317  43.4370708   3.7032771   4.0634185  24.8913050
   4.1049492   4.0025133  25.7580137   2.7713111   4.1920325  25.0677395
  10.8367312  67.3247719  42.1644831  11.7582917  67.1147251  42.3156071
  10.8440971  67.8959799  41.3964319  42.6559019  26.8629622  49.7960186
  42.8521013  27.7628970  50.0565100  42.7044868  26.8743038  48.8401222
  54.0450287  39.5937109  10.2402413  54.5077705  40.3716135   9.9288440
  54.7291088  39.0464854  10.6260002  65.3029251  33.5788560  62.6375151
  64.6291542  34.0213823  62.1213388  64.8248148  32.9196596  63.1406069
  57.4243879  12.5113392  54.0445089  58.2150745  12.2872412  54.5352507
  57.6502943  12.3325145  53.1316996  62.2390413  22.9597926  10.1537633
  62.9222107  22.5002766   9.6655399  61.8282700  22.2801828  10.6882048
  67.8764868  57.5535774   9.9417001  67.3222733  58.1582737  10.4350770
  67.7223206  57.7812243   9.0248352  41.9012547  13.8496387  33.3201385
  42.5641155  14.0612805  32.6628327  41.1770248  13.4757710  32.8181934
  23.3789968  22.1525359  57.4884272  23.6069798  21.2278962  57.5848627
  23.9121938  22.6004434  58.1451702   7.9206955  70.3242826   4.1771546
   7.9086018  69.6892500   3.4610391   8.4449553  71.0521126   3.8430244
  58.8003778  29.2280006  49.5786572  59.7153807  29.0855980  49.8209858
  58.4930420  28.3692098  49.2883921   9.4942915  18.6028862   2.0503345
   9.8466718  18.5305762   1.1632997   8.5450912  18.5577214   1.9353974
  29.6686792  37.5973010   5.8800936  29.0157223  37.3087645   5.2424240
  29.1563368  37.8658843   6.6427201  51.9517136  12.3610663  53.8446331
  51.5854692  12.7859282  53.0690098  52.5782156  11.7264628  53.4967709
  56.9809008  34.7177482  62.8054190  56.3561106  34.4800091  63.4905100
  56.5416241  34.4818950  61.9883251  25.1135063   9.0867382  55.4929686
  24.6985888   8.2391757  55.3326225  24.5545793   9.5072246  56.1464405
  50.5625200  44.2405653   4.8523325  51.3402796  44.5182323   4.3683586
  50.4881954  44.8713303   5.5684668  34.9828601  15.3977764   7.2054672
  35.8402944  15.8124804   7.3006344  35.0665092  14.5652926   7.6704484
  67.8260326  42.4705839  11.2820446  68.6571598  42.6718903  11.7120898
  67.1585798  42.7342987  11.9154429  14.0474427  56.8749857  40.8118153
  13.7576139  57.7236319  40.4770947  14.7153652  56.5874434  40.1893759
  37.4082899  17.1781874  64.6629238  37.7373171  17.0874357  63.7686443
  37.8480411  17.9578698  65.0019598  64.2233419  74.8470783   9.9379033
  64.8536968  75.5418015   9.7475177  64.6843433  74.0380287   9.7161990
  71.7346048   6.1940563  31.9075179  70.7922554   6.1158937  31.7588401
  72.1328402   5.8284354  31.1176062   6.2985486  42.4026012  40.9882641
   7.2187555  42.5034714  40.7447958   6.0528511  41.5433931  40.6452894
  39.2067504  11.5169597  44.9087381  39.1305089  12.4700880  44.8644066
  39.3650818  11.2470174  44.0041399  20.4621077  16.3685429   9.5292145
  19.5417094  16.2904060   9.7801954  20.4380131  16.6279054   8.6081380
  76.0256004  71.8108892   3.7747690  76.4198971  72.6010847   4.1440216
  75.0898647  71.9041824   3.9534390  14.5782876  69.7857857  41.2046194
  14.5964301  68.8292217  41.2344265  15.1475382  70.0133467  40.4694986
  26.8321085  19.8045421  21.6243434  25.9814024  19.3657601  21.6234279
  26.8740106  20.2475667  20.7768750  25.7986832  23.5620213  47.5400782
  25.5269957  23.0513549  48.3027267  25.0809407  24.1789198  47.3968506
  78.2436419  68.1442976  11.7548549  77.3129702  68.0679131  11.5444911
  78.4724188  67.2982740  12.1397448   3.6520159  69.8140383  43.8894510
   3.8835159  69.9904394  42.9775715   2.7037421  69.9396753  43.9244318
  66.0591793  70.0530624   7.6394838  66.4380884  69.2090988   7.8852051
  65.1154089  69.9310160   7.7425951  20.7104874  58.5644531  39.0402889
  20.2351642  57.7868557  39.3329215  20.6362343  59.1793299  39.7701144
  12.9753399  67.2056437  30.8099914  13.0488336  67.8709602  31.4942336
  13.3875287  67.6039410  30.0433803  78.3157921  61.7775154  46.9849873
  78.1055212  60.8444977  46.9463158  79.1397333  61.8574715  46.5044022
  51.8481588  14.1488290  48.0863810  52.2581577  14.1769469  48.9508677
  51.7549610  15.0678515  47.8354883  65.6318808  61.2081003  25.3915930
  65.9849167  62.0942307  25.3117681  66.2781906  60.6526232  24.9557471
  34.6320081  22.1074343  27.0063519  33.8625121  21.5403557  26.9560409
  34.9358082  22.0193267  27.9097748  51.2715578  19.0778363  27.2738528
  51.2634039  19.6267712  26.4897394  51.8882847  19.5116329  27.8635144
  30.0201368   7.1116024  41.9605732  29.9234581   8.0519730  41.8102789
  30.0767899   6.7333841  41.0830927  23.5981631  10.2208459  64.3447924
  24.1423011  10.9152961  63.9734650  23.8031912   9.4483858  63.8180113
  52.5691080  16.6153097  25.3242040  52.1713209  16.1946571  26.0864711
  52.0779610  16.2720978  24.5777392  10.6112611   3.9077640  25.8012843
  10.6407869   4.5081171  26.5462255   9.9558014   4.2856717  25.2149487
  33.2978439  18.7043893  24.7717309  33.7349153  18.6505568  25.6216145
  32.3941135  18.4443331  24.9502659  21.0623336  27.5247431  58.0776548
  20.1264048  27.6504636  57.9212475  21.4212584  28.4115672  58.1084871
  58.9257097  21.3073611  53.1829929  58.4493399  21.7485237  52.4796581
  59.7595644  21.7742610  53.2370424  45.4689264  16.7548263  32.3232126
  44.5411444  16.5193701  32.3262477  45.5124521  17.5501609  31.7923832
  26.7290497  42.4577761  27.1740794  25.8218598  42.5903559  26.8990135
  27.2287107  42.4536705  26.3576531  13.6312306   2.0855840  31.3845611
  14.4460535   1.9363117  31.8641591  13.0009151   1.4919609  31.7926598
  76.2205982  10.7664323  61.2502909  76.2691641  10.8003092  62.2056580
  76.8885660  10.1285505  60.9989834  72.1434164  55.5187178  59.0013552
  72.8260565  55.6002998  59.6673727  71.4273024  55.0657558  59.4465971
  44.5817327  10.1917541  11.2238157  44.3159771   9.8000282  10.3918576
  44.7767496  11.1036253  11.0077357  15.9254193  58.1143141  61.5856361
  16.3768959  58.3252907  60.7683897  14.9964929  58.1213951  61.3548183
  19.4718277  34.8871732  21.8110347  18.8431370  35.1870751  22.4675703
  19.0835130  35.1413608  20.9738803  24.0904450   3.1384939  51.4128065
  23.9562917   2.2247806  51.6645241  23.4519672   3.2912439  50.7162094
  33.3845568  63.1039333  11.2614822  33.7288165  63.8422585  11.7640722
  32.8958702  63.5090017  10.5450046   3.0534637  63.4162760  49.8108673
   3.5223418  64.0525723  50.3507805   2.6552853  62.8151751  50.4404402
   9.7364187   4.1728854  48.1717587  10.0700569   4.9329105  48.6484957
  10.1644206   3.4235507  48.5859346  41.9958067  11.4152884  35.0169802
  42.8444958  11.4718151  35.4560328  41.8994617  12.2575891  34.5725942
  43.1960392  28.3105421  42.8725195  42.7890730  27.9347730  43.6531639
  42.5746489  28.1288910  42.1674585  69.7124815  53.7452841  38.9587593
  70.0207472  54.0084076  38.0915999  70.2529240  52.9885292  39.1856384
  33.2779503  71.3920021  56.6602898  33.7021184  71.4007235  55.8022451
  33.1922865  70.4632950  56.8756866  32.6396227  66.1978626  40.9486961
  32.0519805  66.2647581  41.7013168  32.9518628  67.0917702  40.8084249
  43.1225872  31.2963629  22.6730156  42.5743723  32.0784521  22.7364850
  43.4639406  31.1706471  23.5583997  15.7833576  15.7334149  59.8067713
  16.5975726  15.2900028  60.0448275  15.1714480  15.5019653  60.5055046
   4.6648619  67.7866030  38.9010429   4.4203767  66.8629074  38.8440800
   4.7568890  68.0666018  37.9903507  24.8333955  39.9040174  11.9998062
  24.9907303  40.8064699  11.7222154  25.2156782  39.3692970  11.3039863
  75.4645491   9.9422014   2.4890269  75.2831554  10.8494663   2.2436735
  74.9090719   9.4215506   1.9088581  27.2465396   5.0574458  59.8234129
  28.1297946   4.7892058  59.5701551  26.7489505   5.0456405  59.0057993
  19.1057110   2.0642135  32.1285081  18.4461272   1.4076492  31.9046688
  19.5758903   2.2202811  31.3094807   3.6450726  20.7911086  59.1133261
   4.0587738  21.5023685  58.6242533   3.3439898  20.1809525  58.4400558
  18.0412483  67.9292202  43.2973051  17.9720926  68.8839197  43.2964802
  17.7442098  67.6668119  42.4260187  60.6308603   2.5598317  58.8866091
  60.9844589   1.8025245  59.3531799  60.3556490   2.2115812  58.0385447
  79.3283796   8.9136672  12.6850712  78.5525560   9.1395682  12.1719468
  79.3981075   7.9621631  12.6075482  26.8254995  56.2838507  14.3756425
  25.9757423  56.4453602  13.9656949  27.4336433  56.1999321  13.6412382
  39.1662598  14.1453743  58.4458303  39.2661643  13.2122028  58.2575703
  40.0122547  14.5284176  58.2138777  46.5943861  12.7415967  23.8697553
  45.7368183  12.8970194  24.2655563  46.4520788  12.8696871  22.9319000
  19.2574549  21.7771983  61.3454533  19.9432600  21.3276052  60.8517218
  18.5883451  21.9832778  60.6927252  64.7718763  40.5858231  38.2871437
  64.9959850  39.8293710  37.7451229  64.0135050  40.9757662  37.8523421
  22.2929263   6.3023078  51.5542555  21.6124630   5.6926805  51.8398333
  21.9797421   7.1610427  51.8383694  33.9884543  29.0002203  26.6302538
  34.0186477  28.1458259  27.0607519  33.7190485  29.6066332  27.3201203
  15.6005824  63.7725067  62.0114279  14.7240520  63.4629154  61.7832136
  15.7647729  63.4072828  62.8808451  71.1860752  58.1692123  49.1636133
  71.3784122  57.3834610  48.6519146  70.2518320  58.1035185  49.3613672
   4.9389702  64.4534254  59.3712044   5.4759580  65.2386618  59.4774342
   4.0735781  64.7855663  59.1324377  23.8579607   3.6173785  44.1014862
  24.1796207   2.7183115  44.0348101  24.0129805   3.8601381  45.0143242
  39.4449830   4.8988628  11.5048313  39.3912745   5.8474600  11.3885963
  40.3809023   4.7041860  11.4560020  58.5419655  70.6983519  43.2942486
  58.8819790  70.0616074  42.6656103  58.3161497  70.1771688  44.0647078
  34.4065738  19.8883021  22.4911427  34.7809005  19.0745330  22.1536660
  33.9900804  19.6366143  23.3154106  56.1909819   4.5513305  24.5700383
  56.6235113   5.3948641  24.4373703  56.3088560   4.0886259  23.7404346
  48.0495977  36.9600534   2.7479607  48.4145498  37.7635479   2.3772343
  47.6817465  36.4950824   1.9964853  45.1058531  29.8983836  36.5364361
  45.0214529  28.9670515  36.7407155  44.2916870  30.2881837  36.8549132
  43.6851835  71.7246962  26.6329408  43.9768028  72.3229074  25.9449506
  43.9374065  70.8565998  26.3182664  74.9730587  66.2893724   5.7415199
  75.5698299  67.0257473   5.6079060  74.1092062  66.6932011   5.8246404
  16.4188373  32.1339726  53.8040972  17.0999742  31.4672470  53.7160015
  15.7327819  31.8572092  53.1966734  43.2677650   1.0927721  38.3501530
  44.0886021   0.6246364  38.5028028  43.5347366   1.9973619  38.1868267
  56.5510988  12.5154328  44.9262142  55.9262705  12.8305554  44.2731285
  56.1988258  12.8214765  45.7619619  68.0046892  25.9481454  35.3608656
  68.2771683  26.6594243  35.9405780  68.8063335  25.6890607  34.9064779
  43.7612200  11.1879039  40.6054401  43.0970621  10.9381044  41.2478781
  43.4980631  10.7390511  39.8020005  50.7267904   5.4202545  30.6786394
  51.5889740   5.5408818  31.0765409  50.8804655   5.5202508  29.7391629
  67.8420830  73.9530420  44.9898005  68.5025787  74.6221018  44.8099804
  68.3403158  73.1394482  45.0676250  41.1130285  12.5886583  62.7051497
  41.9750452  12.5061035  62.2973013  40.9988880  13.5300505  62.8354836
  20.8925986  56.5848970  53.9778233  20.8755994  55.7170200  54.3812275
  20.8746505  56.4118958  53.0365562  24.5066071  23.6333561  32.0791435
  23.7063169  23.8729239  32.5464511  24.3644547  23.9450097  31.1853337
   4.0508378  73.3282614  57.6202536   3.9973640  74.2474079  57.3584318
   4.1416353  73.3554363  58.5727501  26.6382980  18.9111376  18.3959675
  25.8735228  18.9161158  18.9715779  26.5408516  18.1139970  17.8750992
  30.2111483  68.8459682  54.2630577  29.4463420  68.7154675  53.7024593
  30.5302835  67.9615593  54.4425154  67.3297071  20.3989267  56.9298029
  66.4139318  20.6201363  57.0990896  67.5258446  20.8163857  56.0910559
  60.9250069  10.6369984  57.0458794  60.4720306  10.4479146  57.8676414
  61.1476326   9.7761250  56.6915274  41.9898415   8.1547821  21.7933536
  42.1896362   7.5458765  22.5043726  42.6197672   7.9360962  21.1066246
  41.9260597  73.7470388  39.2117476  41.2869072  73.6358786  39.9155664
  41.5557766  73.2633972  38.4733629  72.0043755  71.7724657  30.6079578
  72.0077324  71.9061995  29.6601510  71.2045145  72.2042799  30.9079409
  75.9053230  57.8375483  48.4207678  75.0334883  57.7279425  48.0411386
  76.1396694  56.9654799  48.7382698  28.7863731  13.0605567  47.0845270
  28.2138705  12.6496041  46.4367676  28.2692981  13.0691564  47.8900051
  32.0116830  11.1242104  49.9762917  32.1048307  11.9594109  50.4345417
  31.2277007  10.7283139  50.3569078  78.1991768  46.0356665   4.4591859
  79.0470886  45.6837082   4.1882485  78.3901596  46.9303322   4.7408357
  34.4983411  72.1751785  37.9675508  34.4017816  73.1087542  38.1555581
  33.7302017  71.9564056  37.4399781  44.4032335  25.5947399  42.4624300
  44.7102737  25.3952742  41.5780258  44.0881777  26.4970112  42.4087858
  40.0554895   2.7231094  45.0831604  40.9256411   2.3720914  45.2725172
  39.7977018   2.2964013  44.2660379  28.9239860  13.8421142  16.9813800
  28.4931397  13.0511522  17.3053873  28.6943126  13.8766849  16.0527861
  65.8202219  72.8970194  43.1216145  66.5224457  73.4653187  43.4380817
  65.0311613  73.4356308  43.1808472  15.8608186  38.4744215  21.4090753
  15.9808707  38.4849954  20.4594922  15.0458288  38.9554214  21.5528274
  78.7378073  31.6317463  32.3993826  79.4655609  32.0579433  32.8521109
  78.8358879  30.7030725  32.6095700  60.3809929  23.7721801  35.1890421
  60.5698538  24.4596124  34.5502925  61.2062168  23.6474848  35.6577563
  28.4733129  25.5143213  43.8245630  29.0456939  26.0827708  44.3398094
  28.7676287  24.6272659  44.0313101  29.3908095  24.9636960  38.6929870
  30.0647998  24.9111772  38.0153346  29.7514868  25.5663633  39.3433237
  42.0751762  28.0665851  27.6126933  42.7623177  28.3338428  27.0022511
  41.8666458  28.8624287  28.1019545  32.2740221  13.6814475   8.4972829
  33.0390358  13.1119239   8.5787010  32.6367402  14.5666981   8.4656745
  26.4379907  31.6209698   9.9659973  26.3712645  32.5712919  10.0590813
  27.2508430  31.3926268  10.4169524  65.8334732  13.6400771  61.4731503
  65.2712727  14.2266321  60.9670734  66.6963148  13.7265575  61.0678625
  40.9369040  37.8852177  35.9845424  41.1328268  38.3538055  36.7958832
  41.4673281  37.0899105  36.0332155  44.2861700  68.9286995   2.5538665
  44.3692732  68.0791998   2.1206561  44.5463324  69.5641279   1.8869483
  57.0283222  16.6057563  63.2176876  56.0886431  16.5939653  63.0357647
  57.2465420  15.6937861  63.4098387  69.0752363  34.8050475  40.5087709
  69.2030478  35.7327175  40.7070780  69.4505310  34.6929121  39.6353793
  24.2584467  27.0803833   6.7131644  24.1769314  27.6025033   5.9150559
  24.8338389  26.3558865   6.4676881  55.2227879   0.8204250  22.5180316
  55.9402800   0.2992126  22.8782773  54.8543692   0.2735565  21.8241787
  46.1571741  33.0182433  38.9362955  45.3579950  33.4746265  39.1994619
  46.3532591  33.3618641  38.0646849  71.2128544  37.5094628  23.1840611
  70.6752586  37.1430254  23.8861632  71.1899900  36.8464899  22.4940062
  71.1936140   0.8397324  23.2139587  70.5532598   1.4043802  23.6468029
  70.7866383   0.6132067  22.3777246  60.9844542  16.5068901  29.5669246
  60.4065514  16.6886020  28.8258123  61.1431026  15.5640292  29.5213819
  45.9262753  63.3037710   9.6374333  45.8471346  62.4020672   9.3261534
  45.9522486  63.8313198   8.8391542  26.7185712  22.9455590  11.6083145
  26.6570950  23.6905766  12.2061455  26.1829996  22.2656298  12.0170820
  26.8664718  12.3408794   5.8320743  26.3513350  12.9172337   6.3965929
  26.5876770  12.5638258   4.9439296  55.2851534  14.4176555  17.0588148
  56.1773682  14.2037487  17.3316348  55.3336430  14.4746089  16.1045420
  40.0141335  39.0923667  33.8441300  40.3651190  38.5135436  34.5208907
  39.0681505  38.9492369  33.8735604  66.0545635  50.3166151  10.0797546
  65.9619761  49.4200850  10.4020739  65.1611328  50.5896473   9.8712671
  59.0661144  34.8246026  59.9234343  58.5766602  34.1024303  60.3173018
  59.7392368  34.3970704  59.3939447  36.6697764  27.7174544  49.7448826
  36.9712520  27.7182627  50.6533670  37.4605012  27.5556898  49.2302752
  18.0731571  59.5724869  52.1793699  17.9586220  60.2767515  52.8174353
  17.6531935  58.8129377  52.5830412  37.3927712  18.4195614  33.8519669
  37.2399545  17.5197387  33.5635257  37.4118114  18.9305043  33.0427647
  28.4336877  13.3319008  30.6189060  28.6892891  13.2804012  29.6979022
  27.8372002  14.0793669  30.6604958  36.3788557  23.4642744  32.5540471
  37.1853399  23.5758567  32.0506907  35.9778380  24.3334031  32.5596619
  45.6651306  17.1144068  61.6254616  45.2018738  16.6394365  62.3154116
  46.0435438  16.4286733  61.0751867  11.3766396  51.3414335  63.1363916
  12.2314668  50.9886265  63.3834267  11.4778614  51.5939045  62.2186518
  35.7602262  15.7704341  30.0649405  35.9340835  16.7060804  29.9621296
  34.8842883  15.6479502  29.6989298  34.6266532  66.2975550  49.4821310
  35.2117729  66.9233084  49.9091005  34.9183965  65.4425383  49.7984648
   3.8875756  25.2046776  54.4850159   4.1884136  25.9421062  53.9540434
   4.3909258  24.4567776  54.1632748  33.4033704   7.6946890  39.6743298
  33.4813595   8.5723460  39.3003392  33.5132837   7.8250635  40.6162167
  73.4315062  26.7371106  12.5884104  73.7789679  26.1009979  11.9632208
  72.9642439  26.2073946  13.2343972   7.9638731  68.3332300  64.1269732
   7.6185012  68.0376482  63.2846069   8.9133584  68.2495070  64.0392208
   3.2565060   2.9888254   3.1176242   3.2751620   2.6217294   4.0014365
   4.1541225   2.8927463   2.7993700  66.2339830  34.3445730  15.7841420
  65.6646347  33.6821985  15.3925633  66.2543917  35.0533056  15.1410937
  74.0034008  26.9627833  63.8966990  74.0367842  26.9035220  64.8514795
  74.9019861  26.7919755  63.6145592  46.3546276  36.1974382  37.6963878
  46.9561768  35.5576754  37.3155022  46.9037724  36.7290831  38.2726026
  60.8293772  46.1203480   3.2224324  60.2388239  46.8732071   3.2485586
  61.5676928  46.4135075   2.6884159   6.6521692  21.1560559  64.5077705
   7.2164434  21.7455173  64.0074110   6.5633017  21.5777135  65.3624868
   1.4197107  17.7183926  55.0431490   1.4881063  16.9333446  55.5865192
   1.2528637  17.3855376  54.1613293  41.0032082  30.3619289  36.7098784
  41.7965412  30.8746457  36.8647337  40.7616806  30.0276065  37.5736642
  35.3375363  36.4095330  37.0998979  34.8411989  36.4891505  36.2853146
  36.2523413  36.3738370  36.8204522  71.1154222  18.4749854  61.8143082
  70.2969646  18.8135135  61.4513302  71.7987823  18.8668859  61.2705564
  68.4540844   1.6901612  52.7394247  68.3401155   0.8963434  53.2620096
  69.3836594   1.6952600  52.5111866  38.7335300  27.5793982  56.4950371
  38.8262081  26.6458416  56.6850805  39.2580366  28.0139494  57.1675634
  16.1981356  71.3345909  35.4853034  16.2036991  70.4347229  35.8115554
  16.7077768  71.2990379  34.6758389   4.8920187  50.7912874   4.6266785
   4.6399909  51.6185427   4.2163545   5.8469582  50.7736635   4.5633376
  69.9691439  28.3372998  48.5591936  69.5111036  27.5931144  48.9498568
  70.1430559  28.0652881  47.6580858  34.9913883  18.1973696  27.1696782
  35.2620554  17.3006153  26.9726944  35.2136564  18.3173013  28.0929589
  13.5731375  70.4666471   7.4016643  13.6567199  71.3347626   7.7961516
  13.1098807  69.9481964   8.0595660  56.6640759   3.6099809  16.8153846
  55.7588911   3.2989314  16.8045032  56.9231558   3.5609016  17.7355480
  27.5883603  72.9018641  23.5691547  28.0678320  72.5869751  24.3354344
  27.0582652  72.1537638  23.2942390  10.8687925  68.1071568  52.5521040
  10.0771546  68.6268806  52.6914883  11.5351510  68.5373068  53.0879879
  37.0064759  27.5253749  46.2769747  36.4342856  26.9796157  45.7375526
  37.0518255  27.0680165  47.1166134  59.2313957  47.3533583   6.1472380
  59.3110275  46.5290070   6.6271687  58.3116198  47.5996351   6.2451726
  64.7653008  32.4657440  56.8945265  64.5017481  33.3241010  57.2261810
  64.5320225  32.4856353  55.9664011  26.2678671  63.5589552   2.8536612
  27.0456100  63.9754868   3.2249397  26.5774107  62.7085733   2.5417832
  29.2961693  29.2336345  51.4409924  29.7416115  29.0173316  50.6218290
  29.8824859  28.9103436  52.1250582  19.4278526  19.2444265  28.3000302
  19.1379535  20.0157595  27.8129625  20.0103879  18.7844729  27.6956105
  60.1569128  28.9174032  45.8688736  60.6156540  28.2708645  46.4053297
  60.1976585  29.7253919  46.3804674  27.1431923  20.1137209  31.4392400
  26.6242576  19.8970294  30.6646538  26.5634394  20.6589127  31.9711065
  69.9269867  28.5345292  54.4158649  70.1376534  29.4487500  54.6057367
  70.3488016  28.0405426  55.1189137  45.0479794  29.7321343  45.3475094
  45.1615620  29.9698734  44.4272852  45.1671839  30.5539012  45.8236599
  59.1142035   7.9422867  52.9611444  58.3805323   7.4150717  52.6449156
  59.3308640   7.5643885  53.8134861  50.1856947  19.1266894  37.0120239
  49.6959305  19.3587291  36.2230253  50.8394670  19.8201907  37.1007252
  44.8846102  67.8732491  55.5111599  44.6014118  68.4762526  56.1984825
  44.2507648  68.0000496  54.8051882  73.6701012  33.3581591  57.3066950
  73.8090897  33.3642411  58.2537317  74.5462465  33.4616446  56.9353628
  77.7314043  41.0983133  51.0190058  76.9244480  41.5803242  50.8381319
  77.4457359  40.3297806  51.5129566  66.1110115  55.3006935  10.2786791
  66.1024523  55.0130701   9.3657535  66.8226051  55.9394360  10.3218985
  41.5403128  16.2137914   6.5537244  41.4807081  16.8500304   7.2663808
  41.7817640  15.3937328   6.9843447  72.2878361  27.9127192  34.6278548
  71.7181778  28.6395741  34.3760490  71.8404961  27.1328783  34.2992711
  37.4305344   8.5253406  51.3630390  37.3508334   8.6873966  52.3030472
  36.6688442   8.9601284  50.9796095  41.5480232   3.3486030  48.2651949
  41.3363504   3.5213006  49.1825867  41.6973448   4.2149949  47.8866482
   3.1236124  13.1202865  22.0122957   3.6159649  13.6525035  22.6372480
   2.9530847  13.7098336  21.2777305  33.6536622   9.8051757  24.1411400
  33.8714194   9.8059505  25.0732422  34.0825438   9.0222842  23.7956357
  53.0510902  29.3172669  63.0367279  53.3478928  28.7004662  62.3676252
  52.1601295  29.0353918  63.2439995  12.7543163   1.5169466  50.5407238
  12.6200294   2.1846808  51.2132788  11.9015670   1.4315088  50.1144028
  42.6519156  67.7125502  47.5273848  42.4418068  68.2638121  46.7735910
  41.9158602  67.1040106  47.5916576  48.2354975  37.1136212  35.5064058
  47.7136755  37.4072003  36.2532282  48.9831400  36.6629124  35.8989978
  29.6204877   4.9351647  17.5826585  28.9754725   4.3546778  17.9866683
  29.8986459   5.5146599  18.2919145  69.1754484  68.1265974  45.0108767
  68.9138746  69.0468740  45.0408316  68.5220480  67.7100515  44.4489241
  45.2667570  28.5071445  53.6097145  45.8789206  28.5504293  52.8751326
  45.6214476  27.8226376  54.1770554  27.8513598   1.3453756  23.2903552
  27.4750495   1.9101922  23.9653397  27.3917818   0.5118880  23.3919311
  26.4080095  11.0407925  47.4751139  26.1088204  10.2569580  47.9359007
  26.5626311  11.6820264  48.1687593  53.4593868  34.7134519  37.1379542
  53.6550426  35.6457067  37.0438600  52.5147772  34.6514726  36.9961572
  14.6583879   1.3940951  57.1073961  14.5729923   0.5182078  57.4839115
  14.8053598   1.2403353  56.1741304  73.5746241  25.3065825  41.1673021
  74.4616222  25.6663227  41.1744928  73.1213093  25.8006573  40.4841995
  23.6848569  67.6236582  20.3519416  23.8441348  67.7559280  21.2864828
  23.8163662  68.4878349  19.9618983  20.4798269  27.5965953  47.9728746
  19.6618760  27.7115107  47.4891567  20.9816360  26.9714642  47.4497747
  22.4751592  49.3321753  17.8057122  22.0436072  49.7579193  17.0649409
  21.7843390  49.2333937  18.4608793  75.5914164  60.1855516  44.6044350
  75.8028603  60.2398205  45.5364084  75.2170706  61.0409021  44.3935633
  35.6696653  34.1436839  38.8345075  35.5371356  35.0119448  38.4539962
  36.3957191  34.2591047  39.4474983  42.0258999  21.5775585  27.7372456
  42.1834707  21.7748976  28.6605334  42.3364353  20.6787395  27.6280475
  36.6007185  31.1868739  32.6573086  36.7090511  30.2694201  32.4067593
  37.1500826  31.6701651  32.0401692  63.1842709  40.4391766  60.2611160
  62.5326443  40.8414841  60.8353615  62.7120018  39.7323132  59.8211813
  56.1657572   9.0956062  61.8394327  56.2586832   9.8142713  61.2140417
  56.3964844   8.3122379  61.3401031  43.6745691  24.6064425  27.9111457
  43.2259750  24.6954012  27.0702648  43.0805540  24.0786767  28.4448504
  31.9551277  23.0209565  28.2094669  32.7241325  23.2039428  27.6696754
  31.5316486  22.2782040  27.7790976  48.8690472  32.1253443  38.8694072
  48.0330133  32.5679588  39.0155911  48.6291361  31.2783766  38.4934783
  51.3485527  13.5363448  41.5453529  51.9285727  13.8018048  40.8316755
  51.0977650  14.3576205  41.9682550  24.7500706  27.3285222  55.2527237
  24.1960526  26.9273257  55.9223032  24.5526695  26.8394279  54.4539452
  13.8144600  39.8139143  55.3153849  12.8682971  39.8981476  55.1974344
  14.1880202  40.1440001  54.4982386  33.8814020  16.1795068  39.7089672
  33.9539003  15.8428931  38.8158441  33.2901716  15.5680871  40.1481104
   6.5854204  15.8579898  55.4926634   7.0919704  15.2729809  56.0560513
   5.6771386  15.5822623  55.6160736  65.7635021  39.6427822  57.2925472
  65.0382757  39.6538758  56.6679192  66.5191841  39.9430060  56.7875290
  63.8599968  27.9339957  51.9552517  63.8038206  27.1001863  52.4219799
  64.0582561  28.5767841  52.6362419  77.9107618  19.2657590  46.2738752
  77.8239012  20.2005363  46.4606333  78.0823278  19.2244053  45.3330851
  40.1365900  23.7526727  51.7547941  40.2518606  22.9968166  52.3306608
  39.8209023  23.3804822  50.9313536  51.0564327  15.3041553  27.1112800
  50.3208876  14.7027826  26.9948339  51.2794924  15.2328408  28.0393910
  46.0716677  13.0441737  21.3364744  45.9703588  12.2681403  20.7853460
  46.3050222  13.7430632  20.7254672  47.6144934  12.4397647  32.8059840
  47.6080561  12.8674591  33.6622953  47.4610901  11.5148735  32.9990482
  23.7726688  69.3985891  17.3799062  23.4146357  69.3604040  18.2668030
  24.0618825  68.5041046  17.1996498  26.0155082   6.9916451  42.8685188
  26.4366078   6.1362636  42.7834892  25.4045653   7.0320427  42.1327543
  48.3369017  35.6366539  58.7659931  48.1662512  35.9776664  59.6439552
  47.7657843  36.1499238  58.1944942   9.3566269  33.1092286  42.6378250
   8.6992234  33.5822105  42.1275902   9.0721804  33.2091880  43.5463047
  61.9214344  29.2648005  56.0314894  60.9647369  29.2696285  56.0008764
  62.1455479  28.4022045  56.3806820   7.0895231  40.1428509   6.1815685
   6.7652565  39.4748068   6.7855561   7.6148194  39.6565366   5.5461198
  61.7438650  25.2318358  40.7137060  62.1395016  24.5557117  40.1636505
  61.1399317  25.6918287  40.1306915  65.4280710  17.5861025  26.4512300
  64.8813629  17.4546242  25.6765962  65.1489353  18.4324431  26.8005443
  56.9106483  31.7580724  14.4400573  57.1265888  32.6761198  14.2763829
  56.1990881  31.7897224  15.0795209  51.4423418  10.1251018  33.2810163
  51.9207954  10.8451390  33.6919427  50.5446482  10.4479504  33.2026124
  44.4635439   1.8140945  26.9488120  44.2087078   1.6888942  26.0346913
  45.2427244   1.2687641  27.0570850  37.8897452  60.8763170   0.7302476
  37.5050902  60.0072241   0.8440638  38.5791969  60.9217167   1.3926879
   3.5564485  70.0400877  28.1827784   3.4289521  70.3454971  27.2846127
   4.3996999  69.5875168  28.1644416  27.1048284   0.3690595  11.2190866
  27.4810481   1.1588284  11.6076148  27.6514602  -0.3440116  11.5491664
  49.4915104   5.1083869  44.6032763  49.4693613   4.1570410  44.7066307
  50.4235458   5.3247160  44.5760441  40.1015759  22.7156377  39.0265489
  39.8179817  21.9235349  39.4830370  40.1489687  22.4575925  38.1060076
  56.0212564  13.2124102  51.3256550  55.5374861  13.7974596  50.7426357
  56.8112755  13.7019777  51.5546227  53.2685709  19.3492901  24.5422387
  52.7882719  18.6126363  24.9202394  54.1062355  18.9746070  24.2699003
   0.8853534  72.6776505  21.2911940   1.6760916  72.1406841  21.2398982
   0.1977580  72.0667362  21.5561986  69.7870111  11.5184891   0.1737493
  70.5256224  10.9330356   0.3408568  70.1088190  12.1259630  -0.4923184
  56.6362762  19.9543858  47.4497843  57.2252798  20.0163460  48.2017612
  57.1913958  19.6404970  46.7359591  33.5399556  13.8560903  60.2176714
  33.7192607  14.7478557  59.9196196  34.3782496  13.5444736  60.5588245
  42.7893734  34.3585277  38.4927773  43.2624006  34.2895961  39.3220687
  41.8770695  34.1813231  38.7219739  63.4879351  36.1103630  39.9117970
  63.4278488  36.7177868  40.6491327  64.3123674  35.6445813  40.0517607
  25.0190306   7.4706554  52.2288704  25.0531387   6.5142643  52.2484684
  24.3083453   7.6973158  52.8286886  39.7104621  16.9241595  25.8729720
  39.2330027  17.7105141  26.1373806  39.1485310  16.5120769  25.2167296
  49.4778299   3.0857846  11.6194558  49.7793770   2.3871872  11.0387123
  48.6979532   2.7260214  12.0420527  56.1138344  68.5008621   1.3068029
  56.5641499  69.2636013   0.9439237  55.8726931  67.9786539   0.5417033
  38.2385111  12.4386394  29.3509197  37.4610043  12.1821845  28.8549924
  38.7363744  12.9901767  28.7474537  18.9687681   9.8465186  17.5129187
  19.0487635   9.6650255  18.4493446  18.6088967  10.7324803  17.4705493
  53.7901068  32.9095244  40.7121277  53.5700846  33.8357306  40.8119535
  54.6920490  32.9108047  40.3916025  20.7324243  66.7629957  25.4528451
  20.4309535  67.1490192  24.6304512  21.1196399  67.4948215  25.9331870
  63.9541006  19.0277123  62.1331835  63.5659170  18.6246705  61.3565874
  64.6018219  19.6411681  61.7862511  59.9351645  30.3746605  34.3296409
  60.4420519  29.6326852  33.9998364  60.5591393  31.1002016  34.3515062
  -0.3049094  38.7538695  50.0030422  -0.0578314  39.4630480  50.5965471
   0.5209869  38.3170533  49.7948885  53.3690691  25.3340030  35.1366377
  52.5007010  25.5641294  35.4671144  53.7237787  24.7340512  35.7927370
  67.0858431  44.5795393  47.1647024  66.1685658  44.3059683  47.1636629
  67.5729752  43.7834215  47.3771429  60.3328276  48.8970661  42.3333645
  61.2387896  49.1060734  42.5609159  60.2915573  47.9413795  42.3679781
  14.6203065  34.6805882  12.6602638  14.6454763  35.0480938  13.5437453
  13.7441909  34.3028855  12.5828421  52.4387884   2.1292864  53.4677792
  52.9233503   2.9534379  53.4208012  53.1137705   1.4518729  53.4260511
  64.3682909  42.9944849  40.2582264  64.8164892  42.9581022  39.4132257
  63.4517860  42.8116465  40.0512886  68.9944267  52.8866625  34.8933363
  69.0767145  53.7261629  35.3457737  69.0527868  53.1086683  33.9640665
  61.1494541  46.4256525  34.7314954  61.0700893  45.6816435  34.1345119
  60.2751398  46.5246964  35.1083159  30.6584334  17.3810518  52.7575731
  30.0219345  17.9068041  52.2731304  31.0684180  16.8283117  52.0922756
  40.1706696  69.8206329  52.0477295  40.0919485  70.7654095  52.1797562
  40.1640987  69.4538736  52.9318523  51.2909746  67.1068859  45.7312632
  50.5981922  66.4748526  45.5393839  50.8560562  67.7923727  46.2384033
  73.8993359  38.3899856  62.6757288  73.4506607  37.8711629  63.3433723
  74.8302364  38.2515264  62.8503370  50.8194304   7.8342950  47.1904421
  51.7368269   7.8998077  46.9252539  50.3456402   7.6695085  46.3752079
  57.6271248  46.5475655  46.4061642  57.5681686  46.6673946  47.3540020
  58.5461712  46.7180061  46.1999035  53.3269548  28.6791492  44.1265440
  52.5723600  29.2292428  44.3368244  53.1760788  28.4007144  43.2232475
  68.6435747  42.5737619  48.0815268  68.4790516  42.1936321  47.2185898
  67.9225063  42.2557020  48.6247873  13.1515384  37.0797229  26.8389654
  13.0217731  36.1345911  26.9171786  12.3169625  37.4596047  27.1135688
  72.7381516  29.5307755  47.5497007  72.4302864  30.4005361  47.2948074
  71.9421768  29.0022111  47.6069355  70.8239508  55.3585625  48.7666941
  71.4908504  55.2876711  49.4496679  69.9956751  55.2169418  49.2251015
  44.9324131  69.0388060  25.5877495  45.2460480  68.9517355  26.4879084
  45.4455948  68.4003639  25.0925016  11.1639202  34.8633623  39.7065425
  11.4797997  35.6425643  39.2490554  11.9499063  34.4776702  40.0934505
  63.6023521  46.6221809   8.8354081  64.1948843  47.0701790   8.2317221
  63.2363605  45.9022188   8.3216625  59.2841578  11.5292239   2.8774983
  58.9684820  11.4738083   1.9755492  59.3622208  10.6181037   3.1603390
  67.0207310  64.2040253  58.0841255  67.4805069  64.7901630  57.4830580
  67.7160072  63.6953354  58.5013342  53.1358004  25.0687623  44.1063213
  53.5012722  24.4260526  44.7142601  53.0116177  25.8561373  44.6362782
  69.0229654  39.4674563  46.3626432  69.3611050  40.2180862  45.8743334
  69.7081757  38.8034940  46.2859917  74.7353649  43.1906557  38.8902426
  73.8971710  43.4572792  39.2678404  74.6767521  42.2374105  38.8260651
  64.3597317  47.7744961  59.1518116  64.2652655  47.8717995  60.0993538
  64.0830278  46.8754625  58.9745903  23.1356788   6.5080440  56.6370106
  23.0113697   5.8526897  55.9505033  23.0489445   6.0178757  57.4545956
  43.0689621  41.1594057   4.2579523  43.7522793  40.9560251   4.8966599
  42.2529459  41.1080360   4.7556573   4.6825093  28.6928296  53.1873274
   5.2407199  29.3641734  53.5796690   3.7943849  28.9382696  53.4466076
   1.0520078  30.7650518  41.6682100   0.3162174  30.1692176  41.8090057
   1.6127665  30.3090525  41.0406351  47.6764774  33.0553365   6.4035767
  47.2412395  32.7209139   7.1877706  48.1444645  33.8346815   6.7033178
   0.2856403  10.7235968  27.6772165   1.1908028  10.9946680  27.8302956
  -0.1728034  10.9520292  28.4858465  76.9248581  37.9437971  38.8431501
  77.5075197  38.3141637  39.5061421  77.4998426  37.4215961  38.2837486
  69.4340849  41.3186550  51.7756033  69.6240425  40.8074236  50.9889698
  69.5558882  40.7018185  52.4973392  76.8168163  22.9734039  28.1629062
  76.0987663  23.5174727  28.4863663  76.6658545  22.1161079  28.5610080
  71.2942362  29.5300436  37.7101731  70.6781673  28.7976146  37.6946735
  70.8168793  30.2531862  37.3034453  10.7199466  28.3098960   8.0328238
  10.5157185  27.6050019   7.4182928   9.9011540  28.7983680   8.1177020
  65.5479527  58.2240391  36.0031152  64.6197510  58.3921528  36.1656237
  65.9989452  58.6403084  36.7376590   6.9493693  47.5576258  18.6866093
   6.7022997  46.9281673  19.3640804   6.5791583  48.3883572  18.9850461
  17.9391944  17.2224653  54.3401718  17.1466208  17.7547765  54.4087601
  18.6568940  17.8536844  54.3921328  44.8027182   5.7555932  35.6498504
  45.1953459   5.7966363  36.5218520  44.2943668   4.9445477  35.6540012
  21.0537624  16.6056049  63.9915466  21.3889551  17.1775270  64.6820402
  21.5830851  15.8110785  64.0606546  71.8762541  47.1093178   3.9695612
  72.4472380  47.2054291   3.2073462  71.8192053  46.1639595   4.1084015
  60.0849819  41.2479353  33.8190413  60.8926678  40.7459736  33.7099147
  59.4283533  40.7550955  33.3269238  77.8594208  24.6246099  30.2027822
  77.4152279  24.3326855  29.4067287  78.7743711  24.3759108  30.0714421
   2.3989412  60.1969576  43.0740547   2.2097598  60.7376242  42.3071671
   1.9246727  60.6212187  43.7891102  55.5225229  18.5124600  42.7811384
  54.7438335  18.9802301  43.0829096  55.2724743  17.5888824  42.8078175
  11.2397170  32.0599031  36.3590622  12.1545660  32.3294735  36.4403963
  10.8709598  32.1976471  37.2315741  67.6222515   3.7126422  47.8111982
  66.9007301   3.0945656  47.9279089  68.4112501   3.1742790  47.8734779
  49.9854994   0.3459346  21.6307878  50.7893038   0.2022789  22.1302843
  49.9691534   1.2892935  21.4694238  64.2120790  59.5273066  49.1391325
  64.4307661  60.3680754  48.7372398  63.2562017  59.4881535  49.1075468
  30.8357954   9.8609555   8.9808857  31.2333202   9.2755735   8.3362657
  30.1700401  10.3418827   8.4892482  71.0304642  66.1657572  26.7069888
  71.6254425  65.7618332  27.3387146  71.2190580  67.1023798  26.7653298
  30.4848003  30.2232838  31.1775398  30.7830954  29.8420501  32.0033193
  30.2126694  29.4715524  30.6511617  73.5329390  55.8594370  61.5176296
  74.0831232  55.7529497  62.2936392  73.7089777  56.7519426  61.2198544
   0.3453447  12.9340160  55.2581644  -0.1533544  12.3514807  54.6852922
   0.2585350  13.7979949  54.8553801  64.8277569  22.7813244  15.3471565
  64.0448236  23.1927943  14.9811733  65.4898691  23.4724593  15.3341889
  65.3924036  66.4264727  41.1931086  65.7699203  67.3052263  41.1543036
  64.6745491  66.4460278  40.5602312  48.4131956  61.5306854  35.1523733
  48.9904642  60.8504629  34.8055339  47.6110172  61.4500475  34.6363926
   5.9974825  59.3684244  18.9333534   5.5015367  58.6004019  19.2169142
   6.1140388  59.8858547  19.7301674  56.3970280  70.0913906  37.9515934
  56.7197657  69.6046352  37.1932149  55.4438257  70.0372076  37.8830242
  78.7949085  25.4146862  12.8509545  77.9079676  25.1957035  12.5652707
  78.8576460  25.0537992  13.7352943  44.4672918  23.2573152  48.9965057
  44.3467617  23.7280083  49.8212194  45.3766584  22.9595518  49.0213633
  57.5718880  65.0196362  18.6092222  57.9014778  65.8114862  18.1842780
  57.3052740  65.3093052  19.4817138  51.7318010  50.2383709  21.7509031
  51.8406487  51.1877489  21.8062687  52.1065569  50.0034285  20.9020257
  24.1910410  39.1048741  60.0829363  23.8184309  38.9566636  60.9520864
  24.2223358  38.2352066  59.6842766  12.4125481  70.9495687  26.2729073
  12.5939667  70.7423162  25.3561926  12.1453917  71.8686676  26.2623334
  15.8303881  37.7676296  26.6488218  14.9463522  37.4464226  26.8264174
  15.9482062  37.6368976  25.7079387  63.2680750  37.9434252  42.0205736
  63.7690639  38.7276626  41.7964888  63.7857199  37.5152349  42.7024317
  71.6049671  39.3705344  36.3790631  72.3964596  39.5833945  35.8846283
  71.9220543  39.1470456  37.2541261  13.1773245  69.4306612  44.4986200
  13.8774323  69.4497204  45.1510906  13.3212936  68.6163425  44.0165520
  57.3720980  23.5153437  35.3003597  57.1378899  22.6688051  34.9198961
  58.3177042  23.5837841  35.1685572  65.5809450  67.6413345  19.8685360
  65.9731674  68.3001757  20.4415298  64.6909189  67.9577780  19.7138059
   6.4632386  62.0480871  30.5533051   6.6106433  61.5242720  31.3407803
   6.8770754  61.5463781  29.8509789  68.0985117  60.8900642  10.1548600
  68.3549166  61.5928841  10.7519615  67.2817850  61.1965656   9.7608477
   2.6475698  28.8560009  49.8279190   2.3377636  28.8944101  50.7327795
   1.9592597  29.2862535  49.3206263  57.1171427  54.6268606  64.0292215
  56.8675661  55.2033043  64.7514820  56.7809963  55.0639582  63.2467985
  79.2239475  38.1623816  59.6492863  78.5392952  37.6435995  60.0716019
  79.0013647  39.0692711  59.8596191   3.1757471  38.3513856  39.4211197
   2.3744315  38.5593963  39.9015951   2.8695032  37.9695702  38.5985231
  54.6208668  32.2300339  37.3952770  54.3550873  33.1467271  37.3227143
  53.8629961  31.7907524  37.7811551  30.3523111  23.0222416  17.9826951
  30.8118081  23.7433720  18.4128881  30.7313681  22.9867005  17.1044683
  35.2944875  70.6087446  43.1256151  34.7083473  71.2574768  42.7359819
  34.9847603  70.5166578  44.0266275  12.0602000  64.7457647  30.4192710
  12.4234414  65.6109285  30.6084228  12.1680808  64.6421862  29.4738269
  15.8159471  64.0663719  15.1265299  14.8782277  64.1729546  14.9666703
  15.8653438  63.6087322  15.9657896  35.9559798  26.5261173  59.2663670
  36.5290928  26.0833073  59.8922205  35.7312250  25.8498144  58.6273623
  60.6589890  35.6340384  62.2303391  60.1450491  35.7685590  61.4340925
  61.4470863  35.1795030  61.9327974  73.9374208  55.4545164  35.4809976
  74.1098833  56.3936281  35.5485344  73.2331610  55.2945471  36.1092186
  14.0403199  22.7252626  60.5974579  13.9208055  22.1578312  61.3590145
  13.3321869  22.4794936  60.0021648   9.2125010  11.6114545  48.9516830
   8.4950101  11.2104475  49.4422245   8.8032568  11.9323862  48.1480932
  14.6503627  13.2924795  49.0733099  13.7712562  13.6349010  48.9115953
  15.1413798  14.0422690  49.4093847  74.6176672  74.2402792  14.4968176
  75.5229235  73.9565802  14.6243429  74.5902491  75.1248455  14.8615396
  48.2928324  66.6529036  53.3965731  47.3557520  66.5268946  53.2474709
  48.4457922  66.2984085  54.2724514  68.0525303  32.0154190  25.9955120
  67.5957918  31.6477275  26.7521000  68.9688015  31.7718554  26.1272621
  66.1448145  43.7680531   0.5886041  66.1890030  43.6120224   1.5319669
  65.7137680  44.6187496   0.5064745  13.4639430  57.4817038  14.8265636
  13.3097482  56.5616465  15.0409293  13.0839884  57.5914717  13.9548874
  45.6419468  74.5143890  64.9009180  44.9281502  75.1452208  64.9946213
  45.2036142  73.6791563  64.7381783  78.8016462   2.2207616  40.1994228
  78.7907219   2.9498041  40.8195925  78.3663654   1.5053643  40.6630659
  13.9081979  27.6528049  42.4232244  13.2476223  28.3240223  42.2519398
  14.7439420  28.0982399  42.2841120   9.6363527  34.4819403  45.5834866
   9.4832677  35.3067803  45.1225805  10.5743611  34.4846416  45.7741833
  64.8887777  37.2840977  48.4970474  64.5989847  37.2758007  47.5848055
  65.6934071  36.7656374  48.4974718  48.0379486  71.6649961  31.1706710
  48.6108160  71.2942028  31.8419099  47.9485226  70.9681892  30.5205226
  58.5785675  71.4404202  36.4885473  58.3684349  72.2617865  36.0442042
  57.9759598  71.4091015  37.2315907  77.5703287  59.8851109  36.9763899
  76.8741751  59.2498207  37.1437454  78.2416868  59.6818876  37.6277018
   3.7498525  65.1915026  24.1060233   3.8433596  65.8979607  23.4669566
   3.4616867  65.6295443  24.9068403  57.4331141   8.0980802  56.7142105
  56.6774130   7.5891453  56.4207315  57.2060537   9.0047538  56.5077686
  70.6181765  37.3768139  46.1434841  71.5314531  37.4172902  46.4272451
  70.5213785  36.4998937  45.7721710   5.2685910  33.7471342  55.9591532
   5.3155142  34.6929121  55.8193779   5.9774464  33.5605359  56.5747261
  63.3451319  60.3928232  32.9090428  63.2183790  59.5078087  33.2509732
  64.1153622  60.3236246  32.3449612  53.6613894  13.4111595  46.2088585
  52.9140043  13.6229658  46.7681313  54.3580866  13.1725335  46.8203354
  55.9250212  57.2106981  43.4733915  55.6481504  56.7606831  42.6752281
  56.1115885  58.1060886  43.1910753  37.3436403  74.0888977  51.9858122
  37.0084596  74.6478319  52.6868677  37.1859837  73.1967354  52.2947168
  52.8521681  29.6996117  47.4767828  52.6180410  28.7716174  47.4923277
  52.0514679  30.1440072  47.1981764  30.3721046   3.3542088  60.1621866
  30.0580072   2.6352590  60.7105350  31.3040280   3.4239113  60.3692961
  47.1544409  54.4698238  10.7925153  46.6493559  54.9208498  11.4690459
  47.5186443  55.1739836  10.2560961   7.1728349  68.3021450  18.5349476
   8.1183898  68.4375811  18.5967088   7.0785141  67.5072384  18.0101037
  39.2936373   1.9671892  30.3601146  39.4945264   1.0359748  30.2667546
  38.4315372   2.0678681  29.9565339   5.5508226  54.1068029  25.8263493
   5.0154972  53.9767075  26.6091228   4.9597877  53.9170170  25.0977278
  13.9125919  45.1764250  29.5826840  13.3134556  45.9224415  29.6096897
  14.4131529  45.2416801  30.3959560  41.7948294  37.9460001   0.2438164
  41.9127893  37.4417639   1.0488413  42.6839495  38.0951595  -0.0778244
   0.3295830  70.8407879  51.6671991   0.5001530  70.0205660  51.2041903
  -0.5434539  71.1033964  51.3755226  74.8489380  24.6133542  50.5226088
  74.9799204  24.7495055  49.5842361  75.6021690  25.0375581  50.9336138
  62.0464277  58.1711721  28.9455843  62.0838356  57.4184752  28.3554292
  61.7805529  58.9010572  28.3862925  64.4316435  28.5873699  39.1730666
  63.8010311  28.8534832  38.5039330  64.7345161  29.4100285  39.5574212
  11.4599168  31.0443282  30.2380371  10.7278895  30.5232430  30.5679417
  11.2410772  31.2113118  29.3212724  25.5760694   0.4421534  60.5141544
  25.2843928   0.9080742  61.2977839  25.6173968   1.1164661  59.8360491
  47.1704435  23.8744307  53.2533932  46.4256907  24.3235373  52.8535414
  47.1976757  23.0220723  52.8186798  73.9727974  59.4649458  37.7670836
  73.0689573  59.1522264  37.8059077  74.2822027  59.4160938  38.6715794
  70.6262207  33.4205461   0.3817009  70.5636406  34.0228748   1.1229934
  69.7524261  33.4299445  -0.0089752  36.2973142  50.2850723  10.4834843
  36.6724348  50.1685333  11.3563728  36.3734698  49.4236660  10.0731051
  72.6808929  41.2592220  47.4866438  72.8546524  40.7421875  48.2732296
  73.3316851  40.9573030  46.8529654   1.2182593  59.4944477  35.4840946
   1.3609399  58.6160088  35.8365464   0.4414260  59.8135328  35.9433842
  71.2033367  41.3194513  27.3784566  71.1606503  41.2506437  26.4246893
  72.0644617  41.6992760  27.5528908  57.8272724  14.3783069  33.9470720
  57.6133585  15.1317143  34.4973898  56.9791746  14.0562999  33.6416531
  65.1078176  18.7043607  52.7602148  64.2915344  19.1347396  53.0145597
  65.4917383  19.2870486  52.1049976  60.1252413  58.1696796  42.4172354
  59.9897814  58.6435747  43.2377911  61.0416269  57.8948450  42.4478436
  52.3373985  64.7043943  27.3602533  52.0224333  64.0834808  26.7033744
  52.4116564  64.1873693  28.1623793  76.8171024  42.6576996  43.5529327
  77.3263502  43.3746815  43.9308739  76.9118929  42.7692509  42.6069927
  66.0306501  55.0440264  24.0303016  65.1735163  55.3383207  23.7221766
  65.9104013  54.8970509  24.9684763   7.7019733   1.9764212  28.2687712
   7.4380302   1.4015599  28.9871716   7.2686899   1.6105175  27.4976611
  32.3899508  34.1276312  33.9495540  32.6301265  34.7818494  34.6057129
  33.2232022  33.7404585  33.6811852  73.3289051   7.7317965  44.0752125
  73.2752514   6.8764055  44.5014286  73.5678530   7.5336593  43.1697416
  12.2512412  58.2415009  18.8073099  11.4565325  58.6156940  18.4269774
  12.9126394  58.9251900  18.7007475  42.9612541  35.7439637  58.5220146
  42.3838711  36.0327744  59.2287302  43.7138844  35.3580785  58.9702034
  69.9000645  39.4731522  49.6188259  69.5017815  39.3113422  48.7635946
  69.6762085  38.7003350  50.1373625   7.7402246  32.8440952  31.7486620
   6.8677062  33.1999040  31.9170141   8.2196003  33.5668945  31.3437009
  48.7367678  61.1992645  30.7434964  49.4730377  60.8623552  31.2540150
  48.7389326  62.1413326  30.9130073  23.8710356   7.5630146  33.1940913
  23.8645649   8.5125673  33.3146739  23.5042596   7.4300730  32.3200035
  64.5595217  32.3944139  53.9566374  65.4028749  32.4347138  53.5056782
  63.9650631  32.8952551  53.3980608  14.5650470   5.1972574  42.4337435
  14.6047258   4.5425841  41.7365646  15.4525495   5.5529463  42.4790907
  61.4606142  61.2404919  50.9776878  61.2216759  61.2720633  51.9040489
  62.3923254  61.4594316  50.9630585   6.9670641  30.0160646  30.1534557
   7.3484957  30.8939362  30.1625013   7.0455390  29.7114992  31.0575104
  77.2145033  55.6474781  32.5581932  77.4307442  54.7176075  32.4887800
  77.5565910  56.0337639  31.7519736  10.6093907  62.3116922  30.8426285
   9.6953291  62.5886917  30.7794261  11.1122859  63.1190443  30.7353497
  58.3728886  46.1996698  35.2849913  57.5052357  45.9260416  35.5825543
  58.2413816  46.4644814  34.3745995  17.8812361  58.2873631  41.4520931
  18.2975721  58.9849949  41.9582605  18.3565116  57.4946070  41.7008543
  63.6186314  59.8935509  22.0374465  62.6859093  60.0622129  22.1709251
  63.9362240  59.6116924  22.8953028  55.7814503  50.2511120  34.2186236
  55.5110693  49.3329000  34.2229414  56.5547800  50.2704239  33.6548686
  77.2582674  47.7025652  18.1429505  77.2630644  47.9067516  17.2077954
  76.4674807  48.1263256  18.4765828  60.3433228  54.7782373  45.6417465
  60.3523207  55.7271910  45.7667780  61.2420130  54.5607376  45.3942013
  14.4198680  57.8232622  25.8874226  14.5304108  57.6038837  26.8125629
  13.6945438  57.2711468  25.5953550  48.9024687  55.3858376   1.1674437
  49.6783113  55.7259893   1.6130830  49.1391706  54.4908810   0.9240064
  55.1986313  62.5658655  30.7846522  55.5401993  63.3480167  30.3512836
  54.7143793  62.9020643  31.5387750  67.5720310  55.7412720  46.3469505
  66.8627357  55.2136755  46.7140675  68.3479166  55.1859474  46.4234447
  77.9286051  19.5330107  32.9897261  77.3433447  19.7980905  33.6992598
  78.6971951  20.0945067  33.0908132  75.1886559  42.3201799  51.2565470
  74.8279190  43.2023430  51.1677217  74.5413351  41.8483543  51.7805624
  71.0140562  58.9347506  43.7425518  71.5267992  59.6542358  43.3742189
  70.2468300  58.8716459  43.1736851  76.2837696  41.9432688  48.4679747
  75.8393812  41.7908382  49.3019485  76.6438723  41.0892296  48.2288551
  44.9965858  45.0130129  13.0544674  44.4826508  44.7059536  13.8013387
  44.3537474  45.1371527  12.3561966  63.2401371  55.6492710  32.6932526
  62.8282404  56.4699697  32.4230194  62.8846979  54.9938726  32.0929599
  18.6997318  32.8978944  16.6305482  19.0585363  33.1697154  17.4752986
  19.2934656  33.2797456  15.9840953  49.4245720  64.2523956  38.0171561
  49.6184731  65.1287079  37.6844168  48.5471249  64.3273592  38.3922601
  72.4097109  54.4397879  50.8328915  72.8583241  54.1067934  51.6101217
  72.7968407  53.9524364  50.1056719  59.9772263  53.4692860  30.6460190
  60.6025457  54.1929293  30.6853151  60.1197529  53.0760574  29.7850370
   3.1809926  68.7394094   6.4078826   2.3627070  68.7597370   6.9040954
   2.9125032  68.8662672   5.4979086  47.4592161  15.3475964   4.0047103
  47.8278303  16.2292409   3.9494094  46.6785717  15.3792596   3.4516945
  60.2707100  69.3288422  24.3205404  60.1298904  69.8682117  25.0986695
  60.4692316  69.9571991  23.6262846  58.1413031  47.3074245  49.3428469
  58.7790966  48.0037022  49.1858292  58.3856535  46.9465208  50.1950645
   1.9953628  33.2776713  37.0870948   2.6425412  33.0969810  37.7688146
   1.9272579  34.2322636  37.0684671  15.5487978  17.9201972  48.3720922
  14.7268820  17.4429440  48.4857368  15.4682028  18.3348417  47.5131369
  42.0111561  22.1496153   3.6701706  42.0886135  21.2963533   4.0969944
  42.3117352  21.9974113   2.7742249   2.5786752  41.7888927  33.6428905
   2.0542043  42.3936796  34.1676712   1.9415492  41.3382626  33.0886030
   8.3855295  28.7652135  35.4083705   9.2723918  28.7968493  35.7671261
   7.8540397  29.2490816  36.0405278  44.0381908  23.8867569  19.4556427
  43.4264278  23.8082004  20.1876307  43.8141012  23.1579757  18.8769424
  30.9286880  18.7472594  40.4201651  31.8325758  18.8798940  40.1344633
  30.6340194  17.9777312  39.9331045  56.6544914  66.9209623  64.4185781
  57.2913885  66.9999361  63.7084007  56.4658451  65.9838390  64.4680071
  58.4875870  50.3938866  25.4427671  57.9854774  50.5455208  24.6420622
  58.5592461  51.2581873  25.8478332  63.4676695  69.9317598   7.4417967
  63.0986786  69.1263485   7.8042769  62.7194929  70.3834772   7.0513952
  35.4216242   8.2365370  56.8515301  34.5125985   8.4943998  56.6985226
  35.5317044   7.4334514  56.3424444  54.8506641  27.8889632  46.2933969
  54.4049978  28.2132626  45.5108118  54.3353891  28.2337546  47.0226717
  67.1471977  43.3280373  34.9139929  67.2993279  43.9860630  35.5922937
  67.3644876  43.7735128  34.0951085  52.1524798  74.3121870  32.6946783
  51.5864121  75.0660624  32.8604341  52.9717481  74.5249767  33.1416106
  56.6460180  59.6485186  16.6020179  56.8674850  59.2094755  17.4232495
  57.4596071  59.6380377  16.0978413  64.9183941  40.6511593  31.8687820
  64.9976778  41.4245939  31.3104415  64.8223829  39.9221683  31.2559295
  75.2632189  72.4106789  34.0769601  75.7265472  73.0229950  33.5054469
  75.7678938  71.5994644  34.0181136  25.8472633  40.5800295  21.5036750
  25.2870750  40.2287579  20.8115530  26.7376494  40.3751802  21.2182260
   5.6612295  26.8253970   3.6130539   5.4791409  27.3047495   2.8047854
   5.9595555  25.9647036   3.3190471  11.4566529  29.9070954  15.3643966
  12.1932030  30.5002475  15.5123675  10.6992841  30.3724837  15.7194149
  77.0442915  12.2122586  56.0584021  76.2936020  12.2292650  56.6520405
  77.6116896  12.9176021  56.3695049  61.9717073  56.9658136  19.5911813
  61.1510324  56.8414927  19.1144574  62.3053551  57.8067064  19.2784309
   9.8364919  56.9404936  16.7487240  10.2042961  57.8134012  16.8864787
   9.9665004  56.7703009  15.8157909  71.3465214  66.1470270  43.8519478
  71.3117838  66.9421673  43.3201790  71.1064577  66.4368200  44.7320747
  32.9541564  73.2302284  62.2263145  32.4398994  74.0309477  62.1232653
  33.1003571  72.9226780  61.3317394  56.3524389  46.3225365  63.7150192
  57.1742821  46.2400532  64.1987562  56.6183186  46.3638687  62.7964163
  51.8414354  29.8501086  -0.1451744  51.4099026  30.3782606   0.5264428
  52.7723169  30.0492597  -0.0450256   3.0570841  47.3409033  17.3869371
   3.0921054  47.9489899  16.6485381   2.1223164  47.1985435  17.5358510
  68.9792681  60.9116888  35.5651641  68.3268356  61.5580463  35.8349466
  69.8168755  61.2920666  35.8296704   3.7668693  31.1016798  57.6077986
   3.2433358  31.8794584  57.8006935   4.0596655  30.7914829  58.4647036
  53.4017277  61.3258648  52.4942398  53.2964897  60.7971144  51.7033052
  54.3243122  61.2252140  52.7286339  54.6145439  66.5570688  18.1542099
  53.7238312  66.7056274  18.4716868  54.5710564  66.7531347  17.2183156
  70.7842016  19.1016233  52.6188803  70.1039839  18.8275266  53.2340240
  71.6042137  18.8333178  53.0333948  16.3074386  55.5266428  60.2489758
  15.6365454  55.0117493  60.6973314  17.0435369  54.9234295  60.1463699
  29.5220113  19.9184883  57.9493332  29.4200659  20.8441186  58.1707954
  28.7695694  19.7214103  57.3914576  42.1378660  72.5352144  34.6988535
  41.2590790  72.6228476  34.3296885  42.7208519  72.5705671  33.9404917
  62.2206497  44.4403362  37.0643473  62.0592070  44.5779705  36.1309528
  63.1301403  44.1452932  37.1091485  10.4468548  65.2539873   3.3977020
  10.9119809  64.4191837   3.3429885  10.0109923  65.2299356   4.2495683
  46.8784046   2.3943549  37.3283982  47.7175760   2.5565460  37.7593446
  47.0952034   1.8290694  36.5869904  18.6772132   2.9544494   3.7247035
  19.4386494   3.3577183   4.1416216  19.0478170   2.3682503   3.0649650
  49.4693375  70.9618950  36.0638118  49.6029568  71.2310028  36.9726348
  50.3503990  70.7840395  35.7346749  65.8308411  72.8692150  56.7479420
  65.5946398  73.6648178  57.2248650  65.0473309  72.3212385  56.7933226
  66.0920954  64.6730375  16.1499572  66.5056944  64.2891121  16.9231117
  66.2310266  65.6151247  16.2469244  78.3081007  47.2076082  35.2808881
  78.8139725  47.1967077  36.0934186  78.9196253  47.5373125  34.6224308
  14.2982471  55.7223797   9.3391794  14.8159456  56.1635017   8.6656570
  14.6844602  56.0116196  10.1658666  75.4359484  50.5758858  33.7525249
  75.3889799  50.9526777  32.8738570  74.6562338  50.0246191  33.8187265
   3.9454207  42.7983713  57.3971748   4.2474955  42.8081226  58.3054113
   3.3072850  43.5102177  57.3493481  41.9776630   7.3076713   2.6231977
  42.7305889   6.7637885   2.8545567  41.9158411   7.2383559   1.6705146
   2.7679193  41.2512493  19.3726552   2.5636119  41.4490986  18.4586823
   1.9252045  41.0161686  19.7609854  45.6903410  28.2346177   1.1596766
  46.5812111  28.5812402   1.2089851  45.8017159  27.2841263   1.1795148
  51.6126537   4.7367620  26.5593052  51.6739511   4.9348119  25.6248260
  52.5191736   4.6020928  26.8355608  50.6098270  53.6206532  63.3243847
  51.1697578  53.2369709  63.9992905  50.1603746  52.8721285  62.9320335
  16.0435843   8.7422675  35.7946992  15.2524996   9.2138571  36.0555077
  16.3892722   8.3838975  36.6121960  52.4897366  58.6167904  64.8490280
  52.5658398  59.0793820  65.6835631  51.9227391  59.1748019  64.3167046
  69.6605921  50.8690739   7.0040607  70.3165913  50.7552528   7.6917684
  69.8823214  50.2067280   6.3495618  57.6976728  47.1808863  32.8531528
  58.0001593  48.0888176  32.8731370  56.7635775  47.2439718  32.6538658
   5.7041067  48.2525396  43.2950020   5.0726175  48.2196808  42.5764084
   6.4690763  47.7824068  42.9632950  75.8111048  45.4312754  37.4091673
  75.5753326  44.6099854  37.8405905  75.0338650  45.6676292  36.9029403
  55.6395769  19.7125173  29.0038848  55.8484745  18.7971354  29.1900849
  56.1777258  20.2108860  29.6189117  45.5156946  59.0639973  44.4189501
  45.7621384  58.7132549  43.5630989  44.5587063  59.0437937  44.4195366
  72.5488520  53.8003254  29.2002988  73.1131363  53.4610033  28.5055494
  71.8294382  54.2289209  28.7366438  62.6716709  53.3849239  26.0855699
  62.9215860  52.7944803  25.3748322  61.9499254  52.9368210  26.5266156
  31.1282206  56.1178207  25.2145314  30.7119942  56.8118429  24.7033381
  30.9506965  55.3172827  24.7207093  56.6837692  14.8234057  -0.0439082
  56.9912624  15.4897189   0.5706726  55.9657240  14.3874383   0.4149763
  19.2290640  51.4174604   8.6022425  19.9380624  50.8156061   8.8287985
  19.5325220  51.8568182   7.8078198  68.2357931  57.0518541  19.8232627
  69.0456104  56.9399118  20.3211498  67.5572395  57.1571159  20.4901361
  59.3445873  55.4162931  37.7453208  58.6624241  55.3043413  37.0832396
  59.9745321  54.7197437  37.5603199   8.3772045  24.5467138  34.2571163
   8.2710046  24.9181890  35.1328802   8.5619563  23.6201644  34.4107533
   7.4131697  11.2786460  51.1944199   6.5146440  11.5306878  51.4073944
   7.9514468  11.7518413  51.8289089  10.9147358  34.9381280  29.0077925
  10.5476463  34.8799229  28.1256986  11.7805433  34.5367002  28.9338756
  57.2248268  45.7457685   4.3441525  56.9525480  45.4262495   5.2043867
  58.0993652  46.1070681   4.4886479  38.8843083  70.9705400  39.7243690
  38.5887170  70.6443119  38.8744068  38.4893751  70.3740835  40.3603745
  57.0262051  42.5223160   6.1788666  57.0619249  43.4769964   6.2383300
  57.7021217  42.2966909   5.5397552  54.5338774  63.8104773  18.7091649
  54.7296429  63.5337591  17.8139913  54.6351242  64.7621775  18.6932242
  74.1088343  61.7666006  36.0890484  73.9293861  60.8351421  36.2171674
  74.3729544  61.8356562  35.1716042   0.6660884  67.6659536  56.7520094
   0.9290355  67.6628590  55.8316422   0.1374525  68.4582138  56.8474150
  16.4207315  33.5664988  43.0994415  15.6679535  33.0606508  43.4055042
  16.9908357  33.6347079  43.8653135   0.2530976  49.0349817  23.2542086
   0.7378226  48.9984894  22.4296212   0.7952912  49.5773935  23.8269591
   1.0464416  37.1263409  35.2140927   0.2572919  37.3742199  34.7323966
   1.6434239  37.8645205  35.0918794  30.9454060  56.5377808   5.4946673
  31.1179018  55.6846046   5.8928686  30.6644130  57.0901585   6.2241572
  12.8459024  38.7811041  42.8290796  11.9131422  38.9173532  42.6628637
  13.1667829  38.3374190  42.0439577  40.7409668   7.4327946  12.8482747
  41.4761639   7.7112526  13.3943284  40.4797220   8.2237971  12.3767877
   7.9317015  11.4372873   8.6154538   8.8234979  11.1845350   8.8543016
   7.4396890  10.6162608   8.6238194  56.7235899  54.7988081  36.6533923
  56.0342312  55.3026152  36.2207341  56.8073511  54.0048647  36.1253095
  29.5245123   5.9626234   0.3784445  28.8797545   6.2859941  -0.2508037
  30.1207089   6.6997081   0.5106833  65.9446239  17.7718449   4.7310752
  65.2587032  17.1301019   4.5469272  66.2199783  18.0822968   3.8685027
  64.9923515  54.8534632  34.7723317  64.4958496  55.1838160  34.0236115
  64.7148657  53.9415884  34.8602033  69.3760824  19.7180140  32.7459383
  69.7552204  18.8572931  32.5680542  68.9216280  19.6114814  33.5816145
  61.3175488  68.3083010  46.7506695  60.5760288  67.9029274  47.2001696
  61.0907793  69.2370892  46.7041636  61.9808912  49.3030930  16.5379751
  61.5401030  49.7637033  15.8239901  61.2781906  49.0780544  17.1477258
  55.2670842  58.9731260  64.6797673  55.6234413  58.2551547  65.2029866
  54.3405133  58.7566634  64.5756339  72.7940178  36.0462213  20.9246564
  72.9929399  36.8517184  21.4019799  73.3192968  36.1047935  20.1266050
  75.5091524  37.0923615  57.4932480  75.0947857  36.9557309  58.3452225
  76.3518810  36.6436911  57.5620699  47.7453947  32.1274829   3.6205724
  47.4586248  32.6117325   4.3948436  48.6253262  31.8221641   3.8413346
  27.6875663  73.9940310  39.2713809  27.3123050  74.8439360  39.0410066
  27.2429061  73.7478065  40.0824785  76.6435766  66.8410873  33.2449508
  76.1826897  67.4015141  32.6206589  77.5499249  67.1477795  33.2183862
  33.6019945   6.9782907   2.8813127  34.4079447   7.4662000   2.7121359
  33.2491136   7.3685688   3.6809313  71.7912483  67.1458960  47.2137499
  70.8496666  67.1598387  47.3853827  72.0312834  66.2209892  47.2699547
  20.5419683  29.4772887   9.6662682  20.1126194  30.1955914   9.2015815
  20.8996010  28.9231157   8.9725673  75.7941246  54.9833536   6.6428697
  75.1760674  55.6436205   6.9563782  76.2982082  55.4307222   5.9631687
   7.5199348  59.4251871  51.6837072   6.8757153  58.7251663  51.7894602
   7.6335371  59.7812653  52.5649214  58.5475397   1.4999107  37.4718904
  59.0315008   1.5974501  36.6518307  58.8800812   0.6862924  37.8509331
  22.5687999  24.7742275   0.1523445  22.3863954  24.1517929   0.8562896
  22.2525138  24.3395380  -0.6396391  47.9532242  57.2702408  43.3979654
  48.7553692  57.7880239  43.3294725  48.2581806  56.3713026  43.5209942
  79.6555468  66.3128233  47.3998690  79.0412749  66.4893866  48.1124163
  79.9083852  65.3978443  47.5228071  36.6631937  21.1752629  21.4972878
  35.9625244  20.6249666  21.8472362  37.4691153  20.7662868  21.8126631
   9.7705162  15.7889843  11.5015936   9.0611053  15.6342268  12.1253073
  10.2753079  16.5056789  11.8859959  61.6414404  70.8277178  44.7724581
  60.8536243  70.7140064  44.2408180  61.4633512  71.6054773  45.3012371
  73.3708763  56.4326286  42.1811438  74.2388725  56.0342216  42.2450590
  72.9411697  55.9577608  41.4697504  70.1524305   3.6881471  31.8078518
  69.6043539   4.4724345  31.7807841  70.1117468   3.3988550  32.7193809
  13.8265955  13.4041655  45.3994131  13.1741512  13.0936325  44.7716284
  14.4659245  12.6936948  45.4515934  16.3343310  27.9479218  44.7656775
  15.9924686  27.1708274  45.2078152  15.5755150  28.5239553  44.6728611
  71.4021921  57.9226303  29.3503189  71.1188841  57.0779467  29.0003467
  70.6063318  58.4541988  29.3666911  19.4304514  29.5362782  14.9124050
  18.6960483  29.5295739  15.5262780  19.0478349  29.8264313  14.0843666
  43.1415367  16.3311338  37.2949290  42.8445339  16.1014557  36.4144373
  42.6508141  15.7471311  37.8731728  61.8290424  34.7968626   6.9878614
  62.5098085  34.1673136   7.2254723  62.1219540  35.6229663   7.3725516
  45.3023100   2.9918772   7.9931056  44.9116564   2.6328400   8.7897944
  45.9170818   3.6555460   8.3058822   7.1745241  35.6636548   4.7139332
   7.1871662  35.1496267   3.9065638   6.4138162  35.3366590   5.1941717
  67.9422474  50.6961489  36.3966298  68.3807516  50.3757572  37.1848536
  68.4347677  51.4789724  36.1499691  28.8997889  19.4175768  43.0884218
  28.3948112  19.6857023  43.8561058  28.4384060  18.6480081  42.7550697
  41.5413332  63.7522602  32.3599005  41.4401484  64.5541143  32.8727579
  41.3183403  63.0485106  32.9691958  62.0341063  51.1380053  35.3295803
  61.5753794  51.3804579  34.5252037  62.8761387  51.5893555  35.2704406
  10.2517438   7.3176515  53.3500195  10.1911187   8.2693774  53.2677126
   9.4303405   7.0606667  53.7689304  46.3862944   1.5785189  40.2876425
  45.5834246   1.8384828  40.7393599  46.1882496   1.6987708  39.3589044
  72.4561644  68.3138180  62.7511120  73.0369091  68.2287264  63.5072374
  71.5939379  68.4858847  63.1295061  67.4930477  66.5047264  34.6188927
  66.6678476  66.7033243  35.0614309  67.3421192  66.7545652  33.7072825
   1.7034687  57.0765448  42.8500509   2.4011171  57.1071148  43.5047150
   1.5591514  57.9920864  42.6109028  41.0821867  39.6330428  61.2646389
  40.4950047  39.2195225  60.6318283  40.6924391  39.4370484  62.1166468
   5.4462504  39.1229963  58.1221819   5.9798163  39.7551751  57.6406336
   4.5963991  39.1424632  57.6821756   2.8505918  57.2496748  58.2124186
   2.8889728  56.4690495  58.7650299   1.9837242  57.2144699  57.8080273
  41.5545368  27.3366666  40.7500458  42.4162579  27.5318789  40.3818607
  41.5591383  26.3884425  40.8807373   4.0121764   4.0641478  33.9979339
   3.8788837   3.1979710  34.3829060   3.7799034   4.6752977  34.6970606
  43.3157396  19.2233443  23.0601192  43.5885715  18.3963776  22.6627278
  43.6638737  19.8964441  22.4753356  66.0267973  46.0508108  32.5897956
  65.2761889  46.2784052  32.0411420  65.7314205  46.2240934  33.4836411
  19.8783970  11.7904770  57.3334122  20.0087476  11.2233436  58.0934143
  19.7155571  11.1864460  56.6089392   8.9475000  69.1262817   6.4182609
   9.5536119  68.3884335   6.4849061   8.9105284  69.3220615   5.4820263
  37.0740867  66.5558863  30.6592894  37.0064926  65.6525278  30.3500843
  37.5933528  66.4963388  31.4611912   3.6332133  64.3627739  42.9597282
   3.6957997  64.8882294  42.1620989   3.5637414  65.0058365  43.6653328
  64.8209000  73.4649038  45.9446621  65.0688791  72.6523781  45.5035973
  65.2615595  74.1525364  45.4454517  54.5057964   9.6093380   1.0438421
  55.4226875   9.5099604   1.3000984  54.4128466   9.0570533   0.2675855
  57.0106602  60.9367847  32.6693559  57.1630001  60.8637238  33.6115265
  56.2082195  61.4534187  32.5958323  34.6850920   0.2797006  24.7688937
  34.1266418   0.9387723  24.3565941  35.5614877   0.4625492  24.4301796
  11.4577973  30.2368903  58.3311796  10.5866706  30.2044559  57.9358053
  11.3218415  30.6672740  59.1752863  20.1160145  68.6129951  34.8979282
  19.5920849  67.8203583  34.7819161  20.3128362  68.9025259  34.0070486
  48.2324266   7.8331953  45.4617405  47.2986269   7.9266715  45.2732849
  48.4914923   7.0361841  44.9992609  74.9566507  57.7323580  54.9074841
  75.4553986  56.9750786  55.2140856  74.0783358  57.6012754  55.2647209
  64.1887331  60.8623791  13.0177641  64.4242573  60.2973938  13.7536633
  64.5607376  61.7153454  13.2420278  23.0331707  51.5509081  45.3438187
  23.2349777  50.6182671  45.2683926  23.8072348  51.9924784  44.9944305
   9.8236585   2.5539353  43.3333445  10.4971623   3.2325917  43.2880640
   9.5643270   2.5349453  44.2545509  73.2792521  60.5244160  55.7178879
  72.7969360  59.7151470  55.8872700  72.8160286  60.9304333  54.9852133
  25.9129906   7.6023060  19.4712973  26.6927838   8.1567729  19.4444478
  25.8003139   7.3035932  18.5689080  50.6120586  57.8242874  21.6285253
  50.3827286  57.1412802  22.2587180  51.1007357  57.3654222  20.9452462
  17.5238061  67.2355461  33.4061646  17.6662982  66.2892580  33.4278965
  16.8063557  67.3554945  32.7839851  53.1006432   2.8013280  37.9741311
  54.0359402   2.6045638  38.0264425  52.7010155   1.9862098  37.6706338
  53.0315351  28.5550094   3.4560499  52.7196312  29.4473195   3.3052877
  53.1761217  28.2003999   2.5787929   2.8057653  72.5697184  40.7101297
   2.9338026  71.6283083  40.5935669   1.9629058  72.6431799  41.1578178
  67.1362829  65.2997732  19.6988225  68.0217838  65.6631899  19.7056139
  66.5664101  66.0547352  19.8454821  49.4008875  65.2748537  44.9889088
  49.3475389  64.9644136  44.0850210  48.6470985  64.8763371  45.4239082
   5.1015073  35.4130888  52.7454758   4.4850153  34.9514985  52.1770525
   5.8729851  34.8470807  52.7717113  39.6863317  19.5673358  49.7056627
  40.2870178  20.1973462  49.3075466  39.6007514  19.8586643  50.6134224
  27.4681783  24.8439360  52.6704597  27.0467806  25.0254035  51.8303871
  28.3980322  24.7609353  52.4590015  77.4665976  65.8613157  40.2832747
  77.2324991  65.1878309  40.9219027  76.9709253  65.6293392  39.4979525
   1.6596384  68.4564972  30.2090359   2.1614861  69.1792488  29.8321986
   0.7450712  68.7153387  30.0959086   4.6666908   0.0685892  45.0260592
   4.0278235   0.0941764  44.3137217   4.7857812   0.9854106  45.2740288
   1.5956408  19.9463558  47.7612925   1.8741581  19.1659772  47.2820568
   0.9801210  20.3823543  47.1719980  38.3304811  64.3957853  54.1848278
  39.1532254  64.8782587  54.1039181  37.7890587  64.7234535  53.4666824
  15.4389531   0.3167156  50.6606102  15.9546620   0.4911712  49.8733091
  14.9373585  -0.4705426  50.4488087  61.6405582  16.4590907  12.9411173
  61.8244696  17.3291445  13.2952583  61.3993835  16.6180193  12.0285332
  59.9170637  42.0327997  10.2969742  60.3354597  41.4720678   9.6437097
  60.6454515  42.4599028  10.7478261  26.4099813   6.7148912  34.1283107
  25.6759262   7.0205557  33.5954309  27.0781493   6.4601487  33.4920001
  60.5369711  46.8309021  45.3663731  61.1124086  46.2533760  45.8679342
  60.4882431  46.4268923  44.4999790  54.7450781  63.4267950  37.9075432
  54.0184832  63.2732058  38.5114527  55.4803133  62.9485559  38.2908845
  69.0627241  70.8239317  10.4208648  69.3500996  69.9439859  10.6644702
  68.9897156  70.7965183   9.4668466  21.9239211  59.8643398  17.1523666
  21.4341259  60.4889631  16.6174114  21.4002657  59.0635347  17.1253419
  51.1073780  60.5116892  49.9486446  50.4796076  60.2405262  49.2788601
  50.6834555  61.2474728  50.3903913  58.5885668  60.3971338  30.4919863
  58.0887461  60.9423399  31.0995722  59.3173742  60.0624371  31.0145259
  78.6840916  30.3865814  44.7450018  78.7848186  31.3369489  44.6912670
  78.3562994  30.2301621  45.6306219   3.1627631  46.2491655  47.4067736
   3.1053817  46.7874098  48.1962252   3.0097252  46.8618965  46.6874886
  62.5837708  40.8488512  36.3000989  63.0927372  41.5127563  35.8348989
  62.1733236  40.3322697  35.6066227  43.5179710  18.9848399  52.8142977
  43.1478643  18.3502376  52.2006750  43.3297968  19.8367095  52.4204159
  49.9135256  64.8952579  11.1057115  49.3462706  65.4408550  10.5609417
  50.3859234  64.3436289  10.4821885  44.0867186   9.0160972  17.6424980
  43.5415411   9.2686272  16.8973529  44.3561411   9.8467231  18.0345488
  72.6921844  62.8908682  16.2706840  72.6686430  63.4598207  15.5012894
  73.3499193  62.2285223  16.0587430  65.8492947  60.5825043  31.6479635
  66.2235355  61.4601803  31.5714049  66.4453745  60.1183987  32.2357798
  49.3797684  46.2075901  64.8706293  48.6843491  46.1700296  64.2139626
  49.3216038  47.0925617  65.2307367  51.6183281  57.2069216  54.7525787
  51.3784599  57.6692438  53.9494896  52.4121332  57.6481342  55.0549555
  78.1024456   2.3882963  17.5534391  78.8302946   2.1328868  16.9866598
  77.3423052   2.4097818  16.9720995  22.0443082  59.7488832  45.8287001
  22.9169083  59.5221806  46.1502695  21.8797994  60.6242514  46.1792755
  65.0168419  53.4157944   8.2244682  65.5493879  52.8253794   7.6915210
  64.7585678  52.8886557   8.9805448   4.7011104  75.0967598  18.9378583
   4.8148215  74.6011496  19.7488284   3.7532362  75.1956797  18.8485205
  74.2457533  33.5368133  60.0044250  74.6976137  32.6968837  60.0855255
  74.4519901  33.9991522  60.8167934  76.8034983  33.8851786  42.0617771
  77.6312256  33.4325528  41.8998098  76.6090870  33.7069106  42.9819155
  78.3218861  46.2979507  54.9392748  77.6220036  46.9082403  55.1715326
  79.1226006  46.8195295  54.9945211  58.9898491   3.9373955  13.7499928
  59.8375034   4.1863438  13.3815575  59.2080641   3.3926541  14.5062149
  43.0738688  32.0112276  37.2789025  42.6611757  32.8372931  37.5309563
  43.7464428  31.8666244  37.9444599  55.9469843  72.9986095  14.6279144
  55.3178406  72.6020432  14.0253007  56.2471294  73.7872410  14.1760194
  42.4628496   2.2534138  21.2698126  41.9263792   3.0421555  21.3492942
  42.7421999   2.2450049  20.3543210  21.4428496  69.0812016   5.7871920
  21.1893010  69.9807739   5.5805051  21.1222029  68.9406633   6.6780710
   6.0671443  32.6492119  23.8845921   6.5132815  33.3197165  23.3672762
   6.2940389  31.8246317  23.4546876  48.7702227  14.5767951  18.8062036
  47.9965067  14.9802327  19.1996932  48.4356451  13.7943757  18.3678985
  67.7782154  23.8315630  37.3332548  68.5796452  23.8275456  37.8566384
  67.9860926  24.3859863  36.5811682  38.8078475  30.5514312  34.9477482
  39.4461179  30.5844331  35.6603193  39.0827417  31.2446666  34.3476748
  60.8137608  53.2753706  62.9198742  60.0582027  52.7503157  62.6559019
  61.4978695  53.0433035  62.2918797  62.6683378   7.8967047  12.4713731
  62.6077366   8.6768985  13.0226052  63.6051226   7.7941620  12.3035944
  15.2080476  66.9878054   6.1307883  15.8352005  66.2745905   6.2501049
  14.5411229  66.6252518   5.5476934  28.2156563  65.8018637  21.4020872
  29.0462780  65.9190845  20.9410453  28.2348084  64.8933506  21.7028618
  50.1418924  30.9369183   3.9561981  50.3903389  31.1453795   4.8567808
  50.9528637  31.0301280   3.4563264  79.1054201  67.8406620  33.3545995
  79.9566460  67.5117683  33.6435056  78.7750912  68.3392620  34.1019368
  17.1300185  22.0662594  49.7643900  17.9726565  21.7539763  50.0940418
  16.4857340  21.7038560  50.3724957  16.2143660   5.7361037  26.4730930
  16.6642058   5.0340742  26.0029554  16.1614549   6.4524573  25.8404255
  78.0337858  52.2128773  61.5796566  78.4433508  53.0707836  61.6913748
  77.3805189  52.3469305  60.8929968  53.6066580   9.7285467   7.3903519
  53.0331945  10.1198852   6.7313969  54.3438911  10.3353989   7.4570745
  34.0484285   6.8360156  14.8550475  33.7745285   7.6905549  15.1881731
  33.2358027   6.4187145  14.5691574  47.5714016  29.9472618  20.2419949
  47.8613186  29.3246460  20.9087253  47.0021677  30.5553985  20.7135558
  42.2476578   4.8696229  11.0316229  42.9449606   4.6161312  10.4268515
  42.0189667   5.7623500  10.7728386  37.1546555  30.5174375   9.7808099
  36.3877487  30.6878185   9.2339528  37.8403068  30.2686191   9.1609687
  49.4999075  20.6540656  16.8286777  49.0532780  19.8252726  17.0014584
  49.6698952  20.6427169  15.8867610  37.1746135   2.3626737  28.3643317
  36.2634587   2.2092910  28.1143308  37.4408555   3.1216410  27.8453755
   3.3363971  71.5895605  46.0551882   3.6279696  70.8731461  45.4913044
   2.6430544  71.2051678  46.5916157  78.6008644  47.8385210  11.3676059
  78.4308100  48.0578852  10.4515314  77.8204060  47.3607063  11.6483331
  41.2180376   5.6723440  42.7687407  41.5665483   6.4435494  42.3215151
  41.4587307   4.9384254  42.2033548  42.2868729  21.1991572  44.4765520
  42.6871300  21.7570496  43.8096333  42.8074884  20.3960729  44.4609690
  21.9525743  69.8949814  47.2857428  21.7322159  70.3217649  48.1137085
  21.1614513  69.4117117  47.0474052  17.4020338  10.4571211  28.1267571
  17.9287767  10.8069980  28.8453388  17.0922196   9.6100497  28.4472537
  59.1350317   1.5902859  45.6693935  58.6437464   1.9878590  46.3882875
  58.4821415   1.0875644  45.1823235   9.2692113  60.1560783  42.8036118
   8.5333490  60.0890636  43.4120941   9.6959162  59.3004322  42.8486347
  60.6559420  57.0332050  52.7479315  60.1298189  57.6771736  52.2738743
  61.1165142  57.5437117  53.4138775  30.3077793  23.8295293  33.8079286
  29.6082950  23.9991546  33.1769109  30.0588417  23.0049992  34.2255545
  77.9481649   9.1407019  20.9594631  77.6454782   8.2327962  20.9415174
  77.8007746   9.4245231  21.8616557  33.0400276  13.0351055  37.3177624
  33.1924796  13.9554048  37.1031952  32.9295325  12.6064241  36.4690852
  61.6614437  55.5219078  30.1107931  61.6415596  56.4343500  30.3993917
  62.1837759  55.5356979  29.3087888  18.6706507   6.9797295  56.7216158
  19.2330539   6.3289958  57.1417141  18.2247150   7.4155003  57.4478912
  21.5628171  74.3305922  61.9241428  21.6793704  73.7421322  62.6700401
  22.4008965  74.3012047  61.4626360  45.2565908  28.8490224  19.1226006
  45.3270245  27.8951526  19.0851414  45.8635712  29.1069460  19.8163426
  18.0970061  68.9492369  26.7399001  18.6233222  68.2206583  27.0691371
  17.6111090  68.5797262  26.0026097  51.2157869  25.5134892  24.9083114
  50.9169102  25.3967571  25.8101320  50.7554150  24.8354721  24.4137573
  76.5228558  73.3397722  25.9175253  77.1015215  74.1022253  25.9235859
  77.1126318  72.5907850  26.0036373  44.7318983  11.9335151  35.5442500
  44.9929476  12.4529505  34.7838092  45.5040407  11.4070058  35.7511616
  40.8695602  69.6698809  60.9184456  40.2877235  70.3217602  60.5276012
  40.4632711  68.8291979  60.7077026  52.2342873  11.7643726  20.8502030
  51.7656994  12.4208736  20.3347802  51.9952011  11.9564009  21.7569542
   7.1679050  52.5560665   5.9821826   7.7967459  52.9628801   6.5782470
   6.3896537  52.4082422   6.5194947  21.2513852  48.4638929  23.4862113
  21.6213131  49.3353701  23.3451128  21.8977499  47.8657341  23.1111765
  45.8389902   7.9206842  13.2967389  45.8517218   8.6355770  12.6603448
  45.2828789   7.2528064  12.8956032  13.0427122  69.7242022  53.7862110
  12.8717661  70.4479218  54.3889046  13.6988544  69.1898346  54.2335987
  14.4107187  28.7494540  28.6179590  13.9346266  28.0007839  28.2587075
  14.2470562  28.7076497  29.5601344  31.9665504  61.1503267   7.4772871
  32.6818752  61.6895199   7.8146529  32.1577716  60.2696323   7.7998406
  56.3363123  24.1716313  49.0099907  55.4405260  24.4126296  49.2460394
  56.2338495  23.4888148  48.3470488   9.0635914  41.1698246  23.7030888
   9.3717688  41.3214064  24.5965552   9.5095950  40.3685999  23.4285855
  19.0908957  37.0783806   6.1222553  19.5424891  36.2485647   6.2762070
  18.9411688  37.4355745   6.9975984  54.3557835  33.6146784  64.2805862
  53.8927078  32.9825759  63.7308216  53.6997080  33.9081740  64.9127722
  32.6734996  26.2824321  30.9077716  32.2296524  25.4391217  30.9975481
  33.2763982  26.3160419  31.6504788   8.8608527  66.8435764  61.3093042
   9.7314745  66.9655132  60.9306479   8.4704912  67.7174950  61.2986565
   0.6666894  17.6580429  25.4979730   0.1493879  16.9471300  25.8764362
   1.3618276  17.8149211  26.1370397   2.0611271  60.3566313  19.3667364
   1.8493529  60.8034182  20.1863480   2.5416583  61.0081577  18.8560176
  69.6361637  49.9176455  47.5669527  68.8897848  50.2569485  48.0609417
  70.4031467  50.2385044  48.0413151   7.9318494  15.8140802  23.5015130
   7.7586973  16.7218566  23.2521296   7.6166421  15.2976382  22.7597809
  27.1764588   4.2779565  42.9907751  27.1853399   3.5980090  42.3171091
  27.0317674   3.8026461  43.8089323   7.8227800  64.2147160  30.6082201
   7.3274612  63.4021139  30.7110548   7.1745348  64.8548126  30.3144765
  23.2894325   5.6591851  42.3056746  22.5843430   5.9236127  42.8965712
  23.7453938   4.9602562  42.7745390  -0.0293452  14.6335769  29.3756723
   0.9075683  14.7959018  29.2657542  -0.4519040  15.4064071  29.0009594
  43.3915091  18.3223426  55.9578753  43.5083866  17.5799561  55.3650570
  44.0737629  18.9430034  55.7018614  36.3368440  16.1199176  42.9447412
  36.8920755  16.8933165  42.8457403  35.4585481  16.4248836  42.7170944
  13.7200594  49.9565601  11.9378865  13.3374214  49.1283655  12.2275627
  12.9941571  50.5797100  11.9692087  70.4119158  23.3004189  27.2969580
  70.3344536  22.3990798  27.6097131  69.8615265  23.3305359  26.5143967
  71.6384125  18.2272089  41.4724874  70.9603405  18.8325214  41.7725658
  71.7759609  17.6357377  42.2124052  11.8148017  71.9149446  13.4248483
  11.4621437  72.6763105  12.9642081  11.6828179  72.1135569  14.3518674
  14.8850942  59.5001602  48.3301306  15.7400382  59.9086475  48.4659243
  14.3160820  59.9141121  48.9790535  52.8311014  16.8553913  17.7846479
  53.2633257  16.3050282  18.4377265  53.2291365  16.5978205  16.9531095
  68.7495708  73.0722618  13.4123218  68.1863260  72.4019384  13.0254745
  69.0336847  73.6044359  12.6691508  47.6634502  26.5877891  27.4776983
  46.9137859  26.5347719  28.0705142  47.6413584  25.7647824  26.9894290
   6.4002544  66.3932657  42.5231743   6.3729930  67.2767973  42.1559429
   5.5680990  66.3009310  42.9870987  58.5132933  23.5987234   3.7437338
  57.6596022  23.5452580   4.1733685  58.3093548  23.6327863   2.8091314
  33.5404444  22.9745889   8.6909086  33.3454823  22.6559186   7.8096193
  32.9915237  23.7523079   8.7912655  17.7351713  10.6101096  34.3580461
  17.5778103  10.3986871  33.4378433  17.1670246  10.0107861  34.8420429
  67.9886246  63.2863951  18.1094182  68.7224674  63.7163258  17.6702559
  67.6560450  63.9443922  18.7198806  70.2231503   5.4233396  12.9635096
  71.0658026   5.5706084  13.3930218  70.2933836   5.8913445  12.1314812
  68.2723284  10.3162408  11.3949490  69.2113209  10.3218007  11.5806794
  68.1487179  11.0256076  10.7642758  60.5028391  15.7288826  48.7789726
  59.8266220  16.4037478  48.8382578  60.8266830  15.7925880  47.8804731
   8.7019581  59.7216749  39.0750623   9.5965683  60.0430393  38.9626861
   8.7890697  58.9713764  39.6630239  56.8655205  43.3713341  18.4560633
  57.1533728  43.5470295  17.5602376  56.4514208  42.5095797  18.4099090
  36.9076252   7.9344815  60.5635738  36.0538816   7.6187831  60.2674484
  36.9472528   7.6869917  61.4873743  77.9227352  53.7837219  36.8682313
  77.6146555  52.8777266  36.8903327  78.4398508  53.8413286  36.0647988
  36.7403626   9.2862779  39.8112488  35.8192086   9.2764145  39.5512247
  36.7330456   9.6263832  40.7059574  60.4279709  13.2623518  55.8774042
  60.5308199  12.4621332  56.3924789  60.8730125  13.0741906  55.0511122
  51.6873264  71.3479614  64.3340588  50.7712030  71.1541176  64.1356325
  52.1382189  71.2592316  63.4943819  70.2222395   9.4186687  56.5750360
  69.5723677   8.7161589  56.5944767  69.9688196   9.9587339  55.8264780
  73.7117910  65.1245117  54.4043827  72.9620409  65.6763411  54.6270704
  73.7976360  64.5261812  55.1465845  21.1036515  14.8142886  23.3894062
  20.9026408  15.6983089  23.6965442  20.3794670  14.2780900  23.7123275
  20.3415823  50.0832939  52.4978971  20.6016254  50.9585190  52.2105026
  20.9931326  49.8442268  53.1571102  67.8356647  33.3451819  47.2031689
  68.1802273  32.6550150  47.7698898  67.5826931  34.0452337  47.8049707
  39.4342232  20.2266192  40.2916288  38.7182140  19.7893953  39.8307633
  40.0409794  19.5210481  40.5157995  74.8333597  65.7251787  51.9143152
  74.3009186  65.4578114  51.1651468  74.4213867  65.2982712  52.6654863
  67.6120090  18.6645174  49.3707228  67.7397823  19.5388722  49.0027428
  68.4901810  18.2844782  49.3956614  52.9249954   4.6092954  10.0283277
  52.6537418   5.2590942   9.3799341  53.8787651   4.5794901   9.9530321
  40.1218224   4.7197327   2.0630090  39.6891689   4.2099547   1.3780491
  39.7599196   4.3780237   2.8806245  10.2271008  59.4665289  58.2628536
   9.8747611  60.0923634  57.6300621  10.4127812  58.6823893  57.7462482
  63.3350754  51.4734268  17.2322786  63.0570555  52.0305538  16.5052688
  62.8845692  50.6421852  17.0829046  43.2672262  22.4286675  17.3000622
  42.5406885  21.8459153  17.5209081  43.8016224  21.9235873  16.6872466
  63.8985920  25.5386806  53.1682539  63.8475370  24.8962617  52.4604940
  64.7892237  25.4507327  53.5077620  64.1075850  61.4097500  62.3325109
  63.7452745  60.5871201  62.6615191  64.4233704  61.1980200  61.4540577
   1.7309596  40.4280806  57.1609068   2.2991790  39.6582341  57.1345329
   1.6955480  40.6680202  58.0868721  31.1642766  22.8065848  58.8406801
  31.1179042  22.7893877  57.8847551  32.0916176  22.6747727  59.0378952
  70.8571720  70.1834202  20.1911640  71.0010242  70.6774092  20.9983277
  70.7932234  70.8521271  19.5092750   7.0622253  65.2601051  27.8488612
   7.0635992  65.8447361  28.6067748   7.9207540  64.8374033  27.8708720
  17.3498321  67.8632784  40.6091213  18.0937445  67.2722626  40.4928255
  17.3599434  68.4174681  39.8287344  14.4532537  61.8074846  31.5875769
  13.6558497  61.6234732  32.0840836  14.2257297  61.5962362  30.6821275
  55.0784445  11.3850307  21.2362337  55.0121450  10.8338177  22.0159769
  54.2670393  11.8928075  21.2321758  12.7539563  66.9454336  24.8549914
  12.9048955  67.0188379  23.9126229  13.6311507  66.8967628  25.2349830
  74.3083000  69.9614954  48.6991024  74.2989874  69.3309546  49.4192171
  74.3660545  70.8149052  49.1287327  36.1068869  72.8036451  23.9593053
  36.4825892  73.6736155  23.8242912  35.6523156  72.6092243  23.1396723
  40.1347685   4.0820593  26.9924140  40.9430504   3.7758282  26.5811563
  40.3054571   4.0191820  27.9321694  72.2608757  17.5204039  38.8686466
  72.1277857  17.4198711  39.8112035  73.0777645  17.0541644  38.6910319
  74.2091703  50.0278473  21.4987564  75.0618839  50.0716400  21.9314170
  73.6575603  50.6327438  21.9947934  19.2922914  65.3547955  59.9386311
  19.6311677  64.6089029  60.4336500  18.4659553  65.0422478  59.5702362
  62.4710464  15.4305911  54.4343615  63.1443167  14.9437404  53.9590549
  62.2442770  14.8662686  55.1735163  43.5449600   4.9558887   6.3296121
  43.8127518   4.5242012   7.1408874  44.3673468   5.2086586   5.9100646
  49.6244812  13.4407890   3.8464758  48.8520336  13.9431560   3.5872832
  49.3084049  12.5410700   3.9291415  34.4655752  56.3955307  16.4240837
  33.9023542  55.7498503  16.8508267  34.0218139  56.5924740  15.5991459
  30.5222583  66.3614750  38.3796525  30.2143168  65.4701090  38.5435796
  30.4718781  66.7929459  39.2326045   8.0386496   5.7714325  30.8114886
   8.1394994   6.2793851  30.0064754   8.4850669   6.2910116  31.4800549
  68.9506388  71.5605402  25.9759164  68.8390303  72.4803925  26.2160134
  69.0736818  71.1083794  26.8105674  71.4655304  20.5740547  21.0603070
  70.6269455  20.9696007  20.8224964  71.5426397  19.8124373  20.4856563
  72.4138165   8.0732405  50.8949471  73.3339596   7.9053915  50.6914902
  72.4020386   8.9704251  51.2283421  41.1443377  31.4683127  40.6830931
  41.9870090  31.7871118  41.0063601  40.7356739  32.2356081  40.2824831
  20.5437827  74.7559690  42.0360899  20.3248167  75.2523947  41.2475204
  19.7409892  74.7679090  42.5572538  60.4731464  12.7989817  33.2044244
  61.1070251  12.1301663  32.9453540  59.6260977  12.3551321  33.1627011
  68.7447500  61.7279911  54.1481876  69.6038580  61.3872719  53.8990259
  68.6199474  61.4277935  55.0484848   5.6785727  45.8881664  20.5788326
   4.8740855  45.5148602  20.9389400   6.0484773  45.1872969  20.0420046
   9.3490022  61.2599277  36.5763259   8.7538391  60.8659029  35.9385490
   8.7742269  61.7208433  37.1874070  31.2522817  32.7428651  16.8979156
  31.2224889  33.0744624  17.7953494  30.5398846  33.1992197  16.4501834
  56.3148117  35.9890223   1.8625943  56.6948318  36.0910869   0.9900109
  56.0233307  35.0777507   1.8917987  50.2779722  69.9663830  32.0815015
  50.7766914  70.5572081  32.6458025  50.8367395  69.8389387  31.3148379
  72.7469969  50.6230593  13.0167580  72.4100924  50.1764965  12.2400272
  72.0484591  50.5354071  13.6652958  70.6707907   1.9273898  16.1519575
  70.9733200   1.9399147  15.2439106  70.9906101   1.0948305  16.4995050
  73.1535435  27.1451950  39.0299630  72.4499846  26.8702888  38.4420300
  73.9579296  26.9351363  38.5555482  53.0873919  15.0516951  35.7664728
  53.6211824  14.2596114  35.7039952  52.2987843  14.7729754  36.2319279
  38.4162569   7.3913753   1.0332335  39.3246531   7.3763400   0.7318649
  38.4197688   6.8623477   1.8309486  67.6109362  67.6372719  23.8978100
  68.2295370  66.9538021  23.6400628  68.1459236  68.4270573  23.9769888
   5.7419181  54.5508289  45.8620977   5.8806372  54.8960209  44.9801493
   6.0842031  55.2310228  46.4421082  14.1699445  65.2385616  44.9916697
  13.3752120  65.0284147  45.4820490  14.6716571  64.4233894  44.9879217
  22.8528738   5.3223765  34.3306851  23.3632731   6.0223061  33.9234710
  22.3112559   5.7685405  34.9816990  23.5479546   5.8392739   5.8769423
  24.2337489   5.5394256   6.4736056  24.0186524   6.1159539   5.0907344
  64.5674086  20.9743309  26.4866614  64.2144299  20.6611419  27.3194551
  65.4803562  21.1883998  26.6788292  29.6897578  34.7188473  40.7270002
  29.6671152  33.8325524  41.0878325  30.6215858  34.9110079  40.6221104
  64.0547371  16.4331639  32.0784855  64.4725752  17.2144115  32.4408317
  64.2942238  16.4414382  31.1517668  26.5110016  74.5343351  35.0717163
  26.8834186  74.7830582  34.2257404  26.1406183  75.3460741  35.4183197
   3.3705059  66.3658953  18.4563673   3.2018584  66.5714025  17.5368261
   2.7534848  66.9139147  18.9413297   5.2816159  50.4206610  49.2547369
   6.1087865  50.0094652  49.5056152   4.6087363  49.8191643  49.5735884
  14.1789448  14.0973544  34.5611143  14.0744352  14.5921409  33.7484050
  13.4561896  14.3917298  35.1153708   4.1386774  16.3213265  47.8690386
   5.0692940  16.4972198  47.7303076   3.6904630  16.9114876  47.2631979
  78.2030630  19.5557749  30.1648402  79.0787172  19.8890960  29.9689937
  78.1311417  19.6165907  31.1173940  37.7993512  18.0288661  45.4960537
  37.0706129  17.4410582  45.6951857  38.5730982  17.5708461  45.8243275
  71.1981201  49.8686981  42.8814316  70.6511879  50.2015829  43.5929680
  71.9505453  50.4600286  42.8609371  69.7201824  17.3557162  47.1193361
  69.3223333  16.5649128  47.4834442  69.4468880  17.3607469  46.2019920
  40.7287407  13.2056582  50.8959293  39.9240875  13.2051098  51.4143562
  40.8306360  12.2975802  50.6108952  38.4883499   7.3264217  46.3966799
  39.0212965   6.6425443  45.9910822  39.0451121   7.6859182  47.0873404
  62.9860640   2.2835875  11.2904906  63.2084656   3.2136688  11.2490165
  62.2436714   2.1880062  10.6938767  68.0727482  21.7298484  51.8441963
  68.7986851  21.5206504  51.2564135  67.2892714  21.4725971  51.3581753
  13.2102895  16.3900721  33.3908176  12.3031211  16.5233088  33.6656332
  13.7262821  16.9076788  34.0089345   4.9164140  28.1208873  36.5182638
   5.1692873  29.0438914  36.4995313   5.4207325  27.7490211  37.2418737
  66.9876528  10.2030361  22.1213078  66.9603634  10.7084072  22.9337668
  67.8236294  10.4400229  21.7197943  50.7127333  29.0646696  37.9970217
  50.5580425  28.9065337  37.0657349  50.0658703  29.7277713  38.2380486
  58.4071016  12.2224879  47.7902174  58.8626289  12.4248552  48.6073923
  59.0746975  12.3254323  47.1120214   3.7252545  32.2310209  53.9374495
   4.2827076  31.5074468  54.2236662   4.2440251  33.0163908  54.1115236
  59.9543190  21.5633249  33.6156750  60.1231623  21.4515471  32.6801372
  60.4216576  22.3653650  33.8492489  35.7245374  63.5585546   5.7452548
  35.2320123  64.3789291   5.7200122  35.4903555  63.1643581   6.5854919
  74.2725515  69.9366331   0.8027562  74.9282980  70.6235170   0.6827022
  74.2915773  69.7487068   1.7411345  74.2914438  22.5524330  40.9320498
  74.0510130  23.4548092  41.1421490  75.1190710  22.6294065  40.4573536
  13.2207334  20.0407791  36.2175918  13.3349407  19.1799283  36.6202354
  12.6250207  19.8852599  35.4846716  48.5931826  20.5809093  28.4869123
  49.5394611  20.4614115  28.5676074  48.4559917  20.7889795  27.5627279
  66.9657755  30.7250476  37.7730370  67.8134584  30.8986664  37.3637390
  67.1274185  30.8265805  38.7110090  45.6032276  22.9173326   4.5992765
  45.0841236  22.9116774   5.4034728  45.2608633  23.6577058   4.0984097
  70.9893417  25.9274602  24.8865175  70.4388189  25.1843190  24.6397471
  70.4692888  26.6975164  24.6567631  47.2406578  70.3671026  40.3092909
  47.6549339  70.9327173  40.9609699  46.8371296  70.9731960  39.6879673
  37.4506879  23.7416029  11.8471193  36.9217181  23.4337330  11.1111593
  37.9928303  24.4384909  11.4774418  62.9449987  10.4500020  27.2598600
  62.5410509  10.2773595  26.4094162  63.8715601  10.2476096  27.1304250
  52.7864790  62.8115177  54.6890259  52.9282379  62.6686001  53.7532330
  51.8924427  63.1484938  54.7471189  41.7412663  14.4319582  16.3539541
  41.1171389  15.1576221  16.3644993  42.4325323  14.7017825  16.9585836
  64.8021078   6.9086558  29.0167499  64.6684122   6.3997096  29.8163295
  64.1315985   6.5877950  28.4136748  49.7002029  28.2044530  44.9396849
  48.8207150  28.4727407  44.6737003  50.2213669  29.0055680  44.8864222
  49.0910101  67.3723316  19.5353544  49.0642071  67.4634933  18.5828829
  50.0152779  67.2249126  19.7359359  12.8750575  69.0212393  37.6249027
  13.1389010  68.4236908  36.9252229  12.0605338  69.4135094  37.3104072
  20.8439255  72.9442120  10.1764822  21.5930486  73.2242441  10.7024324
  21.1867905  72.2387505   9.6278477  54.9899244  24.9481559  21.1185789
  54.8187733  24.1443181  21.6092777  55.3304577  24.6467042  20.2763224
   8.9305937  56.0219431  19.2270136   9.1663307  56.4671564  18.4131062
   8.9253485  56.7155933  19.8866022  14.7384059  41.2646818  32.3982167
  15.2752948  40.9731913  33.1351113  13.9032900  41.5138435  32.7941108
  29.5511270  22.3168373  50.4559708  28.7644291  22.4066305  49.9181271
  30.1565361  22.9703665  50.1058102  31.4661050  28.5955215  17.5559247
  30.5472016  28.3959818  17.7348971  31.8247271  28.8543701  18.4048188
  56.6967535  21.6320515  30.4843330  56.6755009  22.3857069  29.8946023
  56.3007164  21.9511962  31.2952185  35.5278802  18.9305615  62.9436398
  36.3450098  18.4735274  63.1427622  34.8822188  18.2318354  62.8381157
  65.1113653  25.2418065  36.8952775  65.5940676  26.0425997  36.6904330
  65.6261778  24.8213983  37.5840855  72.7608347   3.4645101  16.5158081
  72.9329729   3.3379826  15.5827534  72.1637344   2.7532616  16.7478108
   4.2209962  51.1719751  53.4104919   3.5357681  51.6950274  53.8265562
   4.7922966  50.9083033  54.1318274  78.8863754   0.8303893  44.8822594
  79.5553780   0.8449207  44.1978168  78.1644583   1.3458134  44.5225286
  54.3535900   4.4882864  26.5734673  54.9474430   4.3511680  25.8353853
  54.7978306   4.0811056  27.3171639  50.8146954  11.4846408  47.3435974
  50.9658909  12.3845303  47.6326799  50.9405184  10.9556663  48.1313705
  23.1761765  68.0269194  64.2132139  23.4959984  68.0245829  63.3110237
  23.7800193  67.4515820  64.6828794  13.2882822  67.5662518  35.2072334
  13.2595110  68.3027840  34.5965600  13.2051980  66.7911673  34.6517396
  20.6770265  74.8863388  56.0072517  21.4170968  74.4165900  55.6227207
  21.0193955  75.2427496  56.8269968  54.4162083  26.2384415  16.2380409
  54.1964388  25.3860474  16.6140163  53.6562300  26.4673495  15.7030046
  72.1205997  32.3862410  64.8847055  73.0304623  32.5860095  65.1048851
  71.9760656  32.8224134  64.0450096  64.0700626  46.4198637  61.5655184
  63.7297392  45.5281830  61.4926052  63.3546829  46.9176435  61.9613409
  72.9145288  41.0199690  62.4334574  72.0195103  40.7179594  62.2786522
  73.4388876  40.2192497  62.4449158  62.0807552  56.5201807  59.4021368
  61.6042566  56.0201311  60.0648069  61.7531586  57.4147081  59.4956255
  14.9689674   5.7314587  34.7546434  14.6393442   6.0466081  33.9130616
  14.1851342   5.4606253  35.2326465  45.3641987  60.6010771  60.0703001
  46.2418127  60.7816887  59.7335434  45.3306007  59.6479940  60.1523638
  46.7277479  32.8119063   1.0940061  47.0419312  32.0978642   0.5393310
  47.0720530  32.6088524   1.9637498  72.9896879  64.1933298  31.7085505
  72.2130632  64.1039944  32.2609115  73.7232447  64.1841841  32.3234034
  22.2911739  34.6384382  10.9040296  22.5074863  33.7176490  10.7571030
  21.4460778  34.6172476  11.3530242   3.8075018  39.4717574  21.3900924
   3.5782415  38.6567760  21.8367219   2.9772836  39.9407673  21.3064384
  52.9088163  70.2961206  53.9879084  53.7343502  69.8171139  53.9152622
  52.8114986  70.7351637  53.1429243  12.2364569  53.0699301  17.6803648
  11.7593312  52.5881433  17.0047450  11.7380857  52.9142952  18.4826338
  43.3652258  13.8040447   1.7331865  44.1800928  13.5762703   1.2855910
  42.6753139  13.5286582   1.1295180  60.3787041  22.7063131  30.6728125
  60.4760695  21.7977786  30.3876448  59.8430443  23.1147099  29.9927330
   3.9827412  72.8034687  37.1351695   3.7896991  71.9546366  36.7371154
   4.2506680  72.5931358  38.0297136  59.6299124   2.2962496  32.9683757
  60.4911947   1.9383964  32.7530503  59.0130997   1.7352882  32.4981689
   9.5874351  74.2665195  39.3167591  10.4654109  73.9901829  39.5794940
   9.7355497  75.0043726  38.7252665   4.0212408  69.5666647   9.8646808
   4.9044338  69.3725395  10.1785564   4.1573212  70.0936890   9.0773046
   3.9148158  37.2980118  45.1307964   3.3703345  38.0610728  44.9371290
   3.6328611  37.0173407  46.0014057  35.9197116  69.5545864   3.4285584
  36.6663837  69.3424320   3.9886501  35.5584264  70.3571415   3.8048658
  65.5171871  14.5161593   2.3822622  66.2436533  14.6592331   2.9889029
  65.8173466  14.8942733   1.5557231  25.5247593  49.7229242  56.1863422
  25.5717754  50.1181221  55.3158045  25.7894444  48.8130665  56.0509491
   9.0617192  40.0417376  43.4931898   8.1249082  40.0681400  43.6879206
   9.2403007  39.1214514  43.2997656  64.0711498  25.3789997  28.8872576
  63.3333874  24.9814367  28.4247851  64.8456335  24.9818993  28.4888554
  14.4579566  17.3214722  53.4837961  14.9892950  17.8113675  52.8561735
  14.1982424  17.9715443  54.1366243  68.7554264  14.7586155  53.6307192
  69.2778826  14.5387447  52.8594017  67.8591251  14.5277238  53.3866596
  59.1506958  25.6305432  46.1119080  59.1131353  26.5421820  45.8225393
  59.1957569  25.1235938  45.3012228  60.3349257  30.6454754   4.0682155
  59.8238420  30.2866936   3.3427480  60.9948730  29.9764538   4.2501765
  36.7130780  11.4583027  46.0959578  36.7169452  12.3766840  45.8261538
  37.3954678  11.0494053  45.5636215  14.2035723  74.6534586  12.3250914
  13.6058927  74.5302200  11.5876484  13.7937927  75.3382492  12.8536510
  37.5469518  18.9408457  38.7804174  37.1369100  19.7656155  38.5199308
  37.1302629  18.2807565  38.2264471  79.4755983  34.7755909  51.8300152
  79.0502310  33.9521337  51.5908194  79.5176649  34.7545624  52.7860594
  52.8051329   5.1391977  32.2007751  53.6524010   4.7373173  32.3927617
  53.0050564   6.0649812  32.0622563  64.1557598  34.0625954   8.0824745
  64.1461706  33.6404586   8.9415085  65.0058937  33.8284945   7.7100450
  46.5908623  71.5169001   4.9371958  45.6489038  71.6616392   5.0266409
  46.7017508  71.2108946   4.0370312  50.0252342  23.3422923  23.5346651
  49.6411324  22.9387856  22.7562833  50.5490255  22.6463151  23.9315176
  71.7203706  74.6258197  29.1591334  71.6380018  74.3497165  30.0719380
  71.3143390  75.4922538  29.1334105  76.6860533  12.3979425  49.6633863
  76.9290829  13.3175087  49.5558310  77.5095272  11.9196701  49.5665312
  62.3874426  11.6896760   9.7879678  62.2554827  11.4135981  10.6949401
  63.2442856  11.3343823   9.5517075  26.8963814  12.9210448  12.1450126
  26.1581492  13.2546842  12.6548457  27.4512148  12.4792576  12.7878332
   1.5259187  68.2201862  42.3035431   1.7949711  67.4458981  42.7978325
   0.9788609  68.7154007  42.9132366  65.0573826  43.7883091  42.7885962
  65.5848312  43.0928230  43.1814384  64.8584223  43.4697485  41.9081640
  32.0827794  74.6488380   8.7094349  31.5679431  75.1087904   8.0463964
  31.9949055  73.7233543   8.4814316  54.4422531  22.7888250   9.8693818
  53.8401318  23.4294963  10.2478313  54.9297619  23.2798529   9.2079747
  65.1794672  35.0554204  44.2898321  65.1732159  34.2297602  44.7740602
  65.9819317  35.0216293  43.7691212  69.1211557  17.4433279  44.6068573
  68.4151983  17.3617649  43.9656067  69.9226952  17.4285698  44.0838385
  37.0050192  23.4282684  23.4071636  37.6989985  23.7324905  22.8222919
  36.4469218  22.8825855  22.8530979  67.6107740   8.5529852  43.3642817
  68.3511972   8.1866395  43.8478041  66.8383980   8.2325143  43.8300705
   7.5529820  34.8206353  34.5608258   7.7428710  33.9129019  34.3237782
   7.3537397  34.7871852  35.4964638  73.8936424  21.5172029  22.4266982
  73.7959051  21.3222694  23.3587289  73.1564140  21.0709381  22.0100713
  56.8496513  20.3882909  16.9181919  56.0493231  20.8666635  17.1346736
  56.9703579  19.7807384  17.6479483   7.8077573  43.4757757  28.1087422
   8.6195469  42.9774523  28.0143785   7.5753421  43.7265301  27.2146869
  69.2090464  24.9387932  22.0815635  69.8820257  25.4915833  21.6843796
  69.6512365  24.1067243  22.2499633   8.6716610  63.2964134  21.9744372
   8.4106857  63.1309605  22.8803897   8.1189179  64.0263987  21.6954660
  32.3064327  32.7544165  40.5414248  32.6140022  32.0117259  40.0217628
  32.9061890  32.7901006  41.2865734  56.2814760  16.0799515  35.8403754
  55.5026579  16.6359854  35.8180523  56.1427021  15.5034256  36.5917683
   3.8346738  45.1399279   5.8626992   4.6865040  45.5330133   6.0527039
   3.3759847  45.8011913   5.3444636  60.6465864  46.5933180  58.7927818
  61.4320374  46.0509205  58.7213278  59.9876785  46.0118437  59.1722059
   1.9314449  74.3040657   2.6479375   1.5710440  73.6374950   2.0631112
   1.4868321  74.1560984   3.4825972  75.5016756  28.2163692  20.3373981
  75.7516336  27.6095438  19.6406066  74.9613380  28.8741708  19.8997188
  33.1688809   4.4994754   4.6638033  33.0246139   5.2241701   4.0553331
  32.2946000   4.2787018   4.9849328  75.0947857  57.2782993  45.0938749
  76.0109377  57.1252680  44.8626137  74.6564150  57.4199963  44.2548370
  31.9865847  33.9848304  27.2804379  32.9132199  33.7508106  27.3334885
  31.5389132  33.1547618  27.1167088  45.2434492  13.0326164  47.4303198
  45.9650230  12.5519502  47.8359318  45.6715155  13.6675560  46.8560028
  66.2575436  33.9750934  50.4079199  67.1855927  33.8640904  50.2014399
  66.1213589  33.4432697  51.1920452  65.2244282  60.9014940  42.9851532
  64.6921301  60.1653910  42.6834249  64.8778009  61.6577053  42.5116301
  15.3361678  25.1875520  21.5956378  15.4536748  24.8879910  20.6941462
  14.4385469  24.9384212  21.8157315  61.2788057   6.9951326  42.7137327
  60.4645824   7.4982613  42.7252150  61.2431383   6.5004259  41.8950558
  56.1572456   5.9369785   3.9090404  55.8141947   5.9974033   3.0174723
  55.6197739   6.5469277   4.4143298  59.0030336  45.7556915  51.5636921
  59.6142626  45.1137400  51.2023973  58.7421322  45.3889513  52.4084806
   6.7193586  50.0018549  37.3047686   7.3814422  49.3791294  37.0046091
   7.1608508  50.5121851  37.9836488  71.7433453  62.4325180   5.3053737
  72.0411348  61.9426107   6.0718900  72.4911642  62.4203920   4.7080040
  22.1364117  51.9447184  57.6819801  22.3474383  52.8707790  57.5632048
  21.5921354  51.9221258  58.4690523   6.5859026  66.6882133  59.1272259
   6.4825612  67.6395178  59.1509914   7.2772425  66.5064144  59.7638083
  52.0901060  14.3296134  32.5345731  52.5507975  13.6119676  32.9692936
  52.7247334  15.0459826  32.5172615  74.6181583   1.9369093  34.9013591
  75.0121784   2.7594841  34.6109295  74.1925669   1.5858774  34.1191316
  58.5042953  17.5345039  18.1931198  57.5618458  17.4630833  18.0417156
  58.5841942  18.1557357  18.9169419  31.3783789   1.0082984  12.1110272
  31.0718870   0.3611888  11.4757764  31.7676568   1.7015055  11.5779626
  -0.1400841  10.9906566  49.6687651  -0.3149299  10.2136230  49.1378403
   0.7253004  10.8330464  50.0462580   7.5480604  46.1550379  42.7920294
   7.7960813  46.1886549  43.7159252   8.2896531  45.7309818  42.3602295
  53.2571888  29.7560573  38.5343313  52.3857641  29.3642926  38.4762812
  53.7743521  29.1180444  39.0259743  73.0610228  73.8730574  62.8685141
  73.9190531  74.2331362  62.6441050  72.5404215  73.9808130  62.0725298
  42.2321116  74.6282075  61.8641710  41.5665233  75.2671298  62.1191311
  41.9217717  74.2795729  61.0284805  69.0469551  11.9963968  18.2081687
  68.4441233  11.7628813  17.5022662  69.5827818  12.7002585  17.8425181
   5.9426194  60.1866579   1.0197331   5.5033237  59.9215603   0.2116651
   6.6189736  59.5226860   1.1535829  58.4537268  25.4378080  31.4800239
  58.3590984  24.6342850  30.9685278  57.7667952  25.3812218  32.1442175
  37.0376825  11.9239354  51.6472721  37.0009947  11.3209569  50.9047747
  36.2972641  12.5153756  51.5123272  32.6893187  69.9141455   4.4645607
  32.6818776  70.6985426   3.9160228  33.4719133  70.0089788   5.0075006
  36.8894029  52.8773785   9.5240033  36.7574906  51.9809246   9.8325557
  37.1785855  52.7783537   8.6169201  60.1196909  45.1146841  55.9922361
  59.6075106  44.9781132  55.1952076  59.4673157  45.3035831  56.6667366
  12.9977489  61.3675594  26.0048628  12.6102924  60.5056906  26.1574745
  13.8834405  61.1803246  25.6938529  57.2863626  15.3953564  59.1875172
  57.2551012  16.2638080  59.5888233  57.7016783  15.5392456  58.3371973
  50.2676153  21.6459799  39.4788599  51.1456823  21.4851165  39.1333890
  50.4165363  22.0803618  40.3187227  76.2221575  37.0092440   8.1828696
  75.6381845  36.6129923   7.5361907  75.9018183  37.9063249   8.2769847
  40.2626991  19.1553283  60.5947924  39.5556521  19.7928131  60.4951334
  41.0048914  19.5468819  60.1342821  66.0980320  13.4787738  49.5149422
  66.2340736  14.4117320  49.6802092  66.4840126  13.3296537  48.6518049
  37.0122242  61.5279293  10.7663226  37.2622848  62.4046993  11.0578275
  37.4291205  61.4322519   9.9100077  37.0917869   2.5474328   3.0451772
  37.5354385   3.3023614   3.4318137  37.7788234   2.0865929   2.5636804
  11.5270185  27.3689914  54.8122883  11.9302905  28.2357144  54.8612070
  12.0051312  26.8457103  55.4555702  26.5075827  40.4181910  58.9278221
  25.7855153  40.0504684  59.4373560  26.1574626  41.2343693  58.5707474
  38.4227848  32.4859285  37.3581386  37.7721930  31.9038010  36.9655943
  38.0220628  33.3543086  37.3185468  18.4803700  60.1833487  16.9295347
  18.7666988  60.2481270  17.8406060  17.8974903  60.9327888  16.8077958
  21.1661649  67.1700048  58.8954353  21.7750454  66.4784813  59.1548491
  20.3323913  66.9157696  59.2909288  36.6911054  52.2114229   2.7567187
  37.5643706  52.5025177   2.4942222  36.2227321  52.0848608   1.9315875
  63.9189148   5.1418501  37.3980904  63.1855154   5.7040811  37.1485853
  63.8751411   5.1009309  38.3534122   6.0826117  68.7120867  41.1456919
   6.3894945  69.5498991  40.7991076   5.5595303  68.3369732  40.4372406
  69.8448944  26.7933154  41.5030384  70.5989170  27.3285818  41.2557125
  70.0728559  26.4414811  42.3635483  79.2223081   8.4041119  32.1501684
  79.1733725   9.1503787  31.5527391  79.5040162   7.6740557  31.5989065
  19.7778928   4.4342682  43.9120817  20.3544021   5.1033914  44.2810583
  20.3657126   3.7186444  43.6700487   2.4037959  11.4107275  36.9044447
   3.0402011  10.7193470  36.7221999   2.2890328  11.8577385  36.0658503
  62.0670271  34.0290594  39.2872119  62.6692486  33.5929322  38.6844206
  62.5373554  34.8133111  39.5700097  39.1124868  67.3788548  61.2093258
  39.2285872  66.4617872  60.9608507  38.1706285  67.5307226  61.1314011
  55.4056311  10.9071028  64.1954565  56.2052107  11.3240397  64.5165014
  55.6891108  10.3986871  63.4355974  55.4404020  30.2010584  48.9095831
  55.4868889  29.2914248  49.2039299  54.5168304  30.3375411  48.6983490
  48.4179163  11.0793602  18.9086366  47.5827694  11.2561214  18.4756088
  49.0797091  11.3478303  18.2713091  23.1597662  65.2906132  54.1836119
  22.8215361  66.0654736  54.6324158  23.2158780  64.6231651  54.8674202
  36.6630149  13.2798874  60.5497694  36.5161371  13.2333791  61.4944887
  37.2061539  12.5164175  60.3539467   8.1686372  13.8639545  35.6608582
   7.9893720  14.0456247  36.5834045   7.8871429  14.6553254  35.2018118
  59.4898510  73.5336971  20.0124454  59.9232006  73.9963627  19.2952466
  59.2869043  74.2175961  20.6506658   2.5026608  31.4449692  44.1681194
   1.7257796  31.9922519  44.2828751   2.3646563  31.0061765  43.3286858
  78.9795160  29.8713183   5.5679727  79.7908306  29.3635869   5.5823332
  78.9182281  30.2497363   6.4450562  56.1839342  24.6527219  30.0516343
  56.2361336  25.1477695  29.2340565  55.7525396  25.2478051  30.6648302
  63.9717340  31.9731808  59.5649004  63.2478714  31.3472867  59.5423269
  64.1692734  32.1442223  58.6440563  57.4456120   8.9875627   0.9659366
  57.7318287   8.8309675   0.0660540  57.4933720   9.9378312   1.0705326
  77.9075909   7.4595267   1.3885790  78.7740135   7.1374947   1.6372660
  77.9649734   8.4089267   1.4961824  36.6011405  10.2387488  25.3115654
  36.3122487   9.3262488  25.3223467  37.4515867  10.2259338  25.7506680
   9.4795376   3.7604034  59.4241905   9.2332631   3.0353206  58.8498783
  10.0753844   3.3685139  60.0626421  10.4321456  38.4307718  41.7252064
  10.8810580  38.1289077  40.9355307   9.8118055  39.0887332  41.4113617
  37.9672861  10.7474494  59.9487305  38.5179949  10.6902862  59.1679096
  37.6371622   9.8578447  60.0746393  68.4123135   2.0681696  30.3101039
  69.1712761   2.5913310  30.0522017  68.1418419   2.4368688  31.1510181
  21.2769604  11.4289737   8.9251125  22.0935893  11.9013286   8.7631595
  20.6367517  11.8550205   8.3551574  57.9797316  68.3601379  19.7371757
  57.1759987  68.8080978  19.4734073  58.3699703  68.0642509  18.9147425
  15.2144253  18.7753403  28.1833506  15.9884596  18.9228964  28.7267947
  15.4686284  18.0671179  27.5917149  50.3577423  22.5843573  18.9459670
  50.2117109  21.6481638  18.8101554  50.6211329  22.9128623  18.0863488
  12.3028409  18.8008869   4.9531388  12.3972368  19.6744490   4.5733884
  13.0486178  18.7160838   5.5471557  17.7054811  31.2027621  29.1850328
  18.4115577  31.6555214  28.7238431  17.8971589  30.2729535  29.0627837
  56.4157677  48.4470415  23.4694338  55.5046844  48.1584549  23.4157681
  56.5084267  49.0811586  22.7584195  61.0761309  26.2738204   0.5021922
  61.7343569  26.8602347   0.1292451  61.1550713  25.4687834  -0.0095848
   2.4607240   9.1791457  25.3058863   2.2418900   8.7615037  24.4728684
   2.6021144  10.0991607  25.0827026  46.7685556   1.2483829  53.6483383
  47.6993990   1.0425315  53.5623884  46.4795160   0.7389517  54.4054174
  52.4772596  33.0161142  43.4421062  53.0196667  33.7952137  43.3194971
  52.5533295  32.5388670  42.6158619  71.2255430  39.6417475   6.1819154
  71.1053181  39.9250340   5.2755350  70.7869720  40.3141689   6.7031962
  79.6199989  48.2371950  42.9488516  79.5574999  48.3631229  43.8956690
  79.2922306  49.0556955  42.5762177  63.0062723  23.1771493  58.9496613
  62.9545116  22.2407937  58.7578535  62.2031164  23.5424161  58.5785151
  53.4025764  60.3759098  30.3274298  53.9969158  61.1243391  30.3807688
  53.1157684  60.3624249  29.4143081   7.6144481  67.8521872  25.9548116
   8.5424328  68.0868006  25.9492183   7.6025742  66.9279051  26.2033939
  78.2968330  15.4249024  26.2137508  77.6272774  14.7786117  26.4378834
  78.0310059  16.2170053  26.6808057  58.1728506  49.2753744  13.1649148
  57.7423000  48.4374762  13.3345616  57.5677633  49.9303627  13.5129070
   5.6353956  31.6816425  47.4430799   5.2516055  31.5426373  48.3088827
   5.0159967  31.2733936  46.8381739   6.5577412  18.9584970  29.1402912
   7.1112847  19.6751118  29.4505906   6.5222436  18.3473635  29.8761511
  58.8711452  53.0764818  16.5104675  57.9354000  52.9709530  16.3387823
  58.9356089  53.9052391  16.9850659  72.1299362  41.9376135  13.1763089
  72.7615833  42.5788784  12.8506839  71.2918377  42.3998833  13.1649923
   7.4536490  21.3352895  29.8913765   7.0811552  21.7057109  29.0912080
   7.7817106  22.0928383  30.3758645   5.2310723  13.6956418  11.5241325
   5.9892666  13.6101270  10.9461534   4.9240389  12.7979183  11.6508460
  65.7480478  30.2854824   8.8257897  66.4802217  30.0910687   8.2406771
  65.3356743  29.4362330   8.9837700  73.8930368  59.5226526  15.6884241
  74.1659451  58.9304590  16.3891816  73.1796598  59.0603542  15.2484143
   1.8192676  49.8333168  15.4539573   1.0367180  49.3098164  15.2813363
   2.5015321  49.4278145  14.9188709  19.9525595  62.3405552  32.8790450
  19.0603280  61.9992447  32.8185296  19.9357975  63.1473589  32.3642492
  73.0275583  39.4097662   9.7045976  73.7792063  40.0012636   9.6673959
  72.5925541  39.6268129  10.5291545  23.8904881  53.8907766  17.9451895
  24.6252990  53.4459400  17.5228131  23.1903124  53.8689375  17.2928798
  65.8588457  34.7478294  40.5676794  65.6096506  33.8503480  40.7882738
  66.5479517  34.6504140  39.9105096  75.9600449  15.1294148  19.9476039
  76.0991383  15.2778161  19.0122628  75.7741165  15.9985447  20.3029585
   9.3639481  29.1064930  23.1478763   9.3343270  28.5804892  22.3487043
   9.4286937  28.4645009  23.8549018  73.0122280  33.1094170  26.4296675
  73.3205462  32.7555776  25.5954194  73.4794092  32.6011491  27.0927167
  21.4477825   6.5796852  43.9778328  21.1587071   7.3158532  43.4386444
  22.0457458   6.9699603  44.6152925  12.8172624  36.6541457  48.4826756
  13.5424876  36.5156150  49.0918493  13.2066917  36.5372443  47.6161242
  69.1435051  12.2814071   5.5656350  70.0829697  12.4640822   5.5821598
  68.9233828  12.2426319   4.6348965  71.7936325  15.3550601  60.6433439
  71.9473267  15.8796620  59.8575926  71.0166836  15.7453096  61.0436916
  10.5159235  51.4659357  28.2036614  11.1920333  51.2090063  28.8306355
  10.4585183  50.7275200  27.5973010   9.2426306  30.3077722  56.5487194
   9.0622526  30.7883501  55.7407951   8.5005569  30.5100608  57.1184874
  62.1952152  61.0439253   1.7506269  61.6747713  61.3263178   2.5027069
  61.6770506  61.3048172   0.9892611  20.7028031  18.1236982  16.3813186
  20.7027364  17.3368907  15.8361888  20.5703568  18.8429511  15.7637703
  58.8774061  24.0392542  28.8042235  59.3389463  24.8775840  28.8246369
  57.9577398  24.2688608  28.9373422  75.5553198  55.2975416  24.3785334
  75.4587269  56.0987329  23.8637590  74.7251844  55.2126026  24.8474574
   3.5955721   7.1989155   1.5654515   4.3967515   7.2414148   2.0875022
   2.9867452   6.6912717   2.1019769  77.8609276  48.8800573   2.9721329
  77.1771431  49.5463133   2.9030252  77.9263449  48.5117054   2.0910707
  42.3997164  24.7066569  47.2381735  43.1937504  24.5353389  47.7445269
  42.7130651  25.1211333  46.4342690  75.8903980  17.4927974  31.1994004
  76.3219547  17.5587082  30.3475475  76.4980412  16.9849467  31.7370725
  63.3448076  63.5349464  17.0304382  62.8144217  64.0311050  17.6539350
  64.1340637  64.0637159  16.9133461  59.7251844  54.3654060  53.2953024
  59.9879837  55.1697397  52.8478432  58.7860966  54.2924261  53.1249332
  76.8704081  52.5788403  14.6786714  77.8016758  52.6607037  14.4730794
  76.6577339  51.6695642  14.4683838   6.9289899  73.3445549  20.6698608
   7.6893902  72.8416014  20.3782058   7.1881956  74.2588139  20.5551052
  24.5398831  22.8711104   9.4864839  24.9691105  23.0927205  10.3128529
  25.0304580  22.1185184   9.1560656  66.5075684  72.7413559  16.8803310
  66.2923670  72.3014069  17.7027428  65.7227850  73.2457590  16.6660380
  21.0562515   0.9348811  60.6878138  21.7295980   1.5831922  60.8940363
  20.2541471   1.4470288  60.5850267  73.9274740  48.0567360  33.5433173
  73.3077669  48.3531713  34.2098904  73.6352444  48.4835052  32.7378988
  64.2323732  11.4534533  15.9467113  64.6591091  11.5010095  16.8022037
  64.5186186  12.2455692  15.4919064  74.6622276  47.7425480   6.4430612
  74.7684097  46.7992401   6.5660477  74.0217876  47.9999638   7.1062374
  30.1796722  73.1560659  42.6885176  30.5645180  72.9117298  41.8468332
  29.2553163  72.9214430  42.6063633   9.2857623  12.2843933  61.8282652
   9.6258724  12.8500772  61.1350441   9.9251467  11.5750873  61.8938684
  39.5549369   6.4191341  24.2751312  39.1313529   6.7426670  25.0702000
  39.7517395   7.2083318  23.7704849   2.7358475  66.0676289  59.3036318
   1.9488227  66.1821318  59.8362827   2.8844276  66.9265366  58.9081144
  58.5332155  17.3262990  49.0757370  58.3338690  18.2114077  49.3808222
  57.6851797  16.8827772  49.0568972  11.9300389  14.6060872  36.2434912
  11.5412879  14.3294406  37.0732927  12.1627104  15.5241466  36.3822794
  52.8487635  54.5277023  42.9993057  52.7227068  54.7620201  42.0798302
  53.7582111  54.2332983  43.0489397  75.3372765  51.8023872  31.3155890
  76.1962700  51.8351460  30.8945394  75.1917267  52.6937962  31.6324997
  70.6575537  21.0159850  50.7210827  70.8052254  20.2474070  51.2721872
  71.0551167  20.7880735  49.8807096  71.3049078  35.7936621  43.7353992
  70.5337191  36.3483715  43.8528585  71.8815947  36.3027287  43.1657362
  69.7541285  43.5428286  30.3311324  70.6194162  43.3966208  30.7134056
  69.2135334  43.8327360  31.0659385  26.5172958  32.8442788   1.5187186
  26.3978720  33.1546569   0.6211466  27.2554779  32.2372055   1.4660014
  24.3160367  57.7387857  -0.0136321  23.9020824  56.9147348  -0.2701805
  24.1608620  57.8015375   0.9288192  70.1069689  54.6917534  13.3314705
  69.2021179  54.5462751  13.6077154  70.0312614  55.1627207  12.5015974
   6.8027270  42.4970818  47.4375629   7.2281325  41.8566179  46.8674183
   5.8967233  42.1952009  47.5027895  77.3088932  22.0803642  19.8576427
  77.7916098  21.5628386  19.2131388  76.6074944  22.4948668  19.3551922
  22.3813677  66.9549513  56.1979342  22.9113889  67.7519846  56.2047768
  21.9043541  66.9773960  57.0275021  64.5498514   7.6089883  34.3156886
  63.7583017   7.8403866  33.8297486  64.4529676   8.0543923  35.1573896
  72.1313000  20.0772834   6.8423682  71.5854263  19.9282277   6.0703343
  72.2312403  21.0282946   6.8850541  52.2996283  63.1383514  30.0381684
  52.3326778  62.3458529  29.5023680  52.3177052  62.8185511  30.9401846
  10.2944124  22.1678567  37.7589774  10.8864546  22.9186177  37.7134061
   9.7389585  22.3465705  38.5177684  36.3114119  23.9155173   3.9220086
  37.1523428  23.6352444   3.5607433  36.5241337  24.6778750   4.4603318
  41.7086315  20.8334208  18.7756348  41.4830256  21.3232803  19.5664394
  40.8659744  20.5501032  18.4208286   1.9565265  58.2469082   1.1889286
   2.3872644  57.6286221   0.5986547   2.6376882  58.4958172   1.8136629
  27.4482322  16.8736684  63.5136366  26.8075943  17.5096524  63.8319731
  27.8596973  17.3030829  62.7636147  63.4227991  54.9631166  18.7159431
  62.9034042  55.6316805  19.1625750  63.2802200  55.1316500  17.7845466
  62.4056053  42.4143505  17.3972178  62.6174450  41.4944458  17.2387064
  63.1929588  42.7745676  17.8053188  47.8000307  70.9375525  47.7652073
  47.9244518  71.0882807  46.8281698  48.3759165  71.5741158  48.1887341
  63.1262064  15.1998889  16.7290497  62.9138374  14.2866647  16.9218040
  62.6248264  15.4007292  15.9387887   1.4670484  32.6099229  26.3829541
   1.9904456  32.7727723  27.1676612   2.1119723  32.4564528  25.6924820
  53.9810896  47.3793125  20.5200028  54.7716475  47.1886730  20.0151157
  53.9834690  46.7297649  21.2230730  15.9831357  47.0358372  63.0498600
  15.0603247  47.1126270  62.8074598  16.2193680  47.9057360  63.3718920
  60.4557562  36.9533348  39.0179229  60.7044172  37.6272655  38.3852959
  61.2277460  36.3914323  39.0851712  30.4566884  55.4659986   1.2083858
  31.2575459  55.2259970   1.6744938  30.0637293  56.1537361   1.7458171
  61.8319035  21.3532805  28.0017924  62.6653051  20.9767938  28.2845140
  61.1925411  21.0195088  28.6311126  75.8146858  18.2964158  55.2008867
  76.5848303  18.7805939  54.9030924  75.7629395  18.4819055  56.1385155
  71.3434219  42.0368290  34.7200203  70.4560232  41.7177868  34.8842430
  71.5057850  42.6657200  35.4231334   9.9582970  52.8538609  39.5606756
  10.5616140  52.5527382  40.2400637  10.4575026  53.5059500  39.0689349
  55.5958700  34.9500275  10.2212310  55.6365538  35.8418941  10.5664110
  56.5048933  34.6502066  10.2245712  48.0651426  14.1506767  10.9403765
  48.4290075  14.5473182  11.7319012  48.5620260  14.5461154  10.2241576
  16.3245487  38.9470577  15.8357716  17.2120571  39.3044090  15.8064258
  15.7569873  39.7025275  15.6828964   4.1966742   2.7714115  40.5744839
   5.0797141   3.1048149  40.7335901   3.7635046   2.8244999  41.4264107
  16.0798442  50.5112696  53.6855650  15.6568635  50.1372480  52.9126310
  16.4567339  51.3353300  53.3771658  29.2936921   8.6305892  62.6085472
  30.1814842   8.3978325  62.8803635  29.1976261   9.5479441  62.8644037
  63.0645800  63.9715862  13.2625508  62.4342918  63.8881493  12.5470066
  62.5288963  63.9633322  14.0557754  42.1084452   7.7124393  41.3269186
  42.8245449   7.6596212  41.9598818  41.8012428   8.6169595  41.3877535
  69.5201015  32.6516962  31.0546613  69.8927212  33.2727408  30.4288125
  70.1776075  31.9596982  31.1257648  25.2533054  22.0475554  14.0688276
  24.7070646  22.8183985  14.2226326  25.5464840  21.7838621  14.9410343
   1.4271955  56.9506121  33.0810070   1.1630169  56.0727215  32.8057742
   0.6025563  57.4128294  33.2311893  78.0502701   2.8888085   1.9756953
  78.7761927   3.4931555   1.8206592  77.3904324   3.4172222   2.4247192
   9.7444588  47.4167109  26.3814974  10.4787040  47.8136444  26.8500710
   9.2539477  48.1602144  26.0310197  71.5424681  24.1344666  19.0841579
  71.9824886  23.5104179  19.6613753  72.0976353  24.9139071  19.1064477
  58.1009531  65.9467220  15.0672865  57.6313353  66.1138296  14.2501175
  57.7528238  65.1105642  15.3769183   9.4941974  57.7941275  63.3330011
   9.2490304  58.7193727  63.3259630   9.6492094  57.5804186  62.4129295
  38.2122636  71.3594818  35.4242110  38.7162137  71.9311380  34.8450089
  38.8579607  71.0134315  36.0402918   1.2562732  39.1199994  24.2057014
   0.4701056  38.5742044  24.1889262   1.1493653  39.7168064  23.4650111
  13.3904827  61.5088940  64.2534781  12.5732660  61.9608545  64.0434361
  13.8267434  61.3978815  63.4087420   1.8157011  35.1396346  41.0253763
   1.9075212  35.3202987  41.9608736   2.7128959  35.1419187  40.6918049
   6.4942604   9.5613039  16.7974901   6.6575223  10.2905476  16.1993432
   5.7434827   9.8435110  17.3199117  66.2452459  28.5256028  50.5323124
  66.9310188  28.8085318  51.1372042  65.4509687  28.4997559  51.0658741
  47.9843903  12.6422024  50.3589344  48.3958197  11.8298948  50.0637817
  48.3812284  13.3229113  49.8154402  73.2310009  34.3367720  38.5977340
  73.5962200  35.1661348  38.9059615  73.8237953  34.0587950  37.8994846
  63.9034319  66.7254686  64.5480156  64.0224218  66.2862492  63.7058973
  64.7766638  67.0429039  64.7780848  16.1797667  31.8929648  35.4111886
  16.6329432  32.7354836  35.4432225  16.8038869  31.3011169  34.9911618
  71.7585516  24.4272304   4.4437131  71.6672087  25.3358054   4.1566953
  71.1950922  23.9307618   3.8501960  65.6893539  32.8269577  45.7334423
  65.6856012  31.9588208  45.3302622  66.5679550  32.9157114  46.1027861
  63.8002062  16.2932765  42.7357960  63.9511776  16.8249822  41.9543076
  63.9605284  15.3943789  42.4485493  56.1702061  46.1319637  18.9746714
  56.8364811  46.4926815  18.3897030  56.4093447  45.2100849  19.0704978
  27.3577857  22.1908641  59.3260574  26.5887833  22.4847484  59.8144245
  27.3659754  21.2406635  59.4413137   3.9770588  39.9721789  61.1740923
   3.8677323  39.8532414  62.1175623   4.6254289  39.3141985  60.9232807
  56.4886999  62.7273560  42.4897289  56.4699697  63.6218977  42.8298330
  57.4012089  62.4542093  42.5843096   2.2233859  17.2404635  64.0967464
   2.0528710  16.3028252  64.1861391   3.1334019  17.3459327  64.3741941
  -0.2940518  30.9665108  27.8631997   0.6054538  31.2327242  27.6728106
  -0.3089387  30.0265837  27.6827860   5.4849446  39.8075914  38.8362002
   4.7318313  39.2807293  39.1035342   6.2004405  39.1773295  38.7521338
  69.0809107  66.1064386  51.0316324  69.6348763  65.8471441  51.7679214
  68.3762932  65.4586267  51.0222673   5.4103881  41.9695187  37.2520137
   6.2970972  42.2605371  37.4648237   5.2530742  41.2309361  37.8402114
  61.5581846  19.2473447  55.7167912  61.1031866  19.7234082  56.4114618
  62.2586441  18.7764335  56.1682701  62.6181507  10.3090680  53.1056452
  63.5668087  10.2243853  53.0102158  62.2767591  10.1908135  52.2192478
  16.7087901  54.1879416  19.7331166  17.3391235  54.7966433  19.3479037
  15.9315777  54.7213507  19.8993838  74.8076725  41.1150455  64.3395567
  74.1113710  41.3311958  63.7193346  74.3469238  40.8868456  65.1469374
  12.1050584  55.0473690  27.1270037  12.5181878  55.1949501  27.9777551
  11.3037097  55.5700874  27.1559882  45.0825167  34.3005276  56.0757685
  45.3272772  35.0777197  56.5780592  44.2440224  34.5289230  55.6745291
   5.8561361  46.8263578  13.3988869   6.6999745  47.2778177  13.3801329
   6.0701442  45.9110260  13.2183266  17.0878708   7.7325320  17.7281260
  16.9336045   7.4704951  16.8205082  17.6380277   8.5130250  17.6618779
  14.7674441  22.6813555   9.7081202  14.2482686  23.2563400   9.1459084
  14.3699324  21.8174124   9.5994133  76.5887499   2.2777812  13.8324904
  77.5084400   2.5408873  13.7981677  76.2825632   2.5878632  14.6847415
  76.0509491  13.8199532  26.6046119  75.2850437  14.2135656  26.1866498
  75.9079456  12.8766942  26.5268731  66.4229774  42.0878410   5.5576712
  67.2437763  41.8442345   5.9856689  65.7666922  41.5152264   5.9546989
  21.3957739  39.5963407  17.5254881  21.1613774  39.5931387  18.4535384
  22.2798991  39.2303777  17.5004935  68.7241554  41.1503839  35.3856826
  68.3398247  40.3844643  34.9591994  68.1332779  41.8699217  35.1635098
  60.0968695  59.1926813  12.2401762  60.5397320  58.4335470  12.6194060
  60.7918692  59.8396301  12.1190667  56.2562895  63.9126301  10.4596782
  56.5768433  64.1791487   9.5980251  55.8597374  63.0539417  10.3126192
  69.0803814  64.8552656  30.3721452  68.7944603  65.6368303  30.8450508
  68.4819651  64.1670847  30.6628990  10.1622975  51.4372921  23.0254531
  10.0677812  50.5239964  22.7549195   9.2951500  51.6824436  23.3482361
   6.1251050  38.9794683  64.5058632   5.7574213  39.8631787  64.4960403
   5.7652104  38.5616040  63.7234974   9.3454695   5.9043425  63.9179897
   9.4264215   5.2234393  64.5858622   8.8738489   5.4812264  63.2005119
  65.4082966  54.3595791  26.6004491  64.5194149  54.0754414  26.8134832
  65.9716988  53.8192272  27.1543694  15.6945133  51.3995171  13.5694742
  15.0432849  50.7043934  13.6639917  16.3515091  51.0333252  12.9774523
   1.5716624  60.6693363  25.5022144   0.6396819  60.5045033  25.3591275
   1.6343632  61.6192770  25.6017518  21.6865450  70.8007002   0.2255771
  21.7418677  71.7280841  -0.0049164  22.4387890  70.6509400   0.7982299
  57.5147581   1.0770890   3.5588667  58.2003736   0.5718451   3.1219512
  57.9858446   1.6345713   4.1781595   4.2638609  74.7169447  32.6593590
   4.6909204  75.5686188  32.5671673   3.4113613  74.8297167  32.2389340
  46.0342312  48.5580969   2.7883652  45.2407122  48.6048841   3.3216307
  46.1608696  47.6228046   2.6289442   3.0848125   3.0355436  43.1146097
   2.4186733   2.3556605  43.2158518   3.4249979   3.1711286  43.9989901
  64.6995115  17.7634442  38.3676410  64.4964695  18.6761069  38.1625724
  64.5155859  17.2891402  37.5568151  57.5607395  39.4485474  15.8597910
  57.2011805  39.9752426  15.1459682  56.8016624  38.9998794  16.2322617
   3.7714660  44.0397167  36.4077568   2.9524395  43.7071800  36.7749739
   4.4272986  43.3882952  36.6562867  34.9364305  11.5137184  20.8315945
  34.7946286  10.5670846  20.8344913  34.4143510  11.8363571  21.5661478
  50.5396366  66.3236761  25.4471588  51.2934637  66.1100054  24.8973250
  50.7042503  65.8618689  26.2692714  78.5816097  55.5602646  63.0133867
  78.8979340  54.8184252  63.5289860  79.1791487  56.2755823  63.2313395
  17.0707273  34.1929579  23.2165551  17.5860298  33.3865643  23.1959701
  16.4037335  34.0682721  22.5414228  23.5944939  37.1648765  32.4460387
  24.0116763  37.9098248  32.8787565  22.6564503  37.3427677  32.5143409
  67.2470760  74.0774727  29.5619035  66.5113735  73.7212706  30.0599980
  66.9583464  74.9518347  29.3004441  18.6881042   8.1900740   9.1392475
  18.3117020   9.0526265   8.9644438  18.0710506   7.5747484   8.7432033
  56.4467239  54.7184277  10.5518639  56.7695332  54.0640831   9.9323022
  57.1862888  55.3124762  10.6798434  39.2907858  30.5085182  61.4605951
  38.6589217  31.2203217  61.3590336  40.1370621  30.9093547  61.2621689
   1.7098314  59.8238611  30.1042414   0.8264724  59.9057150  30.4636979
   2.2597885  60.3292561  30.7028699  37.9320741   1.7846008  17.2351038
  38.8889790   1.7669532  17.2191191  37.6699066   1.2159422  16.5111363
  49.8330402  11.4196408  57.7960348  50.1484585  11.1676836  56.9281292
  50.4990339  11.0882699  58.3984280  74.2382431  45.5039692  35.0308633
  74.3660688  44.6570444  34.6035361  74.7215223  46.1234617  34.4841456
  72.4561071  25.9873724  29.1532850  72.4518013  26.8268180  29.6132255
  71.5797043  25.9171224  28.7748456  77.3679638  68.2107162  28.1289268
  76.9202757  67.3833036  28.3055258  77.7836084  68.4402943  28.9600515
  53.6473274  36.8893790  15.2269125  52.8453302  36.5127230  15.5890787
  53.8434124  36.3463974  14.4633985  63.5043526  20.5752563   1.6857614
  62.6099348  20.7462835   1.3908106  63.3983564  20.0642204   2.4881569
  53.4878874  68.3168221  25.9264064  53.5353422  68.4262609  24.9766684
  52.7353573  68.8458204  26.1911535   4.9666828  57.7659988  25.4921007
   4.8121256  58.1037521  26.3742948   4.2487115  58.1234169  24.9696016
  77.4699688  35.4570079   2.1970323  78.3289051  35.0648189   2.0400363
  77.3202276  36.0181952   1.4361912  71.6378164  49.2963362  34.8159647
  71.7500496  50.1963568  35.1219034  71.0028887  49.3632126  34.1027856
  13.8619614  49.9111032  58.2244253  14.3665469  50.7152605  58.3467388
  13.8547182  49.7746563  57.2770262  37.8041625  68.4294176  11.9639349
  37.1464825  68.3512402  11.2728655  38.5575867  67.9397631  11.6340554
  11.8271935  30.2082801  38.8819265  11.1089516  30.8140159  39.0648055
  12.5938284  30.7712674  38.7744665  61.2381649  51.8593788  40.6846142
  60.6571913  52.5808334  40.9258795  62.0784235  52.0847321  41.0838795
  43.7694168  15.9730113  17.9364383  43.1745243  16.6559100  18.2462513
  43.8863373  16.1615765  17.0053077  75.4165649  11.0753918  22.5415754
  75.2996588  11.9675779  22.8680253  76.2688637  10.8050835  22.8832674
  51.1116648  71.5005779  17.3897326  50.9418726  71.3511658  16.4596355
  51.6465473  72.2940969  17.4111080  11.2024319  49.5296574  58.9545918
  11.0717034  49.7226858  59.8829651  12.1504796  49.5769644  58.8313055
  74.5376110  32.2237349  16.5433609  74.3218040  31.7188120  15.7593262
  75.1741552  32.8723693  16.2428367  73.7735701  21.1031103  31.4334726
  73.1278753  21.4700675  30.8296061  73.2839203  20.9450102  32.2406173
  72.2373056  70.6032038  17.2563660  73.0308533  71.0175943  16.9175529
  71.5415192  70.9048271  16.6722977  78.2660246  37.2121477   0.4250882
  79.1407824  37.2485590   0.8120015  78.4215164  37.2162437  -0.5193885
  17.4974334   0.8066875  53.5734177  16.7589176   1.0525429  53.0163002
  17.5112855   1.4729151  54.2605734  53.3749437  58.6961889  15.3567266
  54.3038321  58.7723255  15.1385462  52.9573154  59.4133520  14.8797631
  26.8294024  35.0580740  26.3329840  26.4869308  35.3302073  25.4815793
  26.0951138  35.1765561  26.9354916  66.6009760  56.0352373  30.1875091
  67.2622871  56.6523504  30.5006623  65.8120918  56.5657473  30.0759006
  27.4740100  38.1446075  18.7456954  27.7891994  38.8952041  18.2422161
  27.3659968  37.4492669  18.0967987  76.8545818  24.0757680  33.0235362
  77.4083662  24.7171259  32.5783253  76.6466093  23.4294844  32.3487782
  12.2288573  66.9578934  55.0376368  11.4645314  66.4036942  55.1954317
  12.5613809  66.6708326  54.1871929   1.7451790  28.6394072  58.3220196
   1.6225687  28.4104395  59.2433071   2.0969054  27.8439617  57.9222918
  11.4373338  50.8831739  20.3115344  10.7194996  51.4948463  20.1478148
  11.8479347  51.2050343  21.1140585  18.6431336  71.5053177   5.5455655
  18.3620918  70.7556295   5.0209570  18.0476618  72.2109699   5.2931768
  58.4755993  39.4332242  54.1123390  57.5659847  39.2467976  54.3448830
  58.5066223  40.3844738  54.0104055  79.1698360  36.5624475  40.4209423
  78.7582493  36.3546896  39.5820904  79.8046064  35.8590388  40.5570030
  41.5944719  40.4729319   8.5555434  42.0664120  40.4495573   9.3879837
  41.2885618  39.5748973   8.4283495  48.9133406  55.1025963  44.5022440
  48.8812399  54.1487694  44.4286489  49.0995169  55.2653408  45.4269505
  76.0712576  54.9896908  47.7985954  76.2260675  54.0620136  47.9765987
  75.3082991  54.9986029  47.2206259   7.0858955  42.2445822  58.7265444
   6.6385537  43.0903816  58.7538624   6.8009120  41.7970657  59.5232487
  74.2202663  36.1743140  42.6968145  74.6760368  36.5330553  43.4582663
  74.6293592  35.3209901  42.5528908  76.8522882  49.0122604   7.7315748
  77.0064783  48.0695486   7.7927738  76.0815907  49.0929222   7.1696544
  60.5041075  46.3396549  25.2064180  59.7107697  45.9670639  24.8216701
  60.1973820  46.8036032  25.9854579  67.4914742  63.7999201  21.9672537
  67.5174332  64.5175219  21.3343191  66.7262030  63.2840919  21.7132545
  72.9433441   6.1240184  16.9062555  72.6230049   5.2247369  16.9763255
  72.1713448   6.6350037  16.6630650  31.9004297  35.0341129   3.6893424
  32.2131062  34.1311502   3.7452102  31.1238074  34.9846005   3.1319949
   0.6184896  23.5240769  51.2306929   0.9834647  23.9139557  50.4363251
   1.3310063  22.9926443  51.5858412   5.4300278  64.8441124  19.9155128
   4.8441991  65.4093647  19.4119966   6.0666388  64.5274544  19.2746651
  66.4216280   3.9783227  21.2829518  67.2544479   4.4262913  21.4311790
  66.3963079   3.8262069  20.3382564  66.8758774  35.0590467  32.3779988
  65.9340477  35.1214409  32.2189403  67.0022726  34.1757298  32.7244210
  58.0715561  65.3167152  58.1488848  57.8028393  64.5928049  57.5832176
  58.9941692  65.4572010  57.9361105  64.2603302  51.5052986  29.4622135
  64.5685101  51.1018133  30.2736664  65.0568056  51.8158197  29.0315914
  64.4997072  20.4470944  56.8992662  64.0469170  20.5255580  57.7389431
  63.9759827  20.9728527  56.2946844  72.8759813  58.7266779  21.8207383
  72.6815796  59.5565224  22.2563982  73.2347345  58.9808273  20.9704804
  36.8760514  29.7932625  14.5048165  37.3816228  29.3148017  13.8477755
  36.8973517  29.2312765  15.2793801  37.9304218  27.9735661  62.0081758
  38.6886930  27.3894191  62.0026016  38.2702112  28.8101435  61.6905117
   0.5892132  24.3161297  33.8420987   0.1404018  24.4458055  34.6775532
   0.1024750  23.6108017  33.4156847  56.6611052  73.6517000  48.8277674
  55.9683561  74.1476345  49.2640972  56.2859011  72.7809715  48.6963081
  29.5953560  64.5601082  24.3871832  29.0304780  65.1623440  24.8713899
  29.4983625  63.7231874  24.8414826  71.2621498  62.8422070  35.8874798
  72.1640968  62.5476313  36.0137773  71.2271595  63.1210327  34.9724603
   2.2711930  55.4050684  39.1294765   1.9544667  56.2191820  38.7381458
   3.2003978  55.3754234  38.9015913  72.9810810  48.7319088  50.7339525
  73.0939198  49.1743851  51.5752077  73.8620281  48.4438992  50.4947519
  71.6997385  16.7137718  30.9222150  71.4439535  16.3808298  30.0620079
  72.4034643  17.3360956  30.7386088   2.3922905  48.1419849  10.7737410
   1.8969843  48.7883711  10.2706635   3.0037326  47.7639341  10.1417208
  53.6953497  52.8431273  36.3158178  53.2796288  53.6992407  36.4181566
  53.8800955  52.7770376  35.3789425  74.6376657  42.7981520  34.1155171
  73.7455225  42.4883842  34.2715859  75.1015997  42.0319939  33.7778902
  10.9809673  52.4266291   9.2718387  10.9937191  52.8629827  10.1236975
  11.7823696  52.7217579   8.8395363  54.0954828  57.1825886  23.4914827
  54.0477562  57.7012777  22.6884174  54.0183544  57.8252649  24.1966438
  10.8971071  54.7023821  43.2271290  11.7411423  54.7778034  43.6722660
  10.2762532  55.1302099  43.8168192  77.4785328  21.8667507  46.6962910
  76.8321657  22.2316074  46.0918760  77.8543901  22.6302338  47.1345377
  22.5226426  70.7220745  62.1095467  21.7953467  70.1032495  62.0437288
  22.8436089  70.6200314  63.0055380  28.3023119  44.7365761  21.6301870
  27.9695916  45.6270885  21.7420554  27.5191116  44.1862822  21.6319513
  69.9270582  56.3641310  16.6594219  69.8282194  55.6324387  16.0502505
  69.1611767  56.9151783  16.4981532  60.2786684  46.7448187  20.8928013
  60.9713173  47.2319651  20.4465294  59.7565794  47.4173212  21.3302970
  41.7068672  59.0508413   9.0858817  40.9559965  58.5137129   9.3386972
  41.3885212  59.5776653   8.3528435  39.2128897  16.8370759  57.3060322
  38.5891366  16.1199558  57.4196196  39.0176773  17.4401724  58.0232477
  62.9185581  21.9575906  55.2085638  62.0751715  21.5584397  54.9950171
  62.7261829  22.8910685  55.2971220  76.0437441  69.9414635  31.6681480
  76.0904408  69.7155285  32.5971293  75.1845741  70.3503752  31.5639973
  15.1087368  15.8975291  45.1428938  14.7238111  15.0489843  45.3620672
  16.0456002  15.7207179  45.0577116  69.7881413  67.9824257   1.8693681
  70.6516266  67.7385807   1.5359485  69.7711229  68.9378786   1.8141437
  74.9162197  57.0282364  58.9015388  75.2787828  57.2687578  59.7541380
  74.7411013  57.8650379  58.4710407  26.5377951  48.0980110   5.9549069
  25.6947756  47.9553795   6.3852632  26.3550544  48.7530804   5.2813190
  18.1743228  34.9402142  62.9320002  19.0676451  35.2200937  62.7323151
  17.6223516  35.4773211  62.3636055  58.7843800  15.2372932  56.7087460
  59.3849754  14.5196474  56.5074968  59.0383291  15.9377885  56.1078739
  57.4629831  17.9339314  60.8452129  57.5730324  17.3893738  61.6246843
  57.1733046  18.7810791  61.1838198  71.6055107  74.3792152  15.5319297
  71.2501383  73.5589218  15.1897991  71.4120674  74.3516827  16.4689744
  68.7570620   1.3721107  24.1009402  68.2105684   1.3575318  23.3152127
  68.2878828   0.8231535  24.7292328  75.8314180  57.8792334  13.0221725
  75.4817963  57.0622873  12.6663828  76.7377234  57.9056311  12.7153337
  64.2672729  41.4819384  46.9483566  64.8190975  40.9618044  47.5324631
  64.6425247  41.3441372  46.0786295  34.3348479  43.3040810   1.5766551
  34.7322273  42.7015352   0.9479567  34.3562818  44.1551828   1.1391656
  58.0480433  54.5093060  23.9940596  58.9119196  54.9151182  23.9215112
  57.4330902  55.2371788  23.9031076  65.0955963  47.0465660  17.1270823
  65.8279991  46.4390516  17.0234489  65.0833702  47.5482512  16.3119769
  22.3847938  21.4695954  32.7376485  21.6257024  21.7199516  32.2110248
  22.0611215  21.4673209  33.6384606  73.1857694  43.3712775   0.6780241
  72.9367889  42.7533514  -0.0092938  73.9466727  42.9693980   1.0972498
  22.5770259  16.3518977   1.2142476  21.7442703  16.2258744   1.6690722
  23.2134390  16.4943743   1.9148973  78.2400656   0.4074369   7.3650002
  78.8656187   0.9772623   6.9175458  77.6441813   0.1170297   6.6744798
  73.5418272  52.1193790   6.9056183  73.2791996  51.2290621   6.6719729
  72.8382969  52.6732254   6.5671927   5.6599987   9.9806207  46.7531395
   5.5068064  10.1625574  47.6803160   6.2847555   9.2554259  46.7513990
  56.7254591  24.0992284  37.9740882  57.5770283  24.1666579  38.4059572
  56.9143248  23.6750364  37.1370554  64.0727520  20.1591873  11.0670388
  64.4628334  20.2297044  11.9382989  64.1495419  19.2313600  10.8446169
  28.0688095  10.2238584  60.3905964  28.4749794   9.4346488  60.7489347
  28.2099438  10.1581609  59.4461441  43.6042404  63.7198067  35.4301190
  42.7274895  64.0606928  35.6071210  44.0075684  63.6359835  36.2941384
  77.2624445  55.4299974  10.3696990  77.9229975  54.7480774  10.4916739
  76.4734125  54.9551725  10.1085424  32.3654485  45.5561876  18.6027265
  32.3080659  44.6984386  18.1817687  31.5292573  45.9772348  18.4033978
  12.0034528  25.0033450  19.4397688  11.7228603  24.4710517  20.1841903
  11.2781668  24.9464250  18.8177145  20.1139617  14.9632585  41.8285513
  20.0278211  14.0404296  42.0677090  20.3832173  15.3964722  42.6385260
  16.1708140  16.0877717  39.3044758  16.0062480  16.0133111  40.2444792
  16.9127595  15.5046034  39.1442800  27.1893287  11.2651074  51.5107584
  27.8483105  10.7102728  51.0934687  27.2076750  11.0069954  52.4323177
  41.5289831   1.7861241  56.6731215  42.3584509   2.0801726  57.0496178
  41.7562675   0.9988998  56.1782932  24.0948462   6.7468834  23.3281922
  23.8046384   7.4533665  22.7512240  23.7397075   6.9775486  24.1866207
  78.2066011  53.8799667  18.4138107  78.8184309  53.1721163  18.6159122
  77.6829100  53.9782381  19.2089999  58.9261627  19.1920578   3.1571311
  59.4590998  19.6159780   2.4844506  58.2873106  19.8579562   3.4114575
  71.8333817  57.6810408   8.1041074  71.5128136  58.1462145   8.8768172
  71.1049414  57.1167517   7.8449094  77.1633434  47.1913195  30.2682209
  76.7166185  46.3996077  30.5679822  76.8673420  47.8753281  30.8688450
  69.5441246  45.2682209  49.9206972  69.5440817  44.5627737  50.5676746
  69.9483633  44.8810625  49.1442156  65.3545141  32.8575087   4.9772739
  64.6381903  32.2410226   4.8254299  65.2107668  33.5541749   4.3367845
  76.5874338  64.3458843  16.7385292  76.9112968  63.4761333  16.9727910
  77.1143150  64.9473810  17.2646737  21.5948606  10.8954227  46.7194510
  22.4082518  10.8864057  46.2149286  21.6911149  11.6379654  47.3157692
   8.6656344  57.9323387  21.2997317   8.9627588  58.8296890  21.4504480
   7.7465433  57.9362679  21.5671039  78.4008503  35.1904821  45.2485085
  77.4514914  35.1056623  45.1604509  78.6538649  35.7901263  44.5466232
  42.8599501  60.7955980  23.5172915  42.0437431  60.5227470  23.9363241
  42.9152441  61.7354870  23.6898828  15.4558051  62.4825001  50.4250669
  15.1014102  63.3668947  50.3329277  15.6626499  62.4031782  51.3562775
  75.2725649  52.6229572  17.3309195  75.9908581  52.6896286  17.9600811
  75.6682730  52.8533602  16.4903474  47.8508043  29.4279909  37.9003906
  47.6451254  28.7048221  38.4928036  47.0430946  29.5704794  37.4069047
  71.3232613  51.8846846  19.6554196  72.2418356  51.7976332  19.4007134
  71.2565470  51.4026117  20.4796696  74.2209482  30.5440402  52.7936220
  73.6569691  30.9830785  53.4303331  73.9225912  29.6345305  52.7964258
  30.8982539  19.4500887   6.0547221  31.5601015  20.0673532   6.3664532
  30.2761960  19.3799627   6.7788476  10.0961232  42.3861504  54.9415350
  10.5896771  42.3271084  55.7595491   9.3136543  41.8566465  55.0951576
  14.0462148  75.1300129  15.8403838  13.4918439  75.1872028  15.0621593
  14.6741044  74.4368153  15.6367576   1.3840128  21.1970997   0.6753037
   0.5362193  21.0629749   1.0989647   1.2608066  20.8702135  -0.2158746
  49.6427441  12.8201866  13.9954484  50.3933048  12.8779197  13.4042108
  49.3544054  13.7262487  14.1056502  20.6363773  36.4812970  62.7943516
  20.3153419  36.9762659  62.0405769  21.4418173  36.9306111  63.0505085
  69.3940353  14.2213595  30.4003024  69.5069218  14.3138075  31.3463163
  68.5470009  13.7866151  30.3015184  53.2693624  11.1051571  39.1676998
  53.9384508  11.4348006  38.5677934  53.4740639  11.5195894  40.0058985
  30.3317785  28.5209274   5.1151031  30.3612399  27.5927424   4.8830792
  31.2179041  28.8391614   4.9426508  14.1988957  18.2622385  45.6177139
  13.2463074  18.2696414  45.5241585  14.4467568  17.3492014  45.4722452
  25.1150250  26.9101667   2.0890585  25.4965353  26.6796994   1.2419661
  24.3448186  27.4346495   1.8701240  57.9595900  12.1326447  38.3899927
  57.5932503  11.6503918  37.6487374  58.8076401  12.4464333  38.0760098
  18.6738658  68.2137489  21.2506652  17.7354276  68.0252743  21.2441421
  18.7697351  68.9311123  21.8771076  73.8880014  13.5731328  42.6530218
  74.7244549  13.9161444  42.3385096  73.6452579  12.9070175  42.0099068
  64.4265366  32.0248127   1.0320884  64.2389154  31.6740489   0.1614595
  64.3210936  32.9714012   0.9367733  14.6095753  20.8752847  20.5460930
  13.9768326  21.3753676  21.0616374  14.9007034  21.4845800  19.8676848
  61.7576456  73.2263565  46.3135529  61.4288044  73.1619167  47.2101784
  62.5656128  73.7337828  46.3906527  79.2837906  44.1433525  24.8302507
  78.6314869  44.8432398  24.8600507  80.1221466  44.6000910  24.7610903
  57.4196291   9.3064380  47.1070576  57.3993540   9.4317555  46.1583138
  57.6905632  10.1559532  47.4551296  45.5606461  64.3317938  33.6859965
  45.4437256  65.2802896  33.7400532  45.0066805  63.9820242  34.3838596
  73.9298344   7.2396541  41.4351034  74.4389677   6.5949482  40.9438086
  73.9895201   8.0399591  40.9133959  68.1429148  10.0975060   7.1899790
  68.0502367  11.0462201   7.2770637  67.3647547   9.7405374   7.6180822
  66.7422295  33.1745911   7.3704630  67.3433304  33.8615322   7.0823264
  66.3003778  32.8916788   6.5698642  42.9334450  70.8460522  54.8523569
  43.1575823  71.6343164  54.3577576  43.0685806  71.0911417  55.7677269
  42.0581150  72.7330637  22.8206897  41.1865616  73.1235313  22.8852034
  41.9048405  71.7912626  22.8965259  10.0237131  28.2057047   0.9612241
  10.4168200  28.1870890   0.0886688  10.7665694  28.3058858   1.5565068
  34.7877717  19.8842072  -0.1877415  34.6620560  20.5530524   0.4853649
  34.2059565  19.1700959   0.0725855  75.5127096  32.4035764  49.0058184
  76.0698652  33.0708432  48.6051178  75.3029728  31.8047380  48.2891369
  11.6142678  19.5442736  18.1876338  11.5325618  20.4531693  18.4765351
  12.5575566  19.4016409  18.1095767  52.0369911  14.7170639  56.0282946
  52.2731400  14.1657495  55.2822924  52.8750134  15.0258088  56.3727188
  35.5386615  73.7301970  30.1782727  36.4448786  73.6188316  30.4656768
  35.1714325  74.3712521  30.7868958  68.3805895   7.3923236  56.5251112
  68.5551023   6.5592885  56.9630909  67.7627754   7.1716362  55.8280897
  13.2496321  54.3331480  40.8166409  12.4284828  54.6674633  40.4558372
  13.7600732  55.1176405  41.0172606  12.2796249  58.8866425   8.4238154
  11.9116473  58.1742287   7.9010433  11.5218568  59.2871046   8.8500202
  57.6325941  49.2098522  60.6200409  56.8863010  49.6829414  60.2519798
  57.3106623  48.3176756  60.7489157  27.5514412  71.3188744  42.8892517
  27.2124600  71.5297079  43.7592411  27.9564571  70.4577208  42.9922342
  70.8025265  23.0869675  42.1323633  69.9527788  23.2251453  41.7139578
  70.7159901  22.2441053  42.5777054  58.2939720  14.9465692  16.5342402
  57.8335333  15.7754564  16.4031935  58.9583349  15.1434314  17.1946204
  30.1948547  13.2669580  11.6550219  30.2885437  14.1817427  11.3892698
  30.0014496  12.8000009  10.8421409  18.4153247  73.6178446  11.1500096
  19.3352652  73.3988285  11.0017824  18.3734024  73.8629580  12.0743430
  50.6217527  35.9716201  18.8748479  49.9305820  36.4165449  18.3843803
  50.2212667  35.1511478  19.1623628  70.2332497  20.5455446  14.1638803
  69.6942711  19.8092234  13.8748026  69.6160173  21.1428404  14.5863712
  61.0473347  49.6820402   5.7184362  60.5201054  50.4489374   5.9423333
  60.4598045  48.9390039   5.8560318  65.2128983  13.5796440  19.8752046
  64.9452591  14.1065419  20.6281853  64.8278761  12.7182865  20.0366163
  78.8935041  17.2894013  39.5343137  78.9251471  18.2460678  39.5387721
  78.8368416  17.0559478  38.6077499  38.3540940  21.4534926  36.3089705
  37.8782248  21.7334342  37.0908999  37.7586532  20.8452058  35.8711720
  42.4059057  22.4721432  24.8524618  41.5271044  22.4799919  24.4731474
  42.4927235  21.6001964  25.2376890  75.6627846  11.1014843  26.4117360
  75.3066826  10.2302861  26.5862036  76.3779879  10.9486330  25.7941961
  43.7920046  23.0332255  43.1831503  43.5981274  23.8826036  42.7866650
  44.6959114  23.1119728  43.4880781  69.3267488  23.2364750  57.8582239
  68.9372921  22.5744700  57.2869921  70.1718235  23.4340549  57.4544382
  73.6243057  32.7263665  51.0681105  74.0744257  32.0241046  51.5376282
  74.2773342  33.0601239  50.4529715  63.2360935   1.7097993  35.4360700
  63.5701942   2.2594091  36.1449671  62.2844696   1.7469853  35.5323339
  72.8194904   9.2191613  39.2573643  72.4220848  10.0316215  38.9439797
  72.9598808   8.7001806  38.4654164  36.7828560  65.3750658  52.3123407
  35.9835219  65.8424282  52.5549698  36.5482187  64.8957443  51.5177155
  68.6662054  50.3132534  61.0030651  68.2254171  49.4648981  61.0502386
  68.1346989  50.8257866  60.3939342  36.2228155   6.5283054  40.7619476
  37.1628499   6.5152985  40.9419489  36.1530566   6.8907905  39.8787880
  70.4845667  42.2316313  21.6289234  71.0170126  42.8204870  22.1637011
  70.1630878  42.7817249  20.9145832  12.4097228   3.6900011  17.1890604
  11.7098999   4.3322393  17.0706975  13.0065262   4.0988636  17.8158689
  40.4423857   3.3555877  33.2789040  39.9275923   2.8770670  32.6291060
  40.5281448   2.7465066  34.0123177  64.8919487  30.0367117  48.4237957
  65.6588984  29.9039459  48.9809275  64.9243736  29.3151259  47.7957058
  47.9044485  53.4411049  47.1215963  48.8103676  53.7431145  47.1873713
  47.5179434  53.6564970  47.9703903   1.1288644  40.5403376  22.0248318
   0.6756816  40.0739336  21.3224602   0.5999929  41.3245201  22.1717477
  64.6749449  33.8791919  34.1531181  63.8683128  34.3277144  33.8993406
  64.7111845  33.1108642  33.5833883  10.8878326  72.1789503  65.1317883
  11.0598087  72.0028496  64.2067766  10.0275552  72.5985813  65.1398039
  59.8491192   9.0261012  19.0950942  60.4991150   8.5029286  19.5641685
  60.3646421   9.6732134  18.6137283   4.0451247  52.1484900  45.3692389
   4.5805129  52.9334307  45.4852724   3.2199329  52.4726057  45.0083542
  57.0419931  14.9754071  21.6688538  57.2972441  15.8581805  21.9367909
  56.2474060  15.1027715  21.1505508  49.7048616   8.1435257  10.5689812
  50.0586224   8.4463471   9.7326899  48.9713049   8.7324029  10.7460499
  59.4850111   9.5478910  26.1747336  59.2241335  10.3989196  26.5267658
  59.5346880   8.9766747  26.9412041  67.8777599  10.2732635  50.9457064
  67.5911665   9.7697985  50.1837254  68.0281258   9.6154863  51.6246414
   8.8632417  66.9953060  55.5934668   8.8929462  66.7355490  54.6726656
   7.9479170  66.8757010  55.8466578  52.2783422   2.9789972  23.4896803
  51.4960003   2.9230207  22.9410100  52.5238800   3.9037859  23.4630680
  58.4056807  17.7703178  35.4419065  58.2359934  18.3050227  34.6663237
  57.6993847  17.1242869  35.4466438   7.7610493   7.9148287  47.5199127
   7.7044642   8.0064380  48.4710407   8.0426532   7.0103312  47.3827457
  67.8185749  18.4169436   6.4355028  67.0874310  18.2402456   5.8435255
  67.5936890  19.2488050   6.8522346  60.6862879  13.8717234  24.7841263
  59.9663019  13.8497508  24.1537523  60.7904530  14.7992325  24.9965119
  21.1174822   2.0526962  34.1419983  21.5211058   1.2584147  34.4919062
  20.3378725   1.7422877  33.6814690   4.9881014  22.9350567  24.2576218
   4.0752116  22.7628446  24.0269566   5.4182333  23.1079245  23.4201646
  66.9410229   0.9543041  33.4465480  67.6603222   0.7876105  34.0556908
  66.8697977   1.9083409  33.4153605  63.8885069  19.1965985  24.1438460
  63.5585070  19.8306596  24.7804761  63.1645632  19.0750229  23.5295534
   1.0368038  25.8738852  19.1897690   0.3478365  25.4708719  18.6614358
   1.7657000  25.2550483  19.1452432  43.2674885  27.2111297  30.0680184
  43.0793190  27.4198055  29.1529894  42.5150061  26.6939998  30.3553796
  52.7431440  69.3450928  19.1040444  52.5393248  68.4116316  19.1618061
  52.2139788  69.6609116  18.3716011  61.3779640  60.6645918  35.1989746
  60.5107212  60.3931379  35.4997063  61.9761992  60.3475094  35.8755898
  73.4309244   8.7088585  31.9247103  74.3711710   8.8116282  31.7777443
  73.2816553   7.7649736  31.8696499  61.4319992   3.4977472   5.5865830
  61.6450214   4.2561561   5.0428277  62.0382357   3.5546988   6.3251406
  78.9037037   3.2614502  26.9900942  78.4410381   3.1822655  27.8243017
  78.9685011   2.3631436  26.6659355  53.5400105  23.8447905   6.1162949
  53.3909130  24.7413158   5.8158863  53.9700985  23.4132218   5.3780508
   1.8466881  13.3156586  19.2045236   0.9294158  13.1940007  18.9594877
   1.8445243  14.0938485  19.7618806  69.6761990  29.9893045  10.2327025
  69.3837023  30.8986473  10.1712918  69.9988174  29.7817349   9.3557400
  60.7868958  50.4587841  51.2405348  61.3362122  51.2221289  51.4188242
  60.8212423  49.9452353  52.0475769  52.8055954  50.1881409   9.9549836
  53.1515884  49.3430519   9.6680319  52.5797653  50.6425571   9.1433567
  32.6363921   7.6638430  35.5201101  33.2389164   7.9591602  36.2027383
  33.1264329   6.9957924  35.0407338  57.8386402  22.3640847  51.0960913
  57.9751778  22.7916574  50.2506495  57.4370670  23.0387545  51.6436195
  72.4361324  20.1514578  17.3447227  71.6983032  19.5601332  17.4936283
  72.0942974  20.8147192  16.7451715  24.5297623  53.4646749   5.5639774
  23.7028933  52.9944992   5.4569656  24.6824622  53.8772249   4.7138500
  71.5429831  50.1974535  60.4963446  70.8573151  50.8643913  60.5322313
  72.0472097  50.4142857  59.7121429  48.7630129  13.7925506  27.2735786
  49.0303040  13.2210445  27.9934192  47.9247284  14.1579175  27.5564408
  74.3433619  69.8464394   7.9256648  73.6034536  70.4535389   7.9115510
  74.0283537  69.0966225   8.4304166  63.1945848  69.8065138  18.2275605
  62.8063059  70.0595284  19.0650868  62.6120186  69.1265631  17.8891575
  67.5174141  60.5212355  47.2871494  66.6098642  60.5966043  46.9923449
  68.0333185  60.8928108  46.5716028  64.0254593  29.3608475  13.3074307
  64.0029240  28.6150098  13.9069712  63.2609415  29.2388415  12.7445269
  18.4995019  53.2652617  59.7386360  18.1087899  52.4731255  59.3697214
  19.1862118  52.9438686  60.3228998  58.3325005  30.1469874  12.4566758
  57.5554419  30.2938771  11.9173861  58.1345320  30.5826068  13.2856965
  24.0021682  61.6728973   4.8896062  23.8496280  62.5194502   4.4697168
  24.8102856  61.7948532   5.3879112  70.5639029  30.1030231  33.3970833
  69.7708702  30.0165105  32.8680754  71.2099504  30.4806614  32.8002214
  72.6047897  18.2571578  33.8082218  72.0151424  19.0085280  33.8713670
  73.0835342  18.3964038  32.9911232  44.3683147  29.5022988  26.4769459
  45.1019096  29.4239187  25.8670878  43.9371300  30.3201485  26.2290883
  52.3594236  72.1670628  30.8354807  52.5388622  72.2132778  31.7745757
  51.6264486  72.7680016  30.7018328  16.0675299  40.8877277   7.5608140
  16.1436987  40.0852680   8.0770379  16.0806751  40.5895948   6.6513216
  56.5700245  24.3426943  15.3392613  57.2302485  25.0271392  15.4482043
  55.7646894  24.7299695  15.6823099  71.8623352  63.3868885  59.3032694
  72.2785091  63.1327438  58.4795952  72.4051476  62.9831362  59.9804497
  17.7558649   5.6618559  33.2550550  17.3753881   6.5391928  33.2132196
  17.2688758   5.1582450  32.6027894  56.5015221  36.0382938   7.2444499
  56.9669151  35.2554297   7.5390059  56.3061333  35.8682752   6.3229573
  15.3174210  66.8058729   2.6515996  15.2572262  65.8553743   2.5558856
  14.9121416  67.1527719   1.8568398  54.2976475  10.5429292  29.7203422
  54.7693491  10.3353453  30.5269647  54.9336529  10.3831244  29.0230680
  53.4038591  24.6864867  63.3804512  54.1856623  25.2382255  63.3558941
  53.5875940  24.0409899  64.0629530  29.0513062  29.0887713  60.8223724
  28.1342196  29.3298244  60.9530544  29.0636301  28.1358767  60.9122133
  46.0988951  34.2256165  10.4775751  46.1947966  35.0519037  10.9511614
  46.5262270  33.5775709  11.0376239   3.5155901   3.3923081  14.9374068
   3.8891774   3.7094074  14.1151464   3.8638791   3.9853433  15.6031668
   4.2957267  48.7833309  14.5730519   4.8064190  47.9805231  14.4685483
   4.7791645  49.2916584  15.2242982  41.3127947  10.2263236  23.7459064
  41.3010693   9.6177685  24.4846582  40.9494400   9.7243977  23.0163360
  51.9486046  31.1260509  41.3074255  52.6697063  31.7103124  41.0731506
  52.3659754  30.2771187  41.4535332   2.7861986  33.8702607   7.0631331
   1.9703075  34.1245174   7.4943018   3.0964074  33.1155086   7.5634849
   5.1277673  19.3371499   5.8644462   5.7311887  18.6590266   5.5606973
   5.6463110  19.8644471   6.4721477   1.7136924  30.5538654  10.6671000
   1.4930397  30.6527781  11.5932536   1.8812099  29.6176052  10.5594623
  74.4069242  20.1526713  24.8781037  75.2168655  19.7523332  24.5619488
  74.5812654  20.3515744  25.7980347  37.9891515   5.7318634  50.1654577
  38.7465072   6.3125211  50.2395010  37.3059177   6.2777948  49.7763824
  52.8240061  23.9651990  13.1531084  52.7040339  24.2188168  12.2379482
  52.2736073  23.1895113  13.2608116  62.7833462  31.1371398  40.3038311
  62.1083021  30.5537820  39.9570727  62.2957754  31.8641019  40.6911707
  18.7367213  34.4071269  26.1360931  18.5113382  35.0993085  26.7576385
  17.9040384  34.1727781  25.7262731  63.3851957  31.4853001   3.5473004
  63.8033390  31.4224911   2.6885551  62.9991817  30.6210089   3.6895278
  67.8293419  17.5809300  56.5963602  67.5637436  18.4900939  56.7346001
  67.0612192  17.0666027  56.8447256  59.0079498   7.6749891  37.5636220
  58.6613226   6.7874038  37.6545882  58.8972330   7.8814030  36.6355228
  58.7625885  22.5490189  12.0347452  59.6510220  22.2526598  12.2324574
  58.2038212  22.0383787  12.6206255  58.9628553  55.5153465   1.4376350
  58.1387377  55.2092028   1.8162316  59.5107937  54.7318649   1.3912781
  79.4064045  39.8710680  19.8424149  79.1608715  39.2258286  19.1793835
  78.5957956  40.3456926  20.0264835  58.5074949  61.9609261  23.8784909
  58.5021496  62.4014854  24.7282600  57.7957726  62.3743725  23.3898759
  30.8176327  30.4823303  15.7326496  31.0237265  29.7820950  16.3518643
  30.9294629  31.2883592  16.2366772  42.6781880  11.0963821  64.8195697
  42.8489386  11.9599485  65.1955132  43.0746304  11.1314964  63.9490339
  78.1978798  45.0401211  52.2711325  77.9885054  44.2547655  52.7767086
  77.9143381  45.7657003  52.8273439  55.6150675  10.0165558  18.9883411
  55.3236437  10.6021190  19.6872103  55.5894899  10.5557418  18.1978619
  48.2880878  38.2577777  12.7013671  47.7897882  38.1529808  13.5118902
  48.7967014  37.4503255  12.6268017  77.1956682  52.3897886  22.7147889
  77.0080471  52.8238487  23.5470295  77.1046782  51.4562464  22.9056954
  19.9751770  29.6520853  31.4780784  19.3083847  29.3476772  32.0936704
  19.8701203  29.0871811  30.7125187  75.6650972   2.8194359  52.5899887
  76.4873743   2.9556516  53.0606651  74.9904776   2.8685150  53.2672739
  61.1106873   9.6569318   7.8870761  61.0140276  10.3261948   8.5645545
  60.8777428  10.1042664   7.0735276   7.5086516   5.3303468   2.8502455
   7.3240519   4.8277989   3.6437190   7.0448595   6.1579430   2.9775715
  49.3724251   5.1164573  33.1834769  48.4735060   5.4225504  33.0631328
  49.8350620   5.4188603  32.4019718  74.0238285  23.8393235  20.6292534
  74.0871096  23.1489635  21.2892771  74.7845650  23.7015581  20.0648665
   9.8601025  10.5965495  22.6691151   9.8780245  11.2965226  22.0164680
   9.4284034   9.8664397  22.2254848  75.9465551  17.1842444  22.1169567
  76.3623476  17.9461730  22.5204587  76.2279129  16.4446139  22.6554871
  66.7360449  73.8124609  48.2029200  66.2227774  73.0893326  48.5632992
  66.8146753  73.6091852  47.2708607   4.0401396  55.1631927   6.2762529
   4.2725512  55.8531809   6.8976486   3.1067964  55.0114727   6.4248586
  20.1068950  58.6198425   0.9492028  20.6462407  58.4695292   0.1728357
  19.9295032  57.7434969   1.2909383  57.8573036  57.4955702  26.8637562
  56.9455767  57.5912380  27.1391344  57.9046869  57.9584980  26.0272861
  65.1772118  45.2016735  26.2543750  65.9970379  45.5017376  25.8618426
  64.5168781  45.3589392  25.5795026   0.3353399  47.1810055  18.1527936
  -0.5636460  47.4465322  18.3465958   0.2981609  46.2256575  18.1062961
   2.1995781  17.9752719  35.7685614   2.7358723  17.9799342  34.9757195
   2.4352327  18.7847137  36.2218857  48.6515903  24.0533042  64.6737814
  48.5074949  23.1311512  64.4614077  48.9653540  24.0446377  65.5780506
  22.9123950  49.3227482   2.9917321  23.1358719  48.9291143   3.8351434
  23.2691026  48.7165642   2.3424754  31.6942358  23.8355327  31.0905790
  31.9184470  23.6611485  30.1764965  31.1229110  23.1091094  31.3398337
  76.8900776   3.6168683  10.7843935  77.5153542   3.2734889  10.1461542
  77.1811152   3.2570833  11.6222978   8.9382255  74.1120434   4.9657962
   8.6532480  73.5014915   4.2859074   8.1270415  74.3997383   5.3846556
  14.8713040  13.3530581  21.6444826  14.9131036  12.4072647  21.5031981
  14.1585875  13.6485851  21.0779738  57.5863028  40.9700823  10.9439588
  58.4608507  41.3560534  10.8946931  57.1282291  41.3162613  10.1780856
  58.9728928  36.1863589   3.1927398  58.0905390  36.4825845   2.9692796
  58.9360476  36.0121298   4.1332284  56.6729403  18.9515984  11.7842352
  57.0338297  19.5640707  12.4252272  56.4347363  19.4999647  11.0367167
   6.1372644  44.3258381  16.5359628   6.3811517  43.4950304  16.1279035
   6.6554350  44.3589401  17.3400986   2.9403019   1.6934724  34.5603776
   2.7014679   1.1776952  33.7902045   2.2026950   1.5834957  35.1604366
  69.4671535  28.9669490  21.6241646  69.9401140  29.7928333  21.7264295
  68.6498260  29.2111802  21.1899352  21.4611316  32.2009182  51.9000101
  22.2256494  31.6566396  51.7115831  21.7272258  33.0842590  51.6447878
  69.8513889  35.7365417  33.6564255  69.1292524  36.0838103  33.1328225
  70.5562019  35.5905795  33.0254221   3.1260109  27.3053169  22.0593715
   2.3619804  26.7318726  21.9989538   3.1819662  27.5327754  22.9874682
  58.9481068  35.2325630  43.4648848  59.2810965  35.7537627  42.7343369
  59.7321367  34.9597192  43.9414167  28.8473868  41.5349293   5.9820950
  29.7288370  41.1767197   5.8773828  28.6466479  41.4098501   6.9096136
  59.7330284  32.5274706  36.8761015  59.6440697  33.1257343  37.6179886
  60.3430271  32.9683518  36.2846947  11.8247664  67.0176506  60.6946087
  11.9920480  67.8176832  61.1928034  11.6500568  67.3221493  59.8041058
  39.9809003  26.2428308  26.9924784  40.5918741  26.9140768  27.2964025
  40.5048943  25.6843424  26.4182377   9.3848938  26.2824249  10.9739387
   9.7388619  25.8614326  11.7573321   9.4795585  27.2199297  11.1423266
  75.3445435  24.6777678  35.2155662  75.6992197  24.2787337  36.0100532
  75.8865976  24.3270612  34.5088720  10.3928196  39.6715140  52.5148439
  11.0892987  39.1164756  52.1640158  10.6870925  39.8958397  53.3976316
  70.3724098  48.9698792   5.3033817  70.1840925  49.6197224   4.6262789
  70.6728077  48.2003355   4.8198581  67.6034927  51.1653280  20.1250386
  68.1777716  51.9305563  20.1543093  66.9389820  51.3389206  20.7917595
  18.8578558  62.7248859  55.5017471  18.6456645  62.9469347  54.5951557
  18.3674181  61.9208002  55.6724787   0.6576787  40.5891085  62.6912403
   0.8493998  39.9379683  63.3661413  -0.2944707  40.6845951  62.7141523
   3.2930729  38.1217670  15.8861125   3.5015985  38.1899357  16.8178332
   3.6958849  37.2984743  15.6101346   1.2270998  28.7721300  20.0039721
   0.9755100  28.7507915  20.9272718   1.1857615  27.8579450  19.7232771
  68.1315708  31.9580889  13.4837627  67.4729681  31.3112807  13.2305479
  68.9441490  31.6387606  13.0913651  79.1166162  28.3359528  26.8315887
  79.4710588  27.8859377  26.0647202  78.2130480  28.0263948  26.8945742
   4.0269405  27.8302217  19.5833850   3.9094099  26.9054246  19.3662000
   3.6588776  27.9184270  20.4625797  69.9114990  21.2744427  39.0738630
  70.7910156  21.6409802  39.1651130  70.0568628  20.3655887  38.8110232
  69.6425867  39.5569229  53.8519287  69.2216825  38.7464452  53.5652304
  69.9940920  39.3508577  54.7180796  55.8157253   3.0445576   5.6107658
  56.5906811   3.5468340   5.8625466  55.8819962   2.9627860   4.6593702
  74.5540714  30.7777405  22.4790502  74.6557808  29.8836875  22.8054810
  74.7419024  30.7136488  21.5426517  47.1261215  69.1739607  58.0477715
  46.3088989  68.7359571  58.2855272  47.1948338  69.9034882  58.6636496
  38.1325054  36.5930080  63.0487347  37.3826575  37.1847630  62.9872036
  38.2558799  36.2691474  62.1564770  76.3456726  43.8626719  26.6060901
  77.0252752  43.6981678  27.2597814  76.3567543  44.8118210  26.4827013
   1.9997351  51.4864588  35.6954503   1.6497836  51.2009621  36.5394020
   2.9497439  51.4657068  35.8107090   9.5964092  35.4086637  26.6212296
   9.6052063  36.2180853  26.1103606   8.7853557  35.4538178  27.1275759
  25.0481391   8.4887183  40.6519556  25.5861592   7.7651608  40.3306580
  25.6797791   9.1551071  40.9224987   9.8728180  66.7700481  38.4265327
   9.9728763  66.0483265  39.0472913  10.0257087  67.5577688  38.9484048
  59.0826178  46.0296249  18.1877565  59.4299936  46.8977547  18.3924949
  59.6232510  45.4283905  18.7000680  53.9876270  46.4390802  12.0350194
  53.9193916  46.7937756  11.1485839  53.1127357  46.1007404  12.2256160
  25.3669143  15.9986115  26.9049621  25.2050352  15.1547253  27.3267245
  26.1844420  15.8727157  26.4232683  68.8986826  33.9290285  15.1109791
  68.7655210  33.2214260  14.4802654  68.0617809  34.3931913  15.1304197
  24.6963072  21.2251163  26.3674068  25.0403476  21.5945435  25.5541468
  25.1435757  20.3835130  26.4562201   3.6975089   8.8599312  43.7581158
   4.4745147   8.5412198  43.2988548   2.9626119   8.5515773  43.2279491
  68.3777332  58.9804220  28.4151435  68.3520126  58.2087326  28.9808846
  68.7304497  59.6742344  28.9723229  51.9693232  70.1397943  35.7552791
  51.9979763  69.1871929  35.6660295  52.5595665  70.3298998  36.4844608
  14.3048501  72.0153284  47.2778416  14.2833018  72.0480967  48.2342386
  14.8671961  71.2673807  47.0764256  58.4325361  13.4592414  23.3296204
  57.8829336  13.8707900  22.6626897  58.0944061  12.5666189  23.4012055
  69.5859861  31.6500878  37.4342084  69.0538692  32.0255637  36.7327118
  70.0206232  32.4031806  37.8344274   4.7000113  59.8999643   7.1141911
   5.0281733  60.2459526   7.9441524   4.7735021  58.9499140   7.2049505
  77.6039886  35.5906177  29.7927046  78.3044624  34.9995089  29.5167303
  76.8231440  35.0379419  29.8252869  63.4749222  44.2507124  22.5581408
  63.4994888  44.6980953  23.4039998  63.4878111  44.9575901  21.9128561
  23.1320786  39.0978408   1.9693479  22.1895432  39.0733981   1.8042351
  23.4199476  39.9288821   1.5915483  53.0903149  38.3700800   6.8258846
  53.1302500  37.4698925   7.1488363  53.7993717  38.8207626   7.2845334
  29.0914965  36.6538763   9.9373621  29.1290116  37.5905871  10.1307416
  29.8036194  36.5092301   9.3143111   1.8684840  66.4344645  33.8867712
   2.5514790  66.2002468  33.2583690   1.1740203  65.7932472  33.7358046
  52.1316051  29.2085361  59.7597551  51.7819262  30.0959396  59.8401976
  51.4073133  28.6408949  60.0232220   1.9711101  60.3696251   8.1172299
   1.7278253  61.1177635   7.5719464   2.8914684  60.2100754   7.9081434
  24.5386696  49.1855478  24.2349672  24.6638918  49.1749430  23.2860541
  24.7487783  48.2944345  24.5142579   9.8393989  46.1754608  23.7789893
  10.2946699  45.3626490  23.9987564   9.4646752  46.4718914  24.6084118
  20.8308554  53.5119152  61.7256117  21.3883781  53.9695692  61.0963631
  20.7466054  52.6266432  61.3714409  38.2203269  69.6963215  16.4614809
  39.1728330  69.6506023  16.5443790  38.0689788  69.8747587  15.5333185
   4.4254419  37.4788666  48.5448408   5.1770723  38.0201507  48.7862825
   3.8125405  38.0892396  48.1349277  73.4048939  23.3043385  26.0081244
  73.8157988  22.5858498  26.4889216  72.4697685  23.1007600  26.0262609
  60.9764814  33.3992553  45.1448870  61.3967371  32.6238322  45.5168247
  61.1311960  33.3270001  44.2030430  79.3608937  13.4013820   5.4955286
  79.4210122  14.3173993   5.2243668  79.9173503  12.9308581   4.8748875
  52.4804783  51.3885069   3.8624024  52.4808693  52.2269535   3.4006208
  52.9141092  50.7834482   3.2606539   9.5761085  28.9066553  31.1234784
   9.4289011  28.1745481  30.5246615   9.5193422  28.5174441  31.9961309
  15.6979907  71.2390995  20.6759882  15.5910444  72.1339893  20.9984183
  15.0683343  71.1660814  19.9587488  71.1233521  35.1730490   2.9692429
  70.9769297  34.6171808   3.7346196  71.1610126  36.0619020   3.3224526
  69.5114136  55.5550766  25.7316184  69.5403004  54.8631811  25.0708008
  68.6115932  55.8798885  25.6991267  28.0741072  49.8079348  16.5395761
  28.9319539  49.8643827  16.9604564  28.2601476  49.4804430  15.6595922
   9.8456711  30.7176805  45.4812336   9.9823105  31.6621971  45.5550575
   9.0230590  30.5577993  45.9438133  68.1413174  47.9222631  38.9430380
  67.3143530  48.3919859  38.8347960  68.4216118  48.1329060  39.8337102
   4.5783979  59.2916298  58.4871435   3.6500168  59.0585232  58.4883499
   4.9182427  58.9174509  57.6742935  74.6980476  26.7932820   6.5063828
  75.4617739  27.3660231   6.5765184  74.1258001  27.0683479   7.2226948
  44.0343523  16.5395880   0.6227674  43.3758307  16.8396807  -0.0037535
  43.8927841  15.5949640   0.6850323  69.1874456  51.4870930   0.4843748
  68.7643528  51.7554522  -0.3312286  68.6853361  51.9266891   1.1705770
   5.4805619  34.2797065   6.2758857   4.5401630  34.2048645   6.4380008
   5.7228100  33.4423733   5.8803809   6.9102180  35.3542185   8.2163668
   6.3894290  34.9668789   7.5128210   6.4362556  36.1510539   8.4543741
   8.6443508  61.0464334   7.4435347   8.4542060  60.1725864   7.1022606
   9.5403010  60.9845018   7.7746999  61.9609833  18.9953208  41.2277842
  61.5707874  18.2560003  41.6940260  61.5005732  19.0194023  40.3889322
  57.3363209  26.2407017   8.5291708  57.4122667  25.8382416   9.3943238
  57.7927303  27.0778418   8.6135405  64.6570778  40.2117634  41.7054701
  64.8185539  41.1025476  41.3945723  65.2402020  39.6649408  41.1789894
  73.5881090  34.4185400  53.8684225  73.6153555  35.1699901  54.4607162
  74.2792177  34.5921373  53.2293129  67.1043634  30.8667374  57.0718002
  66.3061619  31.3557243  56.8718052  66.9393921  29.9883866  56.7289925
   8.8009387  36.8507934  44.6867609   9.2581487  37.2688961  45.4164076
   7.9146099  37.2105503  44.7217989  11.6734767  30.7843804  64.0222311
  11.6976929  31.5669107  64.5729494  11.1318326  30.1644468  64.5106363
  28.6466503  29.7875285  64.1549253  27.9315162  29.6427822  63.5353565
  29.2749214  29.0915155  63.9623833  59.4132948  52.9661369  12.0013344
  60.0834036  53.3346319  12.5770044  59.7879934  52.1400404  11.6957176
  28.1730771   5.9305513   4.0513024  28.5614538   5.1147485   3.7352934
  28.7747431   6.2348169   4.7307527  23.3592129  11.4828253  16.0804355
  22.6198792  11.6688359  16.6592431  24.0065312  12.1543992  16.2953675
  23.0193210  65.5879927  14.3938422  23.4129095  65.6898403  13.5272706
  23.1336069  66.4420509  14.8106837  53.2442522  17.1829557  28.5485291
  54.0689611  17.3099470  28.0795288  52.6134729  17.7253008  28.0750179
  24.8559642  10.3308594  10.1974511  25.7705784  10.5808473  10.3286839
  24.7326779  10.3628469   9.2487633  77.6271486   2.0859537  63.3957100
  78.1023216   2.7560121  62.9043198  77.0413685   2.5799134  63.9693785
  70.1475668  11.0505342  36.7213726  70.7774210  11.7595458  36.5916967
  70.1832914  10.8671463  37.6601624   6.1256379  68.5941315  49.7616386
   5.9435815  68.1343746  50.5812168   6.8682408  68.1236458  49.3829393
  62.7835131  72.7026606  20.1371384  62.2785854  73.4633541  20.4245901
  62.8182793  72.7844954  19.1840780  70.5953074  51.5240049  55.2049923
  70.7403946  52.4300003  54.9323130  69.8510504  51.2317657  54.6787691
  19.6192408  39.7446823  55.5339813  18.8215709  40.0208950  55.9852648
  20.1446795  39.3220806  56.2133598  63.3367729  11.1781108  20.3028226
  62.4565363  11.4037359  20.0019741  63.3845758  10.2264929  20.2113342
  73.8873100   1.6128188  64.9532366  74.1589212   1.5610000  64.0368414
  73.2184315   0.9340876  65.0435448  70.8734179  34.7044444  17.0791292
  70.0812721  34.7069669  16.5417922  71.5578222  35.0369716  16.4984000
  24.3433243   0.0534776  63.4326077  25.0717074   0.6723312  63.3805895
  24.4704157  -0.3963563  64.2679119  62.9642677  28.2792354  28.2867956
  62.4196768  27.5211692  28.4989142  63.6545706  27.9283190  27.7241516
   5.6222159  65.6646967   3.0664641   6.0394651  66.0610819   2.3016024
   6.1317378  64.8717165   3.2332033  69.7158241  66.1398745   8.8203210
  69.8833132  66.9085073   8.2749927  70.3264141  65.4781199   8.4955275
  -0.2764020  65.1921654  57.4314547   0.5454927  64.7073269  57.5066376
  -0.0156942  66.0584927  57.1188354  54.0412283  64.4411612  59.4012928
  54.2347336  63.9235115  58.6197424  54.8957968  64.7515392  59.7006369
  44.8216963  54.9177265   2.8688022  44.0032196  54.9231625   3.3650839
  44.7444391  54.1610289   2.2877118  67.7210855   6.4600402   5.4826808
  67.1572781   7.2089040   5.6764770  67.1895647   5.6959361   5.7059753
  62.6051188  49.4818020  48.0246973  61.9811153  49.0326118  48.5948563
  63.4631109  49.2576075  48.3849907  18.8012326  18.5776901   3.5387257
  18.1372797  18.5919774   4.2280692  19.3753445  17.8488767   3.7742180
  55.6929827  59.9309063  14.1549861  55.6084824  60.8240271  13.8211834
  56.0472536  60.0376701  15.0377798   7.5306422  60.9227324  64.7574663
   7.6282507  60.5019617  65.6116676   6.7837024  60.4789114  64.3558025
  77.5532484  12.0937741   0.3779246  77.1601486  12.0091450   1.2465685
  77.0340967  12.7715397  -0.0549118  13.1206656  22.1165061  25.5885625
  12.5117135  22.3443389  24.8860645  13.7450719  22.8417206  25.6088543
  72.7418470   5.2814388   2.3215707  72.6649857   4.3578672   2.5610271
  72.1305799   5.7316917   2.9045466  69.4260693   0.7858995  45.2738905
  70.1612234   0.2219375  45.5141544  69.5964193   1.6093257  45.7312536
  73.6309767  72.4275017  50.0931120  74.0344334  72.7439356  50.9013939
  72.7495861  72.8006935  50.1033211  71.2323570  44.4590473  32.7246737
  70.3260088  44.6709490  32.9479623  71.4479923  43.7116671  33.2824826
  65.1316023  72.2996378  38.9384127  66.0843658  72.3243284  39.0270710
  64.9126101  71.3682127  38.9653325  76.3158464  46.6982794  33.4629560
  75.5730772  47.2970629  33.5402822  76.8867254  46.9289160  34.1958523
  38.0174708   3.6053666  25.6018138  38.0154562   2.6902649  25.3210711
  38.8461065   3.7106648  26.0692620  14.2545140  54.2015934  46.7382336
  13.4978795  53.7857008  46.3249969  14.6941447  54.6627855  46.0239077
  18.7477517   6.7709428  38.3375263  18.0913115   6.2564802  37.8677964
  19.1779315   6.1403608  38.9150572  62.7761078  14.1103137   2.9851383
  63.2301617  13.3367467   3.3192900  63.4748030  14.6715105   2.6488101
  48.1956911  19.6823812  39.7771358  48.5276842  20.5795574  39.7441316
  48.9701033  19.1465950  39.9487615  17.7433991  29.8171997  53.9427042
  17.4541533  29.3873429  54.7475576  18.6650980  29.5729852  53.8586617
  27.9340887  39.0407109   7.7574432  27.2163892  38.8027596   7.1704876
  27.7363825  39.9379253   8.0260503   5.3659940  11.0294259  25.8974314
   6.1838168  11.1798418  25.4233289   5.0883758  10.1549220  25.6246614
   7.4418366  60.3670883  44.7697639   6.5876186  60.0981998  44.4317675
   7.3081303  61.2657452  45.0710535  15.8864856  68.4254646  35.7807207
  14.9715078  68.1564713  35.6989288  16.3580775  67.8594685  35.1695895
  17.0762300  56.7526388  63.7271547  17.1656418  55.8029222  63.6479092
  16.4744401  56.9960785  63.0237198   8.7825865  46.4850903  39.4024730
   9.3946767  45.9744215  39.9323750   8.0616426  45.8820200  39.2214131
  79.3196440  27.0145607  24.4162369  79.7146082  26.1852646  24.1469741
  78.4075785  26.7949224  24.6062946  19.0051854  60.4342079  36.9481635
  19.6423304  59.7202826  36.9239044  18.7438917  60.4909134  37.8672624
  24.1908979  57.3214769  14.2963576  23.8732505  58.1984043  14.0811253
  24.1648555  57.2852850  15.2525187  18.6855030  62.9950237   5.9981608
  18.3779836  62.1991825   6.4320916  19.5026445  62.7353334   5.5726367
   4.2980120  58.9422226  49.9829435   4.5974553  59.7338581  49.5358706
   4.9439606  58.2758760  49.7484970  18.6926329  47.8287840  52.3046827
  18.0960464  47.8144550  51.5562820  19.0572083  48.7138319  52.3034573
  54.3287992   2.2476749  16.6470814  53.9438677   2.0156661  15.8019590
  53.9222813   1.6443402  17.2691453  36.9673610  25.6445336   0.7415419
  36.5180516  26.2519360   1.3292642  36.3493657  24.9229550   0.6247495
  11.4228940  64.7888660  25.9653544  12.0475733  64.4194698  26.5894961
  11.6697133  65.7111549  25.8968568  30.7001829  45.2602434  22.9246020
  29.9024415  45.0962639  22.4216580  31.0196519  44.3886137  23.1578994
  66.2886477   5.8806252   8.7892604  66.7261696   5.8918691   7.9379773
  65.3863859   5.6295061   8.5915357  10.9950507  49.5761013  38.1247759
  11.4241695  49.0500832  38.7996054  10.7894611  48.9516592  37.4290442
  58.2863283  70.0156212   0.8182180  58.3400011  70.2462912  -0.1092210
  58.2219887  70.8565855   1.2708525  40.2555656  29.0776467   1.3235006
  40.1025343  28.7252140   0.4467996  41.2065554  29.1693592   1.3821401
  24.1335583  50.4808521  42.2027493  24.8418331  50.7912827  41.6386461
  24.4840074  50.5556393  43.0903435  45.7071638  31.8271923  21.5525579
  44.8639441  31.4862585  21.8508506  45.6789780  32.7590799  21.7694044
  75.5809069  60.6218719  48.4572935  74.7404432  60.5274582  48.9055586
  76.0985279  59.8754215  48.7591410  68.4684944  18.9021027  10.6253779
  68.1675673  19.0376616  11.5238750  68.2123518  19.7006679  10.1639485
  13.9615631  36.1680913  35.0148296  13.4150863  35.5531621  34.5254898
  13.5775197  37.0260382  34.8340869  55.6288052  69.1351700  18.6937165
  54.9110460  69.6872711  19.0039396  55.1997709  68.3406782  18.3759975
  76.9091940  65.5708933  59.0427828  76.5066671  66.0526657  58.3202124
  77.7057934  65.1964760  58.6666584  61.6135168  73.2853985  52.7916098
  61.9580030  72.7622890  52.0677853  61.7553043  72.7432585  53.5676336
  79.0235329  43.4304762  61.9500494  78.5971737  44.2867804  61.9846153
  79.5412302  43.4529972  61.1452389  66.7475271  24.5436263   9.3700141
  65.8415222  24.6789837   9.0924090  67.1451521  25.4130101   9.3220681
  70.3242445  43.9697838  25.0120735  71.0419798  43.3424950  25.0992370
  70.0308514  44.1243362  25.9099984  59.4669580  12.6113772  41.9163513
  59.3602514  13.3298910  42.5397158  59.9152899  13.0072546  41.1690140
  62.6427174  27.4699187  10.6237519  62.2177076  27.5442815  11.4781916
  63.0686712  26.6129088  10.6418955  74.2278433  12.2889936   1.2599455
  73.3784533  12.5796890   0.9278750  74.8576355  12.5950003   0.6072981
  67.1581745  10.5997968   0.7121532  66.7528152  11.4484382   0.8902594
  67.9569435  10.8124804   0.2294899  75.9147692  73.5415840  59.3227625
  75.9918785  72.8560495  59.9863338  75.7603025  74.3428898  59.8230410
  51.5576506  67.3660803  15.4290915  52.4684143  67.5749397  15.2214313
  51.4953089  66.4187622  15.3068948  14.4739509  66.2737846  61.7220783
  13.7196004  65.6924534  61.8182039  15.2331579  65.6971931  61.8079805
  69.7797203  47.6672888  46.0122633  69.7378397  48.4519434  46.5588856
  70.7145691  47.4740791  45.9418249  13.6507213  55.2598810  44.0758991
  13.2863021  56.1335611  43.9340734  14.4312334  55.2331877  43.5224390
   7.9091465  61.9023705  48.0247402   7.6458526  62.5178337  48.7089252
   8.8445801  62.0650148  47.9033232  14.9385405  62.4780369   8.0678332
  15.0407338  62.3760462   9.0140820  15.1092148  61.6055393   7.7130765
   0.3163162  16.4378202  44.2548180  -0.1250234  16.6453338  43.4311724
   0.2096171  15.4915559  44.3519306  46.9718170  26.8497968  39.4262767
  46.0958624  26.4789701  39.3193626  47.5046349  26.1190343  39.7398424
  76.7438602   7.8104216  14.5603597  75.9867048   8.1337559  15.0486279
  77.4857569   8.2977909  14.9185359  26.9374681  57.3942089  59.2002249
  27.6231813  58.0393219  59.3730164  26.1767530  57.9159021  58.9445257
  50.4074144  39.0929604  59.2143869  49.6041012  39.6117663  59.2563009
  50.7252121  39.2154074  58.3198214  64.4630671  33.8228631  48.2535791
  65.2043915  33.8740897  48.8569403  64.8338366  33.4607792  47.4488068
  62.1656275  58.2819128   2.2454497  63.0154610  57.8441954   2.1962555
  62.3767519  59.2155409   2.2457479  68.6307955  26.8890238   1.9992885
  68.7496758  27.6976085   1.5010008  69.4699001  26.4348698   1.9226077
  57.1706390  51.7255545   5.1852494  56.4883137  51.2272882   5.6351328
  57.0418167  51.5250444   4.2581940  68.8938570  53.3878469   8.5709530
  68.8687801  52.6985836   7.9072386  68.3963537  53.0303526   9.3064260
   4.1031462  48.4793997   6.1788696   4.3466741  49.2343473   5.6431645
   3.7393019  47.8507328   5.5554724  71.8850374  28.4850144  23.5179210
  71.5682316  27.7695227  22.9666162  71.3878155  29.2495561  23.2272696
  63.7179899   4.6083444  62.4450445  62.7752161   4.4427887  62.4440050
  63.7936115   5.5625319  62.4388123  43.3983660  74.4117117  20.9732699
  43.0289078  75.1339054  20.4651713  42.6622438  73.8160658  21.1131215
  68.1272840  54.6109724  49.7296143  67.5023985  55.1568460  50.2068710
  67.5996590  54.1679859  49.0650797  28.3032179  69.7030020  34.4766808
  28.2446861  69.7344589  35.4315710  27.4792075  70.0842237  34.1735220
  60.9523630  65.1417303  15.0784743  60.1587391  65.5898190  14.7858858
  61.6690540  65.6681108  14.7242022  10.8231246  20.6423354   7.1522218
  11.2581706  21.4942241   7.1168381  10.8838022  20.3803849   8.0708790
  78.8381338   6.0136956  54.6285200  78.5323286   5.9196442  53.7263727
  79.4975185   6.7063105  54.5869255  45.8352327  20.2489710   4.1869336
  46.0936928  19.9822497   5.0691414  45.7951927  21.2044668   4.2276713
  19.7775543  69.5245934  52.7513552  20.3629589  69.5986223  53.5050488
  18.9392138  69.8637676  53.0650091   1.2798841  52.3365879  44.4683361
   1.0671403  53.2698393  44.4644928   1.6426444  52.1700478  43.5983324
   8.5830289  44.2708921  52.2957802   8.1703001  44.1778421  51.4371586
   8.4117371  43.4380388  52.7353859   7.7264863  23.1675625  51.8628788
   8.2835096  22.8755093  51.1413097   7.8976846  22.5412989  52.5662422
  21.0073447   8.0229342  16.2598145  21.1348057   7.7275562  17.1613336
  20.4408050   8.7905848  16.3371253  46.8873882  12.3714089   6.7674482
  46.9265413  11.6396821   7.3833013  46.2092495  12.1205330   6.1402160
  58.8190699  59.3490791   6.6654277  59.0691471  60.1808023   6.2630296
  59.6481514  58.9562273   6.9384253   8.9523673  22.1585846   5.8294278
   9.2204189  21.5762734   5.1185876   9.2046392  21.6941881   6.6275048
  77.6387215  31.6036177  22.0866275  77.6673031  30.7024145  21.7653036
  77.9544497  31.5464783  22.9884505  73.7350845  71.5895653  59.5327568
  73.1445360  70.8425188  59.6297264  73.9778185  71.5843821  58.6068583
  17.2909451  31.3727427  10.0833130  17.2646880  32.0662713  10.7425261
  18.1747544  31.4218879   9.7190338  56.3478756  73.6820650  23.2595658
  56.9345713  74.4054937  23.4801698  55.9825230  73.9212036  22.4077654
  16.6187632  74.6550322  36.0870767  17.4514544  74.1852283  36.0407972
  16.7704439  75.3486300  36.7290664  56.2753391  41.2768459   8.5304904
  56.2412500  40.3605747   8.2556868  56.6732216  41.7343855   7.7898318
  21.4848804  13.3334541  55.5359983  20.9458447  14.0470850  55.1948214
  21.0270786  13.0436516  56.3250923  27.4122763  67.7252579  44.4395542
  27.0259619  67.5789595  43.5760784  28.2454538  67.2548437  44.4120073
  41.7011452  10.3123927  42.3362255  40.7673407  10.5208862  42.3083115
  42.0215321  10.7531095  43.1232166  75.8308554  23.8355255  18.7735534
  75.2915239  23.5708356  18.0283749  76.1745501  24.6943164  18.5274160
   7.5241482  75.1004183  34.7633123   7.2593772  74.2146028  34.5154023
   8.4769308  75.1001481  34.6714664  50.6091595  31.3661098  58.2365656
  50.6007004  31.5918899  59.1667175  50.1319075  32.0793605  57.8126192
  77.7126217  43.7721205  30.5866385  78.1924343  44.0673590  31.3604927
  77.4892235  42.8609324  30.7765245  74.8105860  52.3665857  61.6815901
  74.3023252  52.4169540  60.8720446  74.8160791  53.2630348  62.0171165
  14.8243380  74.3479347  39.4134641  15.2263486  75.1318455  39.0391564
  15.3521705  73.6239481  39.0766144  79.2010307   3.2980070  12.9314649
  79.2809820   3.3101168  13.8852429  80.0656319   3.5601828  12.6152897
  64.8344803  41.3975763  13.6805522  65.5752325  42.0028353  13.6461830
  64.5364714  41.3319969  12.7732921   6.9346100  53.2778072  62.6505518
   7.4516487  52.6790142  62.1117115   6.0253692  53.0627728  62.4425268
  15.2877235  30.2843332  13.8237560  15.1620424  30.9547162  14.4953394
  16.2130773  30.3516650  13.5883439   4.6428737  35.5213547  64.6360445
   5.1061666  35.0442934  63.9475632   3.7161985  35.4028821  64.4275522
  72.8141356  12.6707244   8.0248296  72.6807356  12.9111719   7.1079755
  71.9889641  12.8965473   8.4541643  53.6563826   6.3430732  40.9292507
  52.8394461   6.6620958  41.3127518  53.9191866   7.0316368  40.3184748
  63.9694309  27.6082873   6.6924560  64.5634460  27.6436329   7.4422079
  63.1344366  27.3208499   7.0617759  37.0383477  29.3261981  59.3322992
  36.6943622  28.4354043  59.2660189  36.5941882  29.8070455  58.6339140
  21.1100483  70.6888533  39.4641566  21.4347458  71.4290857  39.9768543
  21.6569042  69.9515009  39.7352481  34.0665960  26.0160232   1.6036540
  33.6764908  25.9424901   2.4746551  34.2094445  26.9548702   1.4836796
   5.5428290  56.4531469  33.0142736   6.1476880  55.8168411  32.6328397
   5.6890190  57.2541142  32.5109744  72.3428106  40.2063894  58.6962843
  71.5743971  40.7767344  58.6743259  71.9887304  39.3340349  58.8690853
  52.4997711  31.2549376   2.5536007  52.6148462  32.1006107   2.9869881
  53.0827999  31.2930584   1.7954062  52.3021555  54.6527910  39.9311066
  52.5579500  55.5370951  39.6687961  52.2174311  54.1735458  39.1068625
  35.5844450  45.4735327  64.4633722  35.1494789  44.8410654  63.8915062
  36.1900806  45.9402084  63.8874817   6.5419948  60.2936649  54.2523766
   6.7173934  60.3091908  55.1932430   5.6711107  60.6810904  54.1646671
  77.7356434  57.5433922  44.0271950  78.6481476  57.4789286  44.3089867
  77.7553654  57.3157454  43.0976677  51.0265827  59.2704296  31.6983390
  50.9556198  59.0654421  32.6306343  51.6800261  59.9685860  31.6556692
  56.1738539  23.3298087  24.1181493  56.5311432  22.5322795  23.7276053
  55.2721882  23.3694625  23.7993145  10.0517451  74.8921871  47.8069735
  10.3732597  74.2265224  47.1989012  10.5594098  75.6754829  47.5949383
  33.7537169   9.4076806  15.5071938  33.1740689   9.7678518  16.1783993
  34.1795635  10.1736927  15.1223421  69.0652227  42.5057077   3.7869772
  68.9731836  42.0093489   4.6002358  68.7143278  41.9255781   3.1112894
  21.7951226   0.4124488  19.7949123  21.2058139   0.0807415  20.4723477
  21.2217712   0.8767990  19.1850936  32.2869754  67.4042702  63.2456923
  32.5032353  66.9166517  64.0404844  32.6318955  68.2832575  63.4026575
  47.7214289  28.4989071  64.2378902  47.6095915  27.7296662  63.6793280
  48.5598326  28.8723636  63.9661598  31.6584516  13.3649337  48.0264330
  30.9193802  12.9335332  47.5975990  32.1226454  12.6570082  48.4731960
   7.7504790  70.0337601  29.8291206   7.9848599  69.1492081  30.1099563
   7.0673764  70.3064299  30.4416990  49.1590118  35.2623272  12.8848505
  49.9831676  34.8934412  13.2025421  48.4858656  34.8382497  13.4170723
   4.6050802  26.4649510  16.1323678   4.8158577  27.3788786  16.3235247
   5.4149354  26.1024308  15.7732773  14.4279981  40.7055521  52.6025915
  14.1865504  41.4188242  53.1935024  15.3256083  40.9070539  52.3381519
  16.3052988  38.5511446  18.7486708  16.0191655  38.1760430  17.9158092
  16.9476008  39.2171001  18.5033441  39.4259548  19.7952044  57.0216084
  38.5720491  20.1763844  57.2260094  39.7322035  19.4337869  57.8533649
  13.7227333  50.2844048  38.2152939  14.1348457  50.3452206  37.3534966
  12.7847481  50.3542423  38.0377030  31.2126780   0.5599732  48.5541439
  30.4737997   0.1651813  48.0910778  31.9866252   0.2073122  48.1149769
  31.4048100  15.4924965  26.9991159  31.4182711  15.1208699  26.1171055
  31.1646938  16.4098883  26.8688464  32.1301198   6.4708287  54.1435337
  32.1321797   7.4275637  54.1137505  31.2952280   6.2206805  53.7477875
  33.6832762  56.3849783  60.2079725  33.6017990  56.2643003  59.2619133
  34.3589425  57.0557880  60.3065491  75.1081514  37.1262765  32.8664851
  74.8531342  36.3383746  32.3864770  74.5870733  37.8259206  32.4725223
  20.3747725  60.8734655  40.5311680  21.0388947  61.5466976  40.6792688
  19.7451305  61.2843704  39.9387646  71.5258646  61.4630795  53.1766653
  71.2505627  62.1916246  52.6201916  71.4319229  60.6889296  52.6215935
  26.3064003  73.3213663  16.3308764  26.1100531  72.7307415  17.0580900
  26.3075423  74.1938639  16.7245483  60.5232000   8.6495310  63.7783337
  61.4444160   8.3906502  63.8023281  60.2973461   8.8162225  64.6934509
  74.8004055  17.4010372  16.0883605  74.3908691  16.9908237  16.8500924
  75.4103613  16.7406225  15.7596707  24.9920273   3.8412338  40.3944063
  24.0874410   3.5327405  40.3416204  24.9226832   4.7949791  40.3520632
   6.2125003  69.8156023  54.9379301   6.0755748  70.6428051  55.3996897
   5.3384596  69.5568180  54.6458435   5.2956057  41.1528826  10.2834642
   6.1922640  40.8277035  10.2028739   5.1079261  41.5510559   9.4334841
   9.4949323  44.4260502  -0.0608330  10.1202214  44.2309427   0.6371477
   8.6368543  44.3241358   0.3509286  76.9201183  63.6282539  51.7107391
  76.4053440  64.2335796  51.1770535  77.5684500  63.2676077  51.1058998
  22.6264071  73.5121489  55.2787447  23.4885240  73.9168978  55.3744745
  22.6051927  73.2052994  54.3723059  23.5061359  70.5050373  59.5888472
  23.0450106  70.6157780  60.4203129  23.8492799  71.3756275  59.3874693
  77.0494938  47.0204115  44.5426846  76.8478155  47.0296526  43.6070156
  77.6857948  46.3124704  44.6435595  67.4784851  30.5900049   6.6754222
  67.3462772  30.0986242   5.8646834  66.7451525  31.2044644   6.7053682
  20.4677415  55.7234430  39.4386578  19.6080983  55.5747795  39.0447760
  20.4979110  55.1213074  40.1821327  39.2282987  12.8288305  54.3238115
  39.1984105  11.8932307  54.1238308  40.1557970  13.0573511  54.2624855
  20.8701587  40.3806734  20.0432992  19.9919844  40.0017405  20.0051618
  20.9939885  40.6059170  20.9653425  45.9670782  20.0814366  27.8469896
  45.8699322  21.0283136  27.7459002  46.8550396  19.9665523  28.1854606
  15.2303576  71.2167978  56.9169760  15.5214524  70.3239346  56.7318058
  14.4011271  71.3008356  56.4462900  70.9062290  27.0803666   4.2688134
  70.8114481  28.0084348   4.4831371  70.0337696  26.7120647   4.4081259
  33.8554096  68.8530159  40.8823824  34.2319274  69.0561008  41.7386675
  34.2657757  69.4789934  40.2857351   5.7094467  53.9221382  22.9329014
   4.7761425  53.8326359  23.1256843   5.8288962  53.4558964  22.1055079
  32.0816326  70.0389051  59.9396133  31.5200567  70.5994987  59.4042635
  31.5039420  69.3366241  60.2384520  14.3677592  45.8062363   8.4189558
  13.9646363  45.5417871   9.2458725  13.7738073  46.4674330   8.0636096
   1.3918133   7.4133080  62.6712370   0.9306581   8.0294311  63.2404089
   2.0659924   7.9411304  62.2433138  15.3774691  11.4734221   9.4001412
  14.8481500  12.2451925   9.1990852  16.1843002  11.8272305   9.7744089
  27.4365687  29.7246671  20.0548720  27.7321172  29.7103643  19.1445529
  26.4927626  29.5738888  20.0026679  25.1381063  58.9174271  57.5928688
  25.4324222  58.2300186  56.9953108  25.3442240  59.7342539  57.1383953
   7.3194718  71.8342400  42.3806047   8.2125938  72.1637344  42.2806168
   6.7729884  72.6201057  42.3818493   2.5376004  19.6358109   5.5214107
   2.3493601  20.2513742   4.8129755   3.4933129  19.6080577   5.5669665
  18.0827522  24.1579890   3.9163315  18.4062040  23.5618138   3.2409164
  17.2847855  23.7411857   4.2415321  36.6976094  10.7889724  56.1402082
  36.2304902  10.0082660  56.4377451  36.1022663  11.5128863  56.3344955
  57.9544210  11.6214061   8.2050043  58.3366537  11.9108236   9.0334767
  57.7198792  10.7058084   8.3563429  68.2903337  57.9662752  30.9957576
  69.2149019  58.0285788  31.2356043  67.8346539  58.4791851  31.6632295
  34.2984247  67.3433495   3.1771383  33.6516261  67.3943853   2.4733794
  34.6218181  68.2393932   3.2706675  45.7544743  74.7084645  50.8626747
  46.5250194  75.1093737  50.4604721  45.9146249  73.7667843  50.8008575
  65.1926708  32.0606470  41.1104059  64.9228573  32.0942450  42.0281792
  64.4168329  31.7497087  40.6439066  57.8960323  55.8436728  61.0979986
  58.6158657  55.8333445  61.7288446  58.3267117  55.8440351  60.2431631
  41.1221218  21.5081048  15.2240455  40.2620077  21.9102693  15.3452826
  40.9344864  20.5810618  15.0770259  79.7731876  46.7820263  13.9042032
  79.3751287  47.3916769  14.5255744  79.4164801  47.0395184  13.0540931
  62.0348930  37.3199821  49.2653656  62.9371214  37.0257902  49.3905544
  61.7135954  36.8003607  48.5284853   4.6808240  36.5797710  36.6344476
   5.1709247  37.3831916  36.4596629   5.3356844  35.9681797  36.9711185
  11.1119819  69.7972584  31.4420986  11.8410146  69.7349691  30.8249569
  10.8027697  68.8965988  31.5392184  25.4547691   6.8701094   4.1282934
  25.6726694   7.7498960   4.4360691  26.3025880   6.4469135   3.9928710
  55.0337458  70.7972527  50.8856010  54.5399666  71.5189600  51.2748861
  55.5489922  70.4415607  51.6096449  74.9235630  22.2319937  54.5154095
  74.0855408  21.8237019  54.7327852  74.9365330  22.2574902  53.5586357
   2.8419262  17.0869970   1.4478880   2.0758215  17.3392665   1.9633245
   3.5830551  17.4700451   1.9171788  79.0529728   4.3078601  42.3677444
  79.6124601   4.7566822  41.7338896  78.2242775   4.7858956  42.3364592
  70.5977201  39.7277570  62.1692657  69.7079086  40.0181961  61.9689798
  70.7492256  38.9927936  61.5750360  66.6656065   8.5652214   9.2201746
  67.2500706   8.5855675   9.9779487  66.5531158   7.6339960   9.0293956
  19.7047627  55.8751583  58.2053804  20.5102181  55.5445910  58.6031246
  19.1969776  55.0891352  58.0040073  25.0411534   7.2329956  10.8246589
  25.7355332   7.7043432  10.3643334  24.3539667   7.8864253  10.9551859
  26.1424661  70.5826664  51.7101049  25.4428887  70.8008718  52.3259020
  26.8757176  71.1385632  51.9738388  66.9275331  39.5473099  33.6101604
  66.1284637  39.0738320  33.8415384  66.7924309  39.8153639  32.7012467
  55.7370853   1.2666744   9.2616576  56.2204170   2.0770554   9.1007072
  56.1408854   0.6265453   8.6756426  34.4908309  44.7588968   8.4885371
  35.4456091  44.8126650   8.4468281  34.2661667  45.1421452   9.3364048
   5.6948489  33.5045362  40.5565453   5.6042004  34.4559121  40.5027103
   5.4059684  33.2861733  41.4426041  19.5304203  59.3540287  47.7342415
  19.0370214  60.1453018  47.9502916  20.4100871  59.5203066  48.0730200
  34.8076463  13.3636522  50.6261778  33.8685179  13.3091497  50.8030844
  34.9091053  14.1674888  50.1164865  14.8986876   2.6656020  59.5064211
  14.8890686   2.2360566  58.6510658  15.6285846   3.2828280  59.4562817
   6.1990666  27.1886849  57.2483921   6.0593820  28.1136894  57.0456934
   6.5233654  27.1871567  58.1489801  10.2910268  26.4751029  60.5231810
  10.4808950  26.5122199  61.4606285  11.0905242  26.7935276  60.1040888
  27.5201273  20.3142929  45.1118422  27.9333735  21.1768103  45.0728512
  27.5147510  20.0931668  46.0431337  15.4935932  36.4460564  48.8917828
  15.6739819  36.1853814  47.9886007  15.8421516  37.3350239  48.9586639
  27.4609184  70.4417467   8.7805593  27.2002316  71.2961769   9.1243994
  26.8077755  70.2442980   8.1092548  16.8792832  37.2101164  39.8260260
  17.7328455  37.0359731  40.2226830  16.3422263  36.4573288  40.0732374
  14.2994583  49.9481297  55.5524683  15.0973535  50.2916479  55.1504803
  14.1910017  49.0795040  55.1652241  32.2408128   2.2722054  15.8669758
  31.5163040   1.9736035  15.3172898  32.8258133   1.5166789  15.9234142
  30.0228739  21.4748669  23.9950752  30.0431561  22.0865703  23.2591152
  30.0364280  20.6089878  23.5872746  47.8952408   8.0902410  21.0163236
  47.1585512   8.4140313  21.5346670  48.4332132   8.8652444  20.8545017
  65.4685879  59.2719793   2.7058330  65.4951143  59.9551535   2.0359096
  66.1810684  59.4958544   3.3045703  18.3628988  24.5170665  49.0667343
  17.8012395  24.9059510  49.7372103  17.8548765  23.7806654  48.7263489
  72.3153210  53.2436848  44.5133829  71.9731998  52.3759317  44.7283030
  71.8862152  53.4728861  43.6890221  47.6235437  17.0555127  42.5709391
  46.8607378  16.4773238  42.5783730  47.2545719  17.9386652  42.5593853
   5.5009276  55.6139660  53.6660147   5.8539605  56.4464617  53.9799356
   4.7009000  55.4856634  54.1756487  42.4083900   2.8048468  60.3422928
  41.4657497   2.6773515  60.4490757  42.5321674   3.7510118  60.4176712
  11.3881803  18.8575649  45.1592541  10.7432008  18.6155486  44.4946814
  11.4183903  19.8137343  45.1267052  76.7221832  67.3812437  36.3625097
  76.1262226  66.9397116  36.9675851  76.3034582  67.2923756  35.5063510
  25.2134967  25.1497197   5.1066780  26.0210419  24.6931911   5.3426570
  25.0120878  24.8393178   4.2238879  48.5854292   3.8144693  19.4345558
  48.3637190   4.7334406  19.2843318  47.7399540   3.3782393  19.5399344
   7.0540082  64.8645973  53.9933634   6.8303734  65.4293537  54.7331429
   7.3204112  65.4702282  53.3016491   5.2286357  15.8160532  25.5483389
   5.3724909  16.5337515  26.1651444   6.0118353  15.8125591  24.9980521
  22.7920175  42.3946953  29.3080139  23.1243563  42.1336555  30.1668763
  23.1844640  43.2533598  29.1501999  31.7394400  19.3659568   3.4347376
  31.3527417  18.4982753   3.3171618  31.8071294  19.4714224   4.3836987
  13.5279286  37.4611163  40.5787230  14.1119850  38.1381202  40.2369976
  13.6738789  36.7077541  40.0065565  18.6615837  31.7980862  51.2787962
  19.5557296  31.4702702  51.3750839  18.3902156  31.5020537  50.4099131
  41.2244749  72.6353407  47.0655489  41.7994022  71.9474411  47.4009323
  40.9990358  73.1560469  47.8364372  59.6611881  18.2550263  58.6907101
  59.6088171  19.1339564  58.3152485  58.8172531  17.8546226  58.4817171
  79.3963146  41.2177753  28.0001211  78.9512157  41.1774397  27.1536660
  79.2969942  42.1277905  28.2798338  59.8735332  34.5301414  14.9038815
  60.0650787  33.8028669  15.4960072  60.2595806  35.2948236  15.3310347
  66.3395262  51.8900824  24.6434641  66.6253710  52.7356720  24.2977715
  66.4863539  51.9550991  25.5870986  74.0686560  24.3256783  61.8700981
  74.0893126  25.1391673  61.3660717  73.9060307  24.6060157  62.7707577
  24.2915440  57.5937510   3.2765323  25.0963831  57.8625393   3.7194976
  24.1600800  56.6855860   3.5489053  78.8794518   3.1441510  22.7481747
  78.6518478   2.8714889  21.8593097  78.0572605   3.0851150  23.2347417
  15.7787466  18.5035312  56.8759727  16.6349232  18.8693607  57.0981503
  15.9106588  17.5556850  56.8964434  76.3763523  15.3140461  49.6048117
  76.7128038  16.1146498  49.2022419  76.3692284  15.5025566  50.5432415
  63.1430054  23.6793327  46.5535450  63.1318521  24.4718051  46.0168028
  63.8666582  23.1614137  46.2009573   6.3505757  38.9930677  54.2637825
   6.0861474  38.8182640  53.3605909   5.7255155  39.6483755  54.5737886
  62.6574421  19.5522976  44.5264864  62.3511600  20.1727009  43.8650322
  62.5731754  20.0243855  45.3548956   8.0060279  36.4782977  51.8423843
   8.2818151  37.3813415  51.9995022   8.3118570  36.2852144  50.9561491
  21.9541836   6.5613270  40.0966501  22.2955179   5.9943998  39.4050455
  22.5755835   6.4602530  40.8176756   3.3355173  29.7118974  39.9278903
   4.0952158  29.2946076  40.3340435   2.8746989  28.9962244  39.4900680
  22.9847752  74.5912595  44.9687576  22.5151717  75.4070181  44.7948599
  23.9089524  74.8222948  44.8752069  68.3226919  37.0966578  31.3590622
  68.0351686  37.8746176  31.8369150  67.8952646  36.3677597  31.8087769
  15.1750290  58.3910799  28.9988518  16.0493386  58.7441063  29.1637421
  14.6059453  59.1604757  28.9787126  62.2497034  55.3029490  10.8218706
  61.7997217  56.0964537  11.1118627  62.7341223  55.5737495  10.0419748
  73.5564184  18.7710714  53.3393049  74.1603136  18.2923460  53.9070749
  73.2766581  19.5204997  53.8649702  59.8147392  54.1446495  41.0094929
  60.6702185  54.2608356  40.5961037  59.7333527  54.8895931  41.6050339
  78.4983730  62.3113108  49.8101950  78.8628864  61.5416479  50.2472115
  78.1549215  61.9762421  48.9819431  64.3167591   2.2206952  38.1650138
  64.5469141   3.1320655  37.9842758  63.8293839   2.2554497  38.9881110
  64.3886757  52.4669743  56.7481899  64.0599632  51.7805958  57.3287582
  64.8933983  51.9975090  56.0840416  74.7859812  43.3020687  55.0457239
  75.5857134  43.2129240  54.5273495  75.0736952  43.7122107  55.8613443
  77.8099298  23.2699561   1.0064520  78.0982590  22.5048518   1.5041609
  77.5536585  23.9069009   1.6734277  76.0478878  39.8322105   8.3121413
  76.9281197  39.9607348   8.6655617  76.1075497  40.1331139   7.4054277
  10.7122469  69.4673347   2.5557274  11.3401365  70.1887703   2.5947043
  11.2546122  68.6793756   2.5212443  71.2374735  56.6298342  52.9820156
  71.7129993  56.4225388  52.1775675  71.4536333  57.5453854  53.1588554
   1.9370319  73.5684776  12.6545095   2.6941988  73.0512810  12.3798442
   2.1925862  73.9367247  13.5002732  29.2728257  28.3220553  54.9104071
  28.6072040  28.3038330  55.5980492  29.4745183  27.4005795  54.7478199
   1.9684979  37.1419048  58.9546585   1.6803277  36.2397504  59.0936184
   1.1766338  37.6669049  59.0710926  16.9341028  33.6306357  11.7204618
  16.2955320  33.9001870  11.0603094  16.4648545  33.7038136  12.5515342
  12.8634417  57.8356075  54.8147631  12.7130938  57.0838165  54.2416716
  12.3098910  58.5274076  54.4525099  78.3745146  37.0017314  42.9668570
  78.4045792  36.6607428  42.0729589  77.7384424  37.7160430  42.9294538
  25.8233047   1.0720191  30.3786612  26.5231013   1.1457452  29.7297525
  25.0527501   0.8158140  29.8718715  26.0817766   0.1969717  42.2811604
  26.3231754   0.7202114  43.0454779  26.1911845   0.7919319  41.5393496
   7.7736259  60.0027084  29.0519691   8.6595213  60.0671244  28.6952186
   7.2082263  59.9513292  28.2813120  15.4058099  32.6581144  64.0006638
  14.8318386  33.3581734  63.6896849  15.9411979  33.0706716  64.6784496
  12.9563403  21.0731101  28.0668283  13.5666418  20.3357077  28.0670953
  13.1775057  21.5667725  27.2771358   8.8293380   4.7878399  52.4291515
   9.4825876   4.5150694  53.0734301   8.5459143   3.9724976  52.0154858
  46.6787100  70.5625629   2.0986874  47.0072889  69.7084427   2.3793024
  46.6488123  70.5057096   1.1436453  22.8305817   3.5517612   8.0603337
  23.3680034   3.6512595   8.8461518  22.1752644   4.2460939   8.1288421
   7.1622425  12.0675933  55.0984573   7.3103070  12.5549197  55.9089041
   6.4163780  12.5055814  54.6884775   5.9109223  18.2567632  26.6729307
   6.1141533  18.6347985  27.5285101   6.1507350  18.9394891  26.0463476
   3.4028751  53.0439281  58.0886459   4.0111721  53.0391788  58.8276911
   2.5989634  52.6590204  58.4376526   1.6787142  55.7043219  60.3662682
   1.9105385  56.5783787  60.6801414   0.8284826  55.8198786  59.9420214
  60.2416992  38.1354880  45.4819059  59.4448519  38.5484338  45.1491261
  60.8148909  38.8681555  45.7074785   8.8279539  70.8214808  48.1977701
   9.2447025  70.3510571  48.9197493   8.7829429  71.7293453  48.4977436
  77.6691198   7.7597839   9.7626889  76.7407084   7.5327194   9.7105211
  77.9520655   7.4177235  10.6107271  76.3826466  26.2005210  52.3250246
  76.6330719  25.8420324  53.1764984  77.0721865  26.8315268  52.1186399
  73.7035942  10.3107727   4.7984698  72.8318119  10.1450288   4.4396433
  74.3024588  10.0850928   4.0866685  78.6942911  55.3761387  55.6304312
  78.0344725  55.2694082  56.3156128  78.1938934  55.6212902  54.8521423
  20.6785655  58.0580235  56.2368059  20.5398035  57.4040651  56.9218683
  20.6467938  57.5597954  55.4201078  78.7456417  50.4686451  56.1594582
  79.0339375  51.3657713  56.3276243  77.7939939  50.5338383  56.0798120
   5.6045401   3.8260239  57.6456594   5.3064334   4.3480104  56.9007444
   5.0976473   3.0160558  57.5887060   2.9750437  37.3878121  23.0752945
   2.7505630  38.1938434  23.5402179   2.5402644  36.6952801  23.5728884
  64.0098763  39.6779656  49.7526646  64.1781473  38.9564204  49.1466188
  63.0898952  39.9007010  49.6103334   0.9692618  67.5553751   0.6306598
   0.5605171  67.2673416  -0.1855483   0.3194989  68.1311989   1.0337321
   8.6851680  60.5560064  21.8236184   8.7814415  61.5071297  21.8718457
   7.8615296  60.4221153  21.3546562  64.3367243  21.9870901  42.1423006
  63.4649897  21.6604257  41.9195700  64.2356920  22.3619628  43.0172253
  64.8479366   3.4412283   0.7412492  64.2779875   4.0024269   1.2670259
  65.7349920   3.6923379   0.9987636  18.9149904  47.0221233  60.6753445
  19.0207767  47.9703903  60.5989885  18.0322170  46.8523550  60.3465223
   2.8349558  18.1246257  46.1795235   3.0684698  18.8901889  45.6545305
   2.2860540  17.5956202  45.6006527  18.1147504  29.3172407  46.3680601
  17.4384475  28.8464046  45.8810711  17.8016853  30.2212477  46.3995790
  68.1892824  57.0161438  54.7602415  67.3149920  57.2760677  54.4699144
  68.5397053  56.5010738  54.0335083   6.1371338  45.4900599  35.9471416
   5.9826535  46.2312889  36.5327573   5.2799457  45.0738716  35.8563161
  57.1069288  18.6865568  57.6364994  56.9525146  19.1889799  58.4364748
  56.2921047  18.7687922  57.1409845   8.8350976  38.4689116  64.6776485
   8.7931466  38.0985332  63.7960100   7.9413605  38.7605405  64.8577023
  43.8787956   1.8467383   0.6031892  43.5620803   2.7392677   0.7421587
  43.2646293   1.4700584  -0.0270083  69.2274761  27.5230622  37.5158095
  68.3893824  27.4770451  37.9759312  69.7281981  26.7813230  37.8554130
  53.8500214  16.0892010  38.7511349  53.1363535  15.4960632  38.5164118
  54.6458292  15.5837071  38.5856056  12.8001601   0.3677658   6.3915855
  13.4834773  -0.2995869   6.3287371  12.0443398  -0.0211474   5.9514582
  32.1082401  13.5689807  51.1983109  32.0124292  14.5168018  51.1050987
  31.9429970  13.4016407  52.1261692  46.6279650  58.5755348  10.8881581
  46.6308022  57.9549980  10.1593542  47.4797106  59.0092611  10.8367467
  14.6113265  30.4884863  17.6403475  14.9574518  31.3557529  17.4299192
  14.3431425  30.5535579  18.5569036   1.1979021  57.7851009  64.2334795
   0.5702300  58.5054398  64.2915630   1.7673194  58.0220270  63.5014534
   0.1616183  46.3823938  40.9254169   0.9661032  46.0581207  41.3302422
  -0.3278256  46.7765284  41.6474533  62.8842163  28.9713573  44.2001724
  62.0922279  29.0537190  44.7313976  62.5746298  29.0373206  43.2968235
  76.2472916  39.3672776  36.6174436  75.5842447  38.8380837  36.1740994
  76.3908529  38.9213300  37.4521589  38.6576700  19.5477879  29.3202472
  38.8618922  20.2242827  29.9659109  39.4073415  18.9534068  29.3508148
  10.8640659  72.6679707  53.9050865  10.7798231  73.5640860  53.5793352
  10.1859272  72.1789551  53.4390116   1.7811003  23.2337570  54.6234083
   1.9369951  24.0971351  54.2406464   2.1622941  22.6207209  53.9948273
  63.0153465  33.3379269  51.9477415  62.8993273  32.7787566  51.1795616
  63.1847286  34.2082524  51.5870857  20.5076337  45.1026964  28.5504484
  20.5304480  44.1751003  28.3153391  21.1331892  45.1827288  29.2705226
  55.3264761   7.7835524  38.8316894  54.3743849   7.8611171  38.7705684
  55.4886770   6.8406010  38.8593531  21.9239807   1.0726101  64.0892267
  22.2909951   0.2764285  63.7050056  22.3202467   1.7852011  63.5878134
  49.4036436  52.7547312   6.1923689  49.4332218  52.2028255   5.4108608
  48.5476971  52.5740957   6.5809000  77.5884485  14.5976996  38.9570808
  77.7455235  14.1040361  39.7619748  78.4569311  14.7068596  38.5697126
   5.1615471  42.1691465  34.3896079   4.2753655  42.1392822  34.0290236
   5.0350696  42.1462774  35.3381395  67.5400925  42.0228672  42.7951956
  67.9694271  41.5406752  42.0885181  67.8527021  42.9221201  42.6959467
  30.7654643  50.7313251   0.3069289  31.1272216  51.6039801   0.1525352
  30.0718522  50.8702374   0.9517830  12.9974568  27.8165102  38.8390064
  13.6178160  27.9677558  38.1259060  12.5789440  28.6662936  38.9766574
   7.8988367  22.0688725  27.2001791   8.6620355  21.5158701  27.3673558
   7.4391019  21.6321921  26.4831114  46.2366724  17.2707331  45.7570505
  45.6611729  17.2774148  44.9922037  46.2054586  18.1683123  46.0881233
  59.4854450  27.4506688  54.9556589  59.5312595  26.7976403  54.2573118
  59.3829346  28.2847142  54.4973040  78.2865238  70.6133938  45.6075239
  77.6759386  70.1860714  46.2082005  77.7415371  70.8965921  44.8733473
  12.6530802  38.7733722  34.4193673  11.8640256  38.7290597  33.8793111
  12.5774753  39.6056724  34.8860502  28.6907458  42.0135117  56.6898394
  28.3866906  41.4571619  57.4069548  27.9548430  42.5994253  56.5126801
   3.3693030  33.9899802  47.2754288   4.0961665  34.2276573  47.8511095
   2.8284740  34.7786832  47.2344160   3.5712156  60.7836866  27.8352976
   3.2560879  60.9007072  28.7315297   2.7995765  60.4996634  27.3452592
  12.9181874  38.7400103  51.6191292  12.9369926  38.9163446  50.6784964
  13.5101604  39.3906021  51.9966555  34.2580557   8.8163251  20.4308033
  34.5583081   8.4665573  21.2696981  33.6185169   8.1758338  20.1193690
  55.5976534  28.0623889  57.6298285  56.0854769  28.8629961  57.4367332
  54.6827221  28.2955575  57.4724627  61.0553455  74.2609882  43.8855648
  60.9081745  75.1907301  44.0592194  61.1948538  73.8749695  44.7502947
  17.4649942  64.5147181  33.5748601  16.5231216  64.3488836  33.6149502
  17.8258288  63.7424946  33.1393147  66.3935566  39.3317342  47.5352716
  66.3888788  38.5225797  48.0466223  67.3104191  39.4541907  47.2890902
  26.8263888  18.4811997   0.5548652  26.9300532  17.8627467  -0.1683230
  26.5215826  19.2874897   0.1386672  17.2401190  60.2892303  54.6619320
  17.1134615  59.3794250  54.3927765  17.5871801  60.2295876  55.5520010
  56.8356562  30.5518818  40.0042772  56.0998964  30.7591844  39.4281626
  56.4730930  30.6148648  40.8879137  38.7753606  69.1828394   8.9089757
  39.4635487  69.3384409   8.2621253  38.1268501  68.6525440   8.4458840
  46.1819077  19.7404265  42.5320530  46.7137718  20.5108023  42.7317381
  45.4507065  19.7880089  43.1479359  20.5747771  38.1583333  60.3079796
  20.9457612  39.0249681  60.4739571  19.6558237  38.3270264  60.0998878
  42.9332161  15.4936719  11.6668022  42.7323198  16.4225876  11.7807627
  43.0718946  15.1677644  12.5560629  13.0862498  52.2627068  54.9857807
  12.8883457  52.1267128  54.0591908  13.4480894  51.4263344  55.2786732
  40.3140783  42.1811819   0.5770668  40.7011604  41.5138149   1.1436544
  39.5821691  41.7368793   0.1491236  26.5511703  70.9030581   3.0776075
  26.5940022  70.9520578   4.0325922  26.7982149  71.7791414   2.7815062
  24.4746757  44.2930365  44.4180918  24.1255212  44.8418045  45.1203585
  24.0259695  44.5986414  43.6297369  23.4113097  64.5369101  35.7605290
  23.0859709  64.4862700  36.6593170  23.0049753  63.7926626  35.3164339
  66.1083651  51.0141230  17.7247357  65.1694393  51.1977720  17.7551961
  66.3557816  50.8789825  18.6394775  64.0847731  36.8606353  62.9808712
  63.3509064  37.4605298  63.1142712  64.1845512  36.8119431  62.0301342
  15.9010947  34.9481750  33.2079053  15.5431116  35.4806972  33.9181852
  16.7797554  34.7118735  33.5051394  64.4306564  41.3070536  10.9852576
  64.8551130  41.8676901  10.3358293  63.6558485  40.9666538  10.5380130
  14.1669452   6.5788960  61.3606119  14.4427145   5.8930552  61.9687271
  13.2324409   6.4197570  61.2279081   4.7784811  47.5225401  37.0413899
   4.2047241  47.7424526  36.3074470   4.9304560  48.3570147  37.4849892
  55.6413651  11.4527678  11.1982906  54.7789145  11.7682707  10.9283483
  55.9475946  10.9294832  10.4575956  60.6657410  53.8030910  59.2744827
  61.0155439  53.8790369  58.3867311  60.2077389  54.6303749  59.4230366
  68.7055635  54.3762541  56.7516184  69.4050598  54.5810986  56.1311531
  67.8981972  54.5635176  56.2727356  70.0865078  21.3880324   9.2242575
  70.4795074  21.2304020   8.3658081  69.1520548  21.2273622   9.0930301
  69.2034149  72.3900461  41.2706566  69.2631578  71.5039730  40.9135294
  70.0420475  72.5278234  41.7110538  31.1689353  52.1868038  23.5413647
  31.3798094  51.6965628  22.7467370  30.4718375  52.7862740  23.2750463
  31.9718981   2.0652103  56.6838694  31.4885688   1.5673345  56.0245180
  32.5991058   2.5839356  56.1801147  23.1965518  43.9551067  48.9523745
  22.4930000  44.5935726  49.0690327  22.7562618  43.1705952  48.6254025
  75.9206438   0.7227702  21.0431647  75.9596825   0.2830886  21.8925118
  75.4219007   0.1247065  20.4865623  60.5281544  49.0251160  53.3687305
  60.4975462  48.0688953  53.3381033  60.0645018  49.2539120  54.1742802
  13.2461011  28.2057691  34.3325830  13.3442748  27.8458524  33.4510756
  12.9616535  29.1088891  34.1922426  69.4289875  57.2984171  57.1977282
  69.4006252  56.3425922  57.2404337  68.8194036  57.5249863  56.4953756
  28.6201572  39.9070215   2.8274664  29.5222855  40.0973845   2.5702468
  28.1514001  39.8049212   1.9991711  23.4795618  57.1432114  42.9823065
  24.3580985  57.5044107  43.1003952  22.9047418  57.9085732  42.9763317
  74.6683484  64.3893119  65.0290290  74.7207766  64.8128410  64.1722292
  75.5805664  64.2668172  65.2918751  45.2334404  57.6049614   8.5065919
  44.9818707  58.1564379   7.7657670  44.4044781  57.3746967   8.9261514
  12.4385381  37.2542930  22.7436090  12.6897717  37.2174740  23.6665177
  12.1670020  36.3607931  22.5334716  74.5727825  68.3934259  64.7120047
  75.0287437  67.7701855  64.1464043  74.7339678  68.0736208  65.5996799
  56.6088867  26.1639905   2.3008023  55.8218670  25.6390119   2.4465014
  57.2697210  25.5316591   2.0185126  71.8142653  60.0499964  58.3906078
  71.0470629  59.7735500  58.8918161  71.6110516  60.9439087  58.1151867
  63.2744598  57.3060942  45.5192661  64.1506910  57.6100731  45.7560062
  63.4233809  56.4777851  45.0632381  53.9982605  66.6201258  57.4467134
  53.1713247  66.4380074  57.8930807  54.1977692  65.8125305  56.9731998
  32.8435612  41.3985634  60.4128551  33.3102131  41.8631124  61.1075926
  33.4319568  41.4412880  59.6590662  59.1084528  68.5552120  41.8068504
  60.0244904  68.2872391  41.7340374  58.8908195  68.9019060  40.9415960
  15.2151275  52.2129297  58.5461473  15.6284320  52.8046370  57.9174280
  15.9109128  51.6048813  58.7959337  16.0043120  68.6282778  21.6218543
  15.4092169  69.3632030  21.4735937  15.6801331  68.2152891  22.4222159
  77.1629238  58.8531637  59.5113039  77.2616816  59.4541121  60.2497768
  76.2910986  59.0417051  59.1640139  21.7166448  50.9067249  15.4286945
  21.8197656  51.8044806  15.7443357  22.1934628  50.8883286  14.5989120
  55.5499840  21.1465621  54.0068960  55.1712942  20.8775496  54.8438263
  56.0348797  20.3782988  53.7054300  72.4908876  24.2554426  64.1740799
  71.5794611  24.0705013  64.4006538  72.9140902  24.4374108  65.0131369
  70.5260658  56.6400623  63.0241585  71.0215092  56.4592743  63.8229609
  69.7934246  56.0246944  63.0522871  10.6182969  33.2853079  10.8773875
  10.9605181  34.1269469  11.1786532  10.3596365  32.8310585  11.6792500
  70.1675510  25.8472824  27.9702687  70.5243063  25.0057435  27.6860738
  69.3862772  25.9705687  27.4311519  61.0375500   9.2243606  35.3153944
  61.5497208   8.8721973  34.5874572  60.1348495   8.9771014  35.1148272
   2.3068598  62.0866919  35.4148388   2.9868019  61.7556047  36.0016012
   1.8161805  61.3076115  35.1531124  26.1566234  58.1531906  63.2547283
  25.9395742  57.4004650  63.8047504  25.8747959  57.8972912  62.3764801
   8.6888748  63.4432077  10.8747733   8.6507010  64.3459702  10.5588698
   7.9228264  63.0208683  10.4861474  10.7225108  47.9956532  44.0549660
  11.6450107  48.0305243  44.3079615  10.7386720  47.9085875  43.1018686
   0.4471013  48.1530046  55.8229351  -0.1167487  48.9124346  55.9698200
   1.3198891  48.5241508  55.6936073  76.2356853  30.8077312  38.9084148
  75.3022242  30.9696341  39.0450621  76.5695667  31.6263580  38.5415292
   5.8485729  67.5404692  52.2267628   6.6701078  67.7523422  52.6699638
   5.1853538  68.0451345  52.6976013  23.7930155  33.8299227   2.2744785
  24.5336866  33.7222266   1.6777867  23.6127830  34.7699571   2.2653113
   5.1802129  41.2156677  55.5492306   5.1148266  41.7101526  54.7322607
   4.6186686  41.6903257  56.1620903  54.2428398  66.2004995   3.0742440
  54.9158001  66.3382435   3.7408653  54.2984200  65.2676630   2.8669736
  14.4153690  31.1836243  52.3183537  14.4795501  31.4690018  51.4069414
  14.1334188  30.2705002  52.2641325  34.1960955  17.5598705   3.0942386
  34.0467715  17.5468171   2.1488479  33.6194038  18.2517219   3.4182778
  45.3771973  19.2064881   6.9229114  45.0922489  18.4884739   6.3576752
  44.9158573  19.0589345   7.7485180  15.0727773  57.3524427   3.8041708
  14.5098150  57.9001713   4.3512535  15.7014906  57.9636002   3.4201941
  23.4383941  72.9649448  49.8866701  23.7024570  72.0794868  50.1365995
  22.5051522  73.0045700  50.0957680   5.5850470  25.7081771  33.0544376
   4.8444641  26.3091731  33.1355047   5.3697985  24.9824429  33.6402798
   2.0776138  28.7505913   8.0489272   2.6142851  27.9907966   8.2746047
   1.3000426  28.6670423   8.6008644  44.2089844  73.6165953  24.7183728
  44.6864414  74.3211365  24.2803288  43.4708786  73.4305525  24.1380072
  57.1887636  53.4592533  39.5245266  57.1279478  54.3823195  39.2785978
  58.0679083  53.3666039  39.8916054  35.6725979  20.2440858   9.8432744
  35.4653287  20.5086565  10.7395291  36.6065502  20.0355363   9.8650247
  29.9515772  26.9249821  35.5963802  30.6040740  26.4038897  35.1284671
  30.2920866  26.9901609  36.4885902  35.0942421  52.4658728   6.5739781
  34.3458200  51.9676590   6.9024324  35.7315421  51.7994165   6.3172364
  36.0462141  30.7719564  61.3971519  35.6968784  31.6607475  61.3320017
  36.5790081  30.6656551  60.6090736  66.5772343  18.6691546   2.2212353
  66.6419840  19.6225762   2.1662335  66.1146736  18.4140575   1.4229891
  77.4677467  63.6546373  22.9772305  78.0109882  63.9100266  22.2316432
  76.6709995  64.1767025  22.8830266  78.6720228  40.1342821  45.2909946
  78.0881977  39.8339200  44.5944548  79.0138388  40.9700060  44.9732494
  75.0662470  16.9450223   2.8243262  75.0554514  15.9960794   2.9493213
  74.4587803  17.2803807   3.4836799  75.2309608  44.8772907  45.8103752
  74.9087811  45.4776430  45.1380587  74.5055246  44.8000717  46.4300585
  12.3314548  43.9656115  44.3366289  12.9190040  43.9263296  43.5819912
  12.7953553  43.4909105  45.0263262  73.1506348  54.6915674  46.6433239
  72.7443266  54.3301678  45.8555841  73.2753849  55.6195021  46.4443016
  68.0881643  53.4145260  61.7054129  67.1686077  53.3336878  61.4521933
  68.0719376  53.9496899  62.4988651   5.1796526  70.8862734   3.7378058
   6.0791260  70.6545544   3.9690784   5.1361406  70.7606602   2.7898815
  10.8550417  64.1763067  55.4978561   9.9707514  64.5014954  55.6667233
  10.7290971  63.4389210  54.9006701  67.7373028  46.0474300  17.1627486
  68.5448980  46.5555334  17.0862210  67.9203081  45.4091930  17.8522372
  41.1565208  33.9537024  10.5213356  41.4756107  34.8415709  10.6828940
  40.9750032  33.6021256  11.3929307  15.3705561  55.0579596  51.3266516
  15.5887520  55.9033155  50.9342289  14.9564922  54.5648527  50.6183958
  44.4789410  71.0259151  30.2445912  44.3712759  71.1657238  31.1853862
  44.3996000  71.8997240  29.8619699  65.0530720  66.2203169  32.2211742
  64.3007660  65.9492683  31.6950607  64.6909285  66.8377447  32.8566837
  19.8701644  69.9027395  64.7153902  20.0808668  69.9373579  63.7823105
  19.0662551  70.4156113  64.7985888  45.0904751  15.9868288   3.0482045
  44.7868443  16.5051854   3.7934202  44.6567965  16.3796055   2.2906554
  11.1986828  41.5596914  63.0454636  10.2433777  41.5730906  63.1041527
  11.4903939  41.3555861  63.9339876  58.1190777  12.1957707  35.2988911
  57.9566717  11.6529179  34.5274210  58.1374454  13.0915034  34.9619055
  75.8034563  69.2115688  54.9992895  74.9455738  69.4798565  55.3283596
  76.3606167  69.9789381  55.1294851  67.4804831  36.6177845  48.0526352
  67.8269291  37.1059918  47.3057365  68.2544804  36.3798475  48.5630798
  13.3292842  52.1591568  28.6841774  13.2283974  52.4769115  27.7869129
  13.9410412  52.7742386  29.0887260  16.5380871  28.0739546  52.3057222
  15.6403053  28.3269620  52.5206804  17.0797360  28.7631941  52.6901674
  27.8664303  68.0328417  17.4219191  28.1694579  68.7962008  16.9302952
  28.5598898  67.3831415  17.3068857  62.3036480  46.7249918  55.7156277
  61.4858341  46.2337399  55.7936478  62.0703316  47.6195145  55.9638691
  78.9339256  58.3255434  27.5299311  78.6028862  57.7171803  26.8692207
  78.7348986  57.9031897  28.3655357  61.7783642  63.8828754  48.0219316
  62.2093201  64.7244358  47.8726578  62.2372198  63.2730055  47.4442244
  53.9741230  22.2146130  44.7636509  54.1023397  22.0749187  45.7018805
  53.3384418  21.5466833  44.5067167   2.5587648  44.2517138  48.9467907
   1.6401878  43.9943457  48.8679886   2.6576239  44.9781132  48.3313227
  15.1225972  50.3444815  48.8459015  14.5803988  51.1101341  48.6561012
  15.1733971  49.8746681  48.0134773  10.7922399   8.4460402  48.6060810
   9.9287313   8.7624300  48.8715649  10.9515691   7.6863211  49.1661453
  10.3787899  45.6148148  56.7493153   9.5791215  45.6843662  56.2278509
  10.2753901  46.2741566  57.4354649  14.0580714  52.4041271  42.7510309
  14.1563642  52.9334211  43.5424948  13.5449183  52.9530001  42.1580315
  19.0342069  51.3456678  43.7869358  19.8880315  51.6213894  43.4534836
  18.4019744  51.7746496  43.2103157  12.6213777  38.3010292  45.8562231
  13.2008696  37.5565124  46.0178232  12.9693973  38.7075853  45.0626087
   4.0852281  32.0593548  38.8976359   4.8492783  32.3101473  39.4168305
   3.7322265  31.2912035  39.3465948  14.6671712  13.4238219  11.6502070
  13.8099015  13.3175123  12.0625412  14.7806013  14.3712401  11.5742934
   3.6815482  38.4086251  32.2184157   2.7599227  38.2232261  32.0382357
   3.9155942  37.8004050  32.9195023  17.7810037  13.4907699  22.1394587
  18.3641374  13.8714993  21.4827752  16.9001687  13.6796224  21.8158889
   0.2339014  53.6273384  51.4151049  -0.0647003  52.8894329  51.9466734
  -0.1531727  53.4737921  50.5532312  74.8605204  30.1799798  29.5339918
  74.2852020  29.4153738  29.5589733  75.6980848  29.8605752  29.8696971
  14.8106360  32.6978040  58.8418961  14.4664395  33.5337067  58.5272121
  15.0007010  32.2019815  58.0454874   3.2598343  16.0329247   7.1385407
   3.9359584  15.4295766   7.4468571   3.2928860  15.9624267   6.1845124
  20.8185482  52.9598713  46.6352987  21.7319202  52.7180004  46.4820480
  20.3197837  52.1814775  46.3871574  46.3306904  11.2366569  61.1377716
  46.8480444  10.4651225  60.9068871  46.8806458  11.9782138  60.8850384
   3.4301642  73.6237240  60.3837967   3.4021407  74.5203161  60.0497866
   2.5645101  73.2668829  60.1849461  68.7038422  74.5592165  16.1544597
  67.9817963  73.9841938  16.4078999  69.0247345  74.1919613  15.3308201
  53.0506611  73.1431627  47.7788925  52.9030752  73.0938959  48.7233639
  53.6214352  72.3992205  47.5865364  26.1415982  35.0409007  32.0681763
  26.6940212  35.7822585  31.8202853  25.4587603  35.4244804  32.6184750
   6.4930147  39.1475105  48.9653778   6.8147856  39.6226954  48.1992865
   7.2550124  39.0758300  49.5402288  24.9139071  51.0835695  28.2936311
  24.1833186  51.0872507  27.6751995  24.5147395  50.8606100  29.1345739
  11.6201758  59.7230053  30.4713798  10.9628618  59.1196966  30.8180618
  11.4034498  60.5669022  30.8677435  19.9984777  74.2551088   6.3822776
  19.4337142  73.5802889   6.0055900  19.6777010  74.3635416   7.2775853
  68.2174266  -0.2026459   3.0317032  68.7031854  -0.0992009   3.8499770
  68.6459411   0.3973630   2.4212937  47.0109463  11.0840023  56.4678955
  47.4755144  11.3608146  55.6780958  47.6361227  11.2314272  57.1775770
  22.5780988  50.9185457  55.0110149  23.3966422  51.4072800  55.0967932
  22.1716619  50.9784222  55.8755684  20.2822351  61.0682154  63.8921165
  20.8686304  60.5777454  63.3160830  19.4672799  60.5661583  63.8879871
   5.2632225  52.6289463  33.5202146   5.5549747  51.7998838  33.8993835
   5.6259286  53.2984114  34.1002941  66.2312984  27.5955701  37.0430326
  66.4933777  28.3802152  36.5614963  65.8159828  27.9299593  37.8379726
  23.8251734  57.1552610  53.8016081  22.9508162  56.7704630  53.7410593
  23.6769223  58.0985117  53.7343168   0.4820077  57.2998047  56.6870880
   0.3221321  58.0923128  56.1746359   0.0554243  56.6024637  56.1891222
  11.6821182  23.2750630  28.8804388  10.7515526  23.1000113  29.0205669
  12.0318460  22.4521327  28.5388112  21.3459635  46.1123180  48.3273315
  20.5798030  45.9878969  48.8874626  20.9905481  46.1450815  47.4391651
  78.4899187  46.7574167  24.0634036  79.0381527  47.5415802  24.0908742
  78.2675505  46.6529274  23.1382728  76.9858456  62.3263931  27.7252364
  77.7618074  62.3305082  28.2856798  77.2686243  62.7624941  26.9214439
   4.5212764  19.6783507  34.9074101   5.3518748  19.9148822  35.3201938
   4.7359857  18.9322865  34.3474793   7.4730629  51.9693041  56.7655945
   7.3449326  52.8806591  57.0287418   8.2022041  51.6643381  57.3055792
  40.2830744  63.7803078  62.9591036  39.9009800  63.8336802  62.0830965
  39.8029971  63.0713272  63.3870173   3.8824958  32.4670506  20.6701398
   3.7226343  31.7931962  21.3308954   3.9972678  33.2732916  21.1731648
  69.0039778  15.0972474  48.5389662  68.2608318  14.6249688  48.1635761
  69.1183233  14.7121596  49.4077969  60.3783274  16.2746942   8.1287211
  59.4247818  16.2040162   8.0841488  60.6763220  15.3834164   8.3105326
   6.0729098  52.8454304  20.5036640   6.9294822  52.7225018  20.0945115
   5.4487300  52.7594805  19.7830784  69.4960260  23.4323955   3.1616130
  69.3220758  24.1604447   2.5650248  69.8025894  22.7254295   2.5937656
  16.0667086  74.4098234  55.4757071  15.5037391  73.6906290  55.7621622
  16.9570589  74.0801668  55.5975103  11.4031589  54.4813871  37.9998374
  11.0414231  54.2236137  37.1519399  12.2911978  54.7782516  37.8011131
  68.1108618  39.0802240   5.4223883  67.4363565  38.9070153   4.7656751
  68.1797123  38.2631755   5.9162736  17.8317618   5.5677176   9.0187538
  17.2513211   4.9677095   8.5504472  18.6577201   5.0902230   9.0963560
  42.3490381   1.2662686  51.7717075  42.3729324   0.5685902  51.1168003
  43.1363773   1.1276831  52.2981358  76.1639452  27.9154277  33.2889915
  75.5018663  28.5426354  33.5796690  76.2805033  28.1044507  32.3579073
  10.5390668  50.6503296  45.2201891  10.6407213  49.7210407  45.0144672
   9.8427385  50.6755733  45.8764839  75.6332636  67.2270441  56.9885397
  76.0897636  66.7900372  56.2696123  75.2566624  68.0121660  56.5910578
   4.3599319  60.0698566  34.3977809   4.1614568  59.1647625  34.6378803
   5.2631783  60.2015305  34.6859479  17.0577073  48.9069986  44.0579987
  17.7743518  49.5394421  44.0063572  16.9587898  48.7330151  44.9940395
  19.1362965  65.4706383  40.9995794  18.3216262  65.0416708  40.7378054
  19.3488884  65.0831985  41.8486547  13.4106541  43.9020252  38.4117532
  13.6674345  44.3430090  37.6019216  13.1221557  44.6093512  38.9885426
  42.8949881  74.3968868  50.3578615  43.2825804  74.1721916  51.2037420
  42.1555471  73.7960291  50.2660418  30.7811093  73.8995695  60.3537035
  29.8949504  73.7732983  60.0145721  30.8584595  74.8458624  60.4752684
  67.7512074  15.0420868   3.8798398  68.2739782  14.2607880   3.6995232
  68.1347179  15.4082048   4.6767777  32.7616644   8.6010039  56.8958712
  32.5820851   9.4932956  56.5995646  32.0190144   8.3814204  57.4584436
  55.0611401  65.1656151  49.9126148  54.8800468  64.2467117  50.1102448
  54.4879723  65.6549835  50.5027294  53.4884596  23.7864399  16.9309700
  53.6154509  22.8903079  17.2425044  52.6152420  23.7822366  16.5389180
  21.0535789  72.0492411  24.0557122  21.6984105  71.5790749  24.5842648
  21.5677738  72.4621010  23.3618975  46.0661983  13.3961761  63.6672068
  45.4531956  12.7042270  63.4188890  45.5557346  14.2032468  63.6016798
   3.1562462  24.1987681   3.1503299   3.7356466  24.6714783   2.5527745
   3.6603129  24.1197085   3.9602056   2.4734817  61.0575581  51.0480118
   2.9353887  60.3294134  50.6324673   1.5463495  60.8603239  50.9147596
  21.5692139  58.3211279  23.9275908  21.3430476  59.2447805  24.0368938
  21.1691260  58.0735970  23.0939913  55.0609112  57.1276712   1.7125347
  54.8372078  57.8865242   1.1737157  55.8351135  57.4025583   2.2037372
   0.5323368  47.7607155  33.3078051   0.4809469  47.7293444  32.3525000
   1.4174896  47.4577284  33.5101271  35.1443124   4.0377468  60.7780313
  35.5397296   3.6812556  59.9825525  35.8893466   4.2839745  61.3262367
  34.5112872  11.9406581  14.9728060  35.3894043  11.7557573  14.6397114
  34.3282580  12.8342366  14.6825469  10.4094970  51.2866449  55.1325083
  11.3140631  51.5827227  55.0308657   9.8926240  52.0922899  55.1349497
  31.9322753  66.3923645  50.2031183  32.8301215  66.4636660  49.8790503
  31.7265439  65.4599857  50.1354313  44.1886139  23.5075760   8.3340442
  43.8233042  23.6480141   7.4605131  43.5999298  23.9841795   8.9193082
   0.3778771  67.1046352  38.1386423   0.4011665  66.7223501  39.0158796
   0.4132979  68.0494356  38.2880878  24.4127011  29.6630096  25.4009748
  24.5792532  28.8866687  25.9355640  24.7407103  29.4305182  24.5323038
  56.8113708  18.2544112  26.5099382  56.3437700  18.2316446  25.6750369
  56.7243338  19.1596508  26.8085980  35.2292752  60.3894091  59.4729233
  35.3123760  59.6274281  60.0462580  36.0809612  60.4585981  59.0415573
   9.5854616  52.3633814  33.8235569   9.6164340  52.4336815  34.7776699
  10.3280771  51.8021297  33.6005163   1.8741323  74.4265079  31.4683557
   1.0384944  74.8903656  31.4156628   1.8098825  73.7409782  30.8034062
  12.3431814   4.2300504  21.5761304  12.7286327   4.7488829  20.8701038
  12.6806056   4.6289167  22.3781776  77.7989674  11.8827629  53.2838869
  77.2787952  11.8769884  54.0873909  77.3167706  11.3154614  52.6823187
  71.3218737  15.2233720  13.4009659  71.5862942  14.8910785  14.2588091
  72.1250582  15.5848086  13.0261469   3.0230388  55.5818892  46.4479971
   3.8350433  55.0833893  46.5395308   2.8717235  55.9547806  47.3164940
  17.9679894  70.3684998  29.3334770  18.2701254  69.8697615  28.5743952
  18.5641253  70.1161480  30.0385809  14.7655153  61.5478420  57.8768921
  15.1289916  60.7418346  57.5101852  13.9517140  61.2730885  58.2993507
  31.2334681  66.8993807  57.7993870  31.4066720  67.1176958  58.7151194
  31.1709690  67.7468538  57.3588085  36.1354351   5.7516134  55.7191849
  35.5303741   5.7433802  54.9775219  36.9918060   5.9237659  55.3277493
  54.0639114  72.5383711  43.4879351  54.7983122  72.8941917  43.9882135
  54.3901777  71.7079020  43.1413746  68.1948376  48.5721636  20.5811429
  67.6383829  49.3469954  20.5022478  67.5801659  47.8443241  20.6742239
  55.9316158  32.3932409   7.4072504  55.2238464  32.8262043   7.8845757
  55.8570385  31.4710855   7.6528168  78.1745338  26.7272305  42.2519636
  78.2522631  27.6807117  42.2845554  77.2416830  26.5677357  42.1085119
   3.6978343  37.5008607  28.7818027   3.1240976  37.9276013  29.4181585
   4.2728853  38.2001352  28.4710598   9.8381770  53.0684662  52.1564484
  10.0392210  52.1326256  52.1520662   9.3091333  53.1961012  52.9438877
  69.1401339  69.6250868  40.4056120  68.2235146  69.3560886  40.3449249
  69.4789743  69.5234203  39.5161796  41.8921041  66.2877131  24.3258023
  41.7252588  67.1617651  24.6785402  42.1339035  66.4402342  23.4122896
  66.2275028  54.2013788  42.2110558  66.8189955  53.6863947  42.7598333
  66.4981794  54.0023375  41.3147593  58.2664776  52.8691864  26.2899542
  57.6167059  53.2525873  26.8790507  58.2224703  53.4091473  25.5008173
   3.9498630  14.9870849  17.1413243   3.5220379  15.7791424  16.8159902
   3.8067645  14.3375814  16.4529204  45.8487320  61.2819672  34.1824293
  45.4055882  61.1097574  35.0132084  45.1505709  61.5679359  33.5933423
   2.1820007  59.5135212  11.7578280   2.3313031  60.2731466  11.1948812
   2.8090641  59.6187210  12.4733400  65.6498098  57.9769802  53.9793730
  65.1366472  58.6710739  54.3930483  65.6612968  58.2086515  53.0507040
   4.9422172  24.3320775  35.3491998   4.8855445  23.6146855  35.9803653
   5.1651335  25.0986648  35.8772945  48.8784027  60.5940151  53.5364151
  48.0411720  60.6358385  53.0743313  48.6407328  60.5989981  54.4636297
   6.5190643  24.3525529  55.7644606   6.2928516  25.2704763  55.9143829
   7.1372342  24.3744421  55.0339699  12.5058711  56.7393303  20.8935094
  11.6612685  56.3602257  21.1367273  12.2844863  57.4550867  20.2977610
  16.5172493  30.1646590  58.0035162  15.7213855  29.7290277  58.3085728
  16.2023544  30.8729506  57.4419117  33.4484124  15.9855151  37.0461345
  32.7873302  16.6455436  36.8374085  33.8715005  15.7970250  36.2084603
  72.0395803  43.4011269   4.0602729  71.6624451  42.5214529   4.0469861
  71.4635992  43.9171982   3.4962279  18.6966538  30.4861951  48.7477684
  18.7951779  29.7829676  48.1059027  18.2167006  31.1706042  48.2814407
  76.5470934  42.3031473  57.9075146  75.9589005  41.9602346  58.5803223
  76.5139389  43.2529163  58.0218458   4.4306400  21.8702579  10.6149626
   3.6862120  22.4700308  10.5667067   4.1965130  21.1502934  10.0292408
  65.6460571  11.3150978  18.2058871  65.9375095  12.1138847  18.6454630
  65.1725245  10.8292675  18.8811421  68.7166691  71.3141012  36.4947677
  68.1620836  70.5345631  36.5261531  69.3144894  71.1534977  35.7646632
  15.8742380  57.2716761  49.8515511  16.4679074  57.4920177  49.1337490
  15.1563191  57.8994942  49.7698927  20.6135511  66.7358637  51.9420195
  20.2836013  67.6076794  51.7245245  21.3789535  66.9000006  52.4928856
   0.4269355   9.2205900  64.4256115   0.4676002  10.1354098  64.1468954
  -0.2419383   9.2082930  65.1102209  32.4843359   7.7814972   5.4796815
  32.0426774   8.3682328   4.8657495  31.8306899   7.6073742   6.1569273
  51.8525362   5.4038095  49.8623085  51.1395168   5.4088002  49.2237043
  52.4097729   4.6734494  49.5934296  72.5384474  25.6363654  14.8456275
  72.3058033  26.3705564  15.4140210  71.8238115  25.0097609  14.9591565
  44.7260284   5.1735020  46.3168859  43.8071632   5.1749760  46.5850592
  45.0941706   5.9602416  46.7190599   5.9855360  59.5143747   4.4721496
   5.7002026  59.5719481   5.3840172   6.8608928  59.1299343   4.5189133
  73.6749744  27.8257608   4.0602875  74.0005112  27.5000691   4.8994443
  72.7443075  27.6019716   4.0612623  14.0655637  15.5255055  14.6240222
  14.8781526  15.5877340  14.1219687  13.7940133  14.6126664  14.5280111
  48.1482029   3.7599477  39.5691538  47.7469397   4.3103161  40.2416992
  48.0322552   2.8658742  39.8907423   1.2434196   5.6431913  60.5356264
   1.7482632   6.1755532  59.9208450   1.0408008   6.2382787  61.2574625
  39.1978908  68.5274458  42.5904465  40.0769949  68.3189154  42.9065561
  38.6372781  68.4303522  43.3601999  77.4005175   6.5038633  63.5493422
  76.9871712   6.7428970  62.7197409  77.1738148   7.2184151  64.1445303
  27.6415086  50.7887411  61.2136602  26.8168592  50.5948067  60.7680416
  28.0371928  49.9311304  61.3691235   3.6873731  65.8223152  32.1366119
   3.9923239  64.9676609  31.8319750   3.4583107  66.2942219  31.3359475
   1.5099807  37.1167755  31.0359693   1.3364016  36.4250374  30.3975320
   0.6799985  37.5877500  31.1104298  40.0640345   2.9329103  54.7124720
  40.5836821   2.8080848  55.5065870  40.0834894   2.0806845  54.2770815
   5.9522212   7.7261966   3.5804754   5.8054721   8.2520878   4.3666914
   6.2292755   8.3586508   2.9175466  26.0267472  61.4379120  51.0540104
  25.6059527  61.0525131  51.8225336  26.7702866  60.8625269  50.8742619
  77.1887207  30.6094956  58.4563494  76.3652802  30.4510379  58.9179468
  77.2148752  29.9371552  57.7755356  76.7581081   3.4196141   5.9085160
  76.4906263   2.5911376   5.5106318  76.5444088   3.3198032   6.8362033
  43.6120415   3.8610154  55.9223127  43.9588690   3.4520966  55.1293850
  43.8950396   3.2848495  56.6323662  18.9109540  48.0831528  55.3953552
  18.6320758  47.9030657  54.4975615  18.1280684  47.9304934  55.9245205
  58.6071491  22.5037050   8.4610868  58.7876034  23.2323503   7.8671670
  58.1766415  22.9091740   9.2137426  74.8249006  37.2570086  54.2512703
  75.0847530  36.4368963  53.8316011  75.1860905  37.1983814  55.1357698
  59.8842192   9.6465731  59.4810152  60.2035666   9.8414433  60.3620815
  59.7149277   8.7045109  59.4905281   7.4968529  50.1313972  21.3844872
   7.8661889  49.4651318  21.9640708   7.7914447  50.9625959  21.7567110
   1.3041042  69.5415068  15.5618179   1.9819413  70.2134514  15.4892945
   0.7671400  69.8219776  16.3029242  76.6302013  25.0896478   2.8603646
  75.7950163  24.6852922   2.6254317  76.6825676  24.9958420   3.8115165
   8.5284293  62.7852392  13.6932325   8.9740336  63.0253315  12.8808129
   8.4662068  61.8306732  13.6591995  11.6607094  67.7525949  47.7442122
  11.1639476  67.3387861  47.0383644  11.8052566  68.6491489  47.4416733
   8.5550135  46.7796803   4.4511601   8.9818883  46.9050169   3.6036339
   9.1785318  47.1297503   5.0874847  26.4409876  65.1648760  28.2776427
  26.5047550  65.1592970  29.2326999  25.5291939  65.3956127  28.0998206
  58.6451149   1.0876739  54.0201616  58.4118843   1.6709530  53.2979298
  58.1928253   0.2677936  53.8215160   9.0233260  31.4544916  28.3793640
   8.3571696  32.0118809  27.9771376   8.7601709  30.5632019  28.1500602
  40.4843473  74.3724823  19.5226109  40.9134722  75.0821638  19.0446591
  41.0051012  73.5960913  19.3170273  50.7815742   6.4786488  17.6036012
  50.5188417   7.3050183  17.1982419  49.9564505   6.0331446  17.7957690
  58.5865688  20.3050923  40.5036211  58.1981897  19.7872448  39.7984743
  59.2406988  20.8511066  40.0674820  35.9835625   2.7263200  54.4878292
  35.1466465   2.9622352  54.8880100  36.2089086   3.4797141  53.9420700
  78.7450933  12.5828159  40.6260157  78.7886429  12.0446074  41.4163733
  79.5116758  12.3215497  40.1157904  49.1760015  73.4009075  49.2316151
  49.4291162  73.8041496  50.0620127  49.7568703  73.8007116  48.5843277
  46.9310570  69.6376038  36.7124581  47.2572279  68.8473845  36.2818766
  47.7190065  70.1399279  36.9199061  55.0293446  18.6413634  32.5140071
  55.5599356  19.4374692  32.5443220  54.2651558  18.8421285  33.0543280
  26.4699483  59.6031332  25.9267759  26.4464998  60.4445457  26.3825202
  25.5493522  59.3745804  25.7983279  76.0722780  13.9247537  63.3234692
  75.3901577  13.2552683  63.3757305  76.8887663  13.4299290  63.2547140
  61.6428089  33.4649539   2.8499830  62.2954226  32.7663684   2.8020084
  60.8316755  33.0186772   3.0931562  33.2594204  74.5942926  39.1674399
  32.9100657  75.2877188  39.7272062  32.8029752  73.8029718  39.4532752
  10.1582813  31.0722208   5.2510667  11.0229290  30.8866477   5.6173718
   9.6901053  31.5187454   5.9565157  78.9716482  26.6601515   5.4640198
  79.6047783  26.0882354   5.0300956  79.4371080  27.4885225   5.5797029
   5.8707672  48.9476013  62.6817942   6.2539196  48.9942122  61.8058634
   6.2813395  49.6670628  63.1614113  69.7130060  52.5293207   4.5093107
  70.4410648  52.0942163   4.0656343  69.6959591  52.1373844   5.3824234
  30.8220100  16.2651265  38.8707614  30.6228065  15.9928453  37.9749870
  30.7573318  15.4607558  39.3855786  46.4084291  22.6233435  61.1108255
  47.1832228  22.1984982  60.7428026  46.5766525  23.5598850  61.0067940
   4.8614201  65.0823784  51.2329388   5.1082510  65.9678364  51.4999056
   4.5290172  64.6749687  52.0327902  36.3927073  -0.1047274  58.3045530
  35.8701462   0.6809762  58.4652662  37.2954071   0.2114681  58.2673407
  14.0380216  37.9048395  31.6048956  13.6025918  38.3322501  30.8673644
  13.6405385  38.3013034  32.3801708  14.0033734  51.1518192  45.9697294
  13.8217759  50.2950668  45.5834293  13.1400704  51.5456486  46.0955954
  64.9929142  27.5641918   9.0668911  64.1812801  27.3537564   9.5286262
  65.6872797  27.2945881   9.6680546  10.2495289  13.5133147  34.0446448
   9.5484215  13.5515463  34.6951962  10.0827575  14.2594111  33.4686589
  22.5056195  64.3019676  16.6464329  23.3711672  64.3987846  17.0435262
  22.6103950  64.6419668  15.7578075  12.0195889  62.9478836  52.5682783
  11.1767423  62.6245642  52.2499895  12.0533788  63.8582182  52.2743750
  64.4281244   7.0521200  62.8700399  63.9898252   7.2749394  63.6913061
  65.3578424   7.1932060  63.0487871  58.8882113  64.6915007  38.8819313
  59.4250011  64.2555761  39.5437908  59.4042397  65.4535961  38.6189699
  49.3906689   4.8466721  48.1077242  48.7358713   5.5424631  48.0498791
  49.6873951   4.7214779  47.2063303  30.2606797  16.5945327   8.6300510
  30.4215074  16.2470484   9.5073313  31.1165214  16.9055188   8.3350003
  71.9277477  28.8305330  19.0514636  72.6044989  29.4902849  18.8999188
  71.1036301  29.2944503  18.9036763  73.7223810  74.4154233  57.5184107
  74.5058626  74.2965778  58.0553102  73.0976337  74.8497062  58.0992031
  45.5343914   7.5401670  40.7356691  44.9198484   7.5451463  41.4695263
  46.0451174   8.3422416  40.8455133  74.3419218  46.1557341  54.2424822
  75.0527191  46.6062450  53.7863731  74.7088766  45.3026104  54.4743252
  62.5409079   2.7562264  48.7255573  63.1914806   3.2062790  49.2644787
  61.7395782   3.2668766  48.8410521  73.1026030  67.3860407  49.8533487
  72.7029037  67.2523212  48.9939356  72.3613214  67.4391365  50.4566097
  49.9798870  27.5933194  60.7678270  49.1568184  27.5611782  60.2802229
  50.3396034  26.7097878  60.6890488  63.0499363  58.8786459  37.0953655
  62.6323366  58.0185223  37.0503855  63.2321215  59.0080643  38.0261135
  27.3870921  47.8817987  22.6593614  26.6812539  47.2393036  22.5870919
  27.8219628  47.6680279  23.4848428  62.0235920  43.0964136  52.4111128
  62.7801085  43.5886431  52.0923281  61.2883425  43.7027454  52.3216629
  14.3750834  64.9241781  50.1842594  13.6295140  65.0421810  49.5956707
  14.4342494  65.7501268  50.6644106  47.2597599   4.8590752  41.7709637
  46.7572117   5.6549692  41.9448280  46.8651342   4.1976789  42.3393440
   9.8004562  10.3421807  30.3645706  10.4377735   9.7450328  30.7563281
  10.2155924  10.6375456  29.5542288  51.3088226  48.3138657  40.8462238
  50.4860258  47.8784704  41.0690880  51.6865301  47.7720213  40.1534224
  78.0997372  27.9184246  51.0747623  77.3888302  28.5385203  51.2370062
  78.8917875  28.3886266  51.3351440  29.0505576  15.3098917   4.8266280
  29.1593170  14.4881535   4.3479329  29.9197149  15.7107139   4.8149675
  19.1150260  66.1531305  35.5244851  18.2656324  65.9120512  35.1548338
  19.4532323  65.3394079  35.8982515  43.4686696   2.3520922  65.0344332
  43.4826219   2.0128869  64.1394604  43.9924609   1.7270707  65.5356550
   0.0946325   0.8404072  30.3632212   1.0240405   0.6297048  30.4528642
  -0.3594452   0.0802774  30.7268834  20.0113797  75.0478220  27.4075127
  20.6534195  75.1959515  28.1018281  19.9977291  74.0976334  27.2926617
  66.6420364   4.1199279  57.3372269  66.3764095   5.0122935  57.5593948
  65.9029722   3.5754806  57.6085138  51.2737226  30.5413294  44.7026920
  51.5119171  31.2492847  44.1041183  51.0508251  30.9845924  45.5212688
  61.2063265  59.9815321  19.2866433  60.3579092  60.3194189  19.5734406
  61.8367386  60.3724813  19.8916006  40.7184458  68.8271189  34.0692663
  40.7878017  69.4548273  33.3499575  40.5579805  69.3667316  34.8434114
  76.6426373  14.7049654   6.4347482  76.3954067  14.8647368   7.3455614
  76.1402702  13.9301944   6.1825812  21.4568734  29.2262697  19.2072713
  20.8070850  28.6289072  18.8369155  21.5930605  29.8844528  18.5257447
  37.1008968  69.5237112  41.3930607  36.5192080  69.8726940  42.0684004
  37.6631069  68.9040709  41.8580341  36.7133260  39.5274854  16.6314459
  37.3262358  38.9151597  17.0384228  36.6798353  40.2695847  17.2350991
  42.5761700  66.6900539  33.2378244  42.8649664  66.6723776  34.1502476
  41.9040203  67.3710823  33.2124949  50.2617216  69.4973850  46.6007757
  49.8026419  69.5015860  47.4406910  49.6498489  69.9101973  45.9913206
  75.9008598  39.5927048  29.5599055  75.8386326  40.3124666  28.9319706
  75.2210474  38.9768314  29.2864370  10.1537657   9.6682048  52.0338345
  10.6984973   9.7579724  51.2518883   9.9881762  10.5680776  52.3149776
  18.5997713  51.2867260  12.7629399  19.3724823  50.7387829  12.6254368
  18.5535192  51.8362379  11.9805527   4.6064568  21.1134553   1.1236549
   4.5384431  21.8081093   0.4686275   4.3100575  20.3252554   0.6685492
  65.1602125  38.5410666  13.0479157  64.9439240  39.3460178  13.5185575
  64.6645880  38.6006117  12.2311866  23.2786798  46.9773626  22.2635579
  24.0396929  47.0462084  21.6870594  23.4718418  46.2278414  22.8267121
  64.3159819  56.7813492  48.8446236  63.7740326  57.0855665  49.5726156
  64.6650124  57.5827885  48.4546232  16.0193110  18.0006003  24.3831658
  15.6889319  17.5724411  25.1729512  16.2886703  18.8707554  24.6772885
  21.8520355  69.4237661  43.1947660  22.4277377  70.1463318  43.4451675
  20.9864235  69.8242426  43.1137228  69.5715475  71.0851240  49.0233946
  69.3346310  70.2342653  49.3923664  68.8379288  71.3108349  48.4514809
  78.3671236   1.5847217  49.5355463  77.6444054   2.2077081  49.6116924
  78.9067841   1.9297168  48.8242292  57.3443556  20.9333706   6.0436577
  57.9753542  20.2142692   6.0747778  57.7715206  21.6474867   6.5167332
  35.8860421  58.2287264  61.0922480  36.5681291  57.6201439  60.8083105
  36.0714483  58.3808994  62.0189095   7.0047456  10.7742679  11.6301346
   7.3809206  11.5132713  11.1520147   6.1648983  10.6132889  11.2000489
  69.2208385  68.6823654  50.2055073  69.1703844  67.7593517  50.4539728
  69.4910812  69.1315651  51.0063934  72.0467758  37.2991490  15.7670033
  72.2131014  38.1667185  15.3983665  72.7319050  37.1832728  16.4253354
  69.4443607  69.3860722  60.3987598  68.6649656  69.1248560  60.8892107
  69.5042658  70.3322744  60.5304575   2.2240964  45.5696297  24.3939257
   3.1704685  45.4786777  24.2828441   2.1251802  46.2587738  25.0508332
  20.1338816  22.3876834  20.0782108  19.8344195  23.2205200  20.4428196
  19.7183657  21.7226768  20.6271601  10.7098472  32.3273110   1.7865376
  11.0661793  32.9032850   1.1101408  10.3033996  32.9215312   2.4173589
  61.8142748  69.3375874  52.3775053  62.0142984  70.0539398  51.7749596
  62.3179483  69.5400429  53.1658888  45.5053329  69.3219948  32.4710345
  45.7516098  69.3340492  31.5461349  44.5599890  69.1719151  32.4652362
  63.3794737   5.0528711  40.4376936  63.4142828   4.1416860  40.7288313
  62.4504662   5.2805889  40.4740000  74.6051073  25.9144306  59.7990799
  74.6314669  25.6660986  58.8750315  75.3971291  25.5286956  60.1734400
  47.8051376  56.0791826  21.4292932  46.9937611  56.2491989  21.9078207
  47.9255581  56.8533134  20.8793378  68.5936737  33.3493209  35.3802896
  68.1961060  33.0006146  34.5824337  69.1001415  34.1058302  35.0846291
   8.5359037  27.2194672  33.1976724   8.1539738  26.3955498  33.5002041
   8.4661645  27.8064871  33.9505172  37.3034859  68.2606173  44.7143841
  37.4918628  68.6627150  45.5623627  36.3485765  68.2743311  44.6496534
  31.4529920  66.0641193  54.2045927  31.0527349  65.3089285  53.7736559
  31.7225981  65.7354259  55.0622082  50.6273508  62.3212433  57.6756191
  50.6879950  62.8925800  56.9100285  50.4055691  62.9100800  58.3969450
  20.6105924  19.0479159  39.8898554  21.5092874  18.9461040  39.5764613
  20.2503133  18.1612110  39.8763132  10.5765057   9.5063359   2.6013559
   9.7512931   9.9903339   2.5696906  11.1208653  10.0008643   3.2140106
  60.8765364  48.9749575  57.2602940  60.6963348  48.1761169  57.7558851
  60.4095125  49.6621513  57.7355623   3.9643592  26.2158799   5.8411050
   4.5472756  26.3305020   5.0905710   4.0225118  25.2834129   6.0493249
  76.9131947  30.8882880  35.1653242  77.2241879  31.3196683  35.9612036
  77.6026678  30.2609229  34.9478936  18.1051219   2.9723185  58.4448051
  17.7772892   2.0790386  58.3408403  18.7913144   2.8999248  59.1082287
  70.2633572  15.4036748   8.3853883  69.4686079  14.9048924   8.1961262
  70.2000952  15.6102836   9.3178809  65.9156084  37.0752406  10.3365421
  66.5184975  37.6218724  10.8404720  66.2894440  36.1955976  10.3885269
  66.6862869   0.8182906  28.6956096  65.9756756   0.7928709  29.3364000
  67.3632479   1.3534695  29.1097832  68.8664818  10.5038297  64.4931746
  68.8241911   9.5514601  64.5794058  69.7485018  10.7319772  64.7868013
  33.4270692  24.1126132  25.5771255  33.5182858  24.5756292  24.7443438
  34.0649033  23.4006906  25.5264640  46.9517279  72.7286816  38.7735748
  46.0648346  72.6672554  39.1283655  46.8432808  73.1744385  37.9334736
  66.6657352  72.0475101  60.1103687  66.1795521  71.2486506  59.9062014
  66.1568213  72.4668980  60.8041620  56.7657137  28.2661986  61.1277437
  55.9718180  27.8933454  61.5110826  56.6195393  28.2208633  60.1828575
  38.5400200  65.8641100  44.9122953  38.0932069  66.6889095  44.7217751
  38.0023217  65.1964855  44.4863939  52.7953625  11.4102626  61.6775846
  53.0353832  11.5780008  62.5888968  52.2107792  12.1323144  61.4470768
  12.2915626  69.3893719  56.9000387  13.0717409  68.8894844  57.1401644
  11.8790472  68.8719559  56.2084150  18.4836125  18.9198303  56.9371271
  18.9125741  18.3396959  57.5661516  19.1037965  18.9863360  56.2110567
  34.1851521  69.2645788  35.3584528  33.8647723  70.1008272  35.6965041
  33.4102297  68.8443041  34.9854970  13.5659564  22.5276899  54.9037170
  14.3214345  23.1125140  54.8448563  12.9832208  22.8178191  54.2019510
  13.1601095  18.0910659  62.2470236  12.7316487  17.6750481  61.4989710
  14.0460777  17.7287245  62.2475529  56.4526033   2.4594533   1.5027599
  55.5694532   2.2853395   1.8282804  57.0308208   2.0739685   2.1610123
  66.2705421  10.7020271  33.0662107  65.5081034  10.9764385  33.5757375
  65.9078407  10.1605654  32.3651409  69.1775751   0.2786167  35.1941204
  70.1279783   0.3924255  35.1905608  69.0488386  -0.6556468  35.3578591
  71.7157507   5.4650706  44.6265507  71.0820293   4.7998297  44.8950338
  71.6572380   5.4798985  43.6712551  36.9999981   9.9674183  42.4335384
  37.3308706   9.2798805  43.0115080  36.0489321   9.8614228  42.4552441
   1.7648798  45.5392599  10.5626583   1.7124388  46.4849567  10.7010007
   2.2232296  45.2091980  11.3354516  12.8130186  17.0108914   8.3205628
  12.9403222  16.7051327   7.4224883  11.8644071  16.9934595   8.4473103
  69.3417072  58.0843019  35.5158114  68.8306284  58.8932896  35.4920340
  69.5569420  57.9099560  34.5995641   8.0765182  11.7891943  24.3529892
   8.4468794  11.5758908  25.2094746   8.7843370  11.6089201  23.7343407
  15.6295073  66.0650873  54.9098301  14.8400438  65.5928946  54.6452332
  16.1733413  65.4025936  55.3359509  26.6365862  29.4670129  52.2086716
  27.4980545  29.1337085  51.9576550  26.0343099  29.0738845  51.5770531
  19.4038141  75.1005745  58.7616968  19.2570031  74.1656876  58.9054489
  20.3394532  75.2235174  58.9219856  64.3670464  56.5460062   6.3609290
  63.9423037  55.6926727   6.4483678  64.1541243  57.0039701   7.1740526
  37.2049975  39.4091702   2.5883532  36.6298294  38.6463213   2.5294048
  37.9725409  39.1711807   2.0682886  36.6014934  58.2949495   8.6522895
  36.3374448  57.6045990   9.2605066  37.4104428  57.9696465   8.2573104
  53.3293247  59.8477888  44.7412348  52.7275896  60.3844547  45.2571201
  53.5300446  59.1020393  45.3067446  37.4671817  64.9803162  38.4562612
  38.0060768  64.8224688  39.2314434  36.8123198  65.6158590  38.7451696
  65.9513200   0.0149539  37.9059315  65.2444637   0.6428865  38.0552220
  65.8613313  -0.6203267  38.6162496  36.1360574  59.2666101   3.8727912
  36.9537902  58.7786245   3.9698192  35.8575797  59.4482422   4.7703946
   6.5603656  64.4821501  46.5679884   6.3940507  65.3530455  46.9287062
   6.9439393  63.9911747  47.2946548   7.6967853  11.4456141  14.0397871
   6.8811631  11.7109215  14.4647622   7.4493426  11.2771285  13.1306028
  59.3180418  69.9992990  63.4646320  59.7170353  69.1390228  63.5948801
  58.5374737  69.8241901  62.9390001  27.4833560  43.8089418   6.1850792
  27.7761436  44.3165970   5.4282492  28.1507230  43.1310511   6.2914759
  44.3000841  14.0185988  40.1059103  43.3647728  14.1685200  39.9682617
  44.3652201  13.0864835  40.3136396   9.0727031  23.4756327   1.9938914
   9.4002807  22.7730918   2.5554606   9.8478681  23.9973640   1.7861681
  30.0110388  60.3808165  37.1927166  30.0740051  61.1928034  36.6897798
  29.1328907  60.4021311  37.5730252  32.8116345   2.7664351  61.4280319
  32.7740836   1.8365592  61.2040854  33.6934686   3.0385610  61.1739731
  36.8255496  66.7277241  59.9077225  36.9675040  66.3610983  59.0349865
  35.9801650  66.3724279  60.1821661  13.7347209  44.6651173   2.1540682
  14.2507446  43.8899851   1.9324255  14.3655157  45.3849220   2.1397258
  22.0067811  12.3184478  60.0084543  22.1605611  11.4275992  60.3230524
  21.5947962  12.2023344  59.1522932  64.7988892  12.1482062   1.5360449
  64.9131775  13.0517840   1.8305227  63.9411163  12.1414006   1.1112936
  62.6042747  66.6484833  20.9040642  63.5311699  66.4161873  20.9600925
  62.5984192  67.6052523  20.8759403  23.0324316  10.1676762   4.8382357
  23.5781550   9.8807472   4.1060549  22.3744178   9.4787186   4.9309018
  55.6255531  28.6548638  17.7541530  56.4082336  28.3445430  17.2988033
  54.8974514  28.2543230  17.2791064  11.9294226  70.3158236  47.2127342
  12.5758326  71.0204124  47.2568035  11.0876286  70.7551765  47.3334980
  68.1871176  62.9989290  11.9427788  68.1519747  63.3850670  11.0676241
  67.4674511  63.4150791  12.4172580  49.5374441  68.2068872  16.9517052
  50.3084946  68.1289196  16.3898909  48.8038731  67.9643250  16.3866663
  57.3763943   2.2702491  47.4842262  56.4839268   2.0497310  47.2175598
  57.2880268   3.0996335  47.9538488  67.4134636   1.1290137  40.9953165
  66.6646433   0.6474836  40.6437111  67.1617889   2.0496604  40.9225178
  71.0787344  26.5780044  56.0689497  71.3037539  25.6860185  56.3334513
  70.4563522  26.8748808  56.7328310  15.6713891  67.0340967  28.8260746
  15.4260230  66.7103577  27.9593468  16.4972091  66.5915680  29.0220952
  56.9906855   4.1966137  22.0393682  57.4542856   4.6054015  21.3084769
  56.0857344   4.1210133  21.7367554  23.7458014  46.9153833  18.4984434
  23.5776424  47.8023958  18.1803846  22.9142308  46.6368008  18.8819981
  21.8459344  59.1319895  43.0242634  21.0770321  59.4358349  42.5418711
  21.6706824  59.3765879  43.9329338  44.9032259  51.8980789  54.5379305
  44.7940874  51.0638714  54.0814018  45.5752230  51.7242765  55.1970577
  46.8330669  65.6908131  26.0417700  45.9271812  65.3835678  26.0764813
  46.8218279  66.3971567  25.3958750  55.4996920  64.6417475  35.6207037
  55.2482128  64.0977955  36.3670993  54.7303104  65.1851130  35.4503107
  73.5376978  10.9611070  20.5388665  73.9451981  10.8568990  19.6790302
  74.2677593  11.1490583  21.1287141  27.8434610  24.2023683  55.4427195
  27.6439190  24.4230533  54.5329285  28.4623981  24.8767900  55.7225513
  61.9112873  42.0053196  21.4447021  62.8208065  41.7764664  21.2533021
  61.9577169  42.8914881  21.8035674  46.7952633   9.1744161  64.3512249
  47.3695993   8.8664633  65.0523186  46.0779810   9.6160984  64.8058224
  24.6783662  70.1939058  49.2561960  24.7937536  69.2547083  49.1118717
  25.2987361  70.4071093  49.9532747  56.6589594  73.9694786   8.4859294
  57.3290443  73.6311722   9.0798730  56.1669111  73.1948328   8.2138216
  19.3616688  70.3728533  42.1309137  19.7161961  71.1047029  41.6259956
  18.4856963  70.6610060  42.3875666  43.7181187  13.0122471  51.0835028
  43.2875347  12.3594308  51.6354656  43.0227947  13.6293375  50.8555698
  63.5734129   3.2427815  43.4702492  62.8432512   2.9167813  43.9963865
  64.3029881   2.6624358  43.6874056  75.3943586   5.3206211  40.1327133
  75.1920176   4.4728354  40.5283785  75.1414442   5.2229708  39.2147088
  33.6927557  69.9049854  49.7292423  32.8565264  70.0870752  50.1579571
  33.4895778  69.2249060  49.0870237  50.2909184  70.0763702  54.8756838
  51.1671829  70.2124977  54.5153236  49.7184467  70.0478506  54.1090679
  23.8975120  71.3609743  30.5446148  24.5442462  70.8045721  30.9786439
  23.6912704  72.0369101  31.1902213  45.2327633  66.9355726  38.5396552
  45.7056665  67.1985292  39.3292451  44.5470428  66.3473415  38.8558912
  17.7535796   3.2707322  25.0850105  17.2208631   2.5096771  24.8542714
  18.0834067   3.0751973  25.9620571  31.1573982   5.6818789  15.5842292
  30.9417701   5.0754786  16.2927604  30.5661631   6.4231795  15.7151723
  64.0772629  70.2068567  47.0615530  64.6053028  70.4799795  46.3113451
  63.1790686  70.1956463  46.7308664  36.7672610   4.0565014  37.5652361
  37.0784616   4.6111476  36.8498659  35.9109735   4.4182056  37.7936506
  47.1364403  71.8869591  42.8386545  46.4929342  72.5813437  42.9799461
  46.6202688  71.1402273  42.5350237  39.0573406   8.3473957  54.1190434
  39.0386391   7.5144649  53.6477613  39.7151899   8.2210046  54.8027802
  39.2920208  52.1001959   7.4739760  38.7236071  52.6518011   6.9365120
  39.4542432  51.3262224   6.9346386  24.3522930  68.6188316  57.1993160
  24.8349237  67.7969408  57.2876024  23.9573717  68.7583256  58.0600214
  52.9753923   7.2396153  34.9946356  52.1742487   7.5396645  34.5652485
  52.6781607   6.5823770  35.6238604  45.0021172  61.5397739  54.2695665
  44.3995285  61.1327076  54.8919916  44.6750259  61.2733698  53.4103346
  11.6366393   0.1078418  58.2941484  12.1024949   0.0895074  59.1301346
  10.7430703  -0.1572796  58.5120344  12.9985964  35.7866120  18.2289195
  12.3010230  35.3583169  18.7250912  12.5901508  36.5763330  17.8743124
  18.6121082  48.5077667   6.1345357  17.7514875  48.3614445   6.5271610
  19.2219484  48.0589581   6.7201102  59.8688173  25.8547330   4.6480614
  59.4691181  25.0073552   4.4520387  59.1330671  26.4665008   4.6732816
  46.9943905  60.0504112  23.6545134  47.2556543  60.6287289  24.3711185
  47.3440599  59.1934681  23.8986778  68.9753485  56.6885090   3.4940284
  69.7721672  57.1598864   3.7371844  68.8862133  56.0084200   4.1616821
  20.1594543   4.0094292   9.8318720  20.4556942   4.7384113  10.3769028
  20.3474951   3.2288724  10.3530288  75.1180124  34.8670959  62.2198486
  75.9379292  34.4140792  62.4166775  74.7027540  34.9923325  63.0731392
  11.5246785  14.6470439  62.6437473  10.9339297  14.7995710  63.3813000
  11.2448120  13.8058829  62.2827005  65.8947325  40.4067707  60.1191711
  65.0141239  40.0956106  60.3287935  65.9623098  40.3122520  59.1690540
   1.1219222   0.4974416  42.8924084   1.9851309   0.3057149  42.5258827
   0.6741673  -0.3484675  42.9058933  28.3821344  61.3537407  14.0851307
  29.2263246  61.4123392  13.6377597  28.5721135  60.8781099  14.8937821
  72.4931479  36.5394926  11.7902482  72.7167940  36.7733979  10.8894145
  72.9553080  37.1835709  12.3267221  47.5106049  22.5376010  17.4210858
  48.2855892  22.1445513  17.0196640  47.8552628  23.2484627  17.9615676
  51.0459900   3.7310433  57.1349907  50.4714203   3.6316025  57.8940821
  50.4607916   3.6605966  56.3807964  10.0657392  37.3615241   2.8409931
   9.5322776  37.5144196   3.6209118   9.4572866  37.4686193   2.1098648
  25.0510311  18.1272781  36.5014744  24.6139812  18.1730676  35.6511092
  25.9258986  18.4807086  36.3404655  51.1479235  70.1969957  58.2595539
  50.3202248  70.2065372  58.7402391  51.0946608  70.9537745  57.6758718
   5.5699736   8.0581450  41.8167543   6.3978285   8.4510505  41.5401459
   4.9839142   8.1841016  41.0704947  56.6163826  14.9840355  55.0755692
  56.7102528  14.2647827  54.4509935  57.4083757  14.9408484  55.6114006
   9.6984053  23.5860896  46.4657450   9.9881899  24.4676709  46.2310696
   8.7718570  23.6884689  46.6831398  44.1173124  66.2660742  30.9443212
  43.5078430  65.9895563  31.6286588  44.9837399  66.1520147  31.3348603
  17.0113754   7.8761083  43.4279919  16.8229914   7.7210671  44.3535757
  17.3587322   7.0422649  43.1113195  20.5117583  32.5077629  22.1620893
  19.7167385  32.0174313  22.3712587  20.1984978  33.3778691  21.9150734
  50.1542234  20.3244019  50.3651428  50.8507490  20.9693813  50.2423239
  50.5792570  19.4806516  50.2113104  76.6847086   0.6413791  41.4262342
  76.4373064   0.7048512  42.3487282  75.9344578   0.2215658  41.0053921
  76.1827850  22.1018577  31.3643289  75.2690125  21.8204379  31.3189673
  76.6061783  21.4514446  31.9246244   5.3260142  71.0346794  48.8561010
   5.3280079  70.9095716  47.9071140   5.7499802  70.2493334  49.2021084
  26.0278392  38.1724477   6.1487943  25.6588840  38.9261889   5.6883812
  25.9033346  37.4392414   5.5461848  58.3965778  36.0674834  50.1989555
  59.3214512  36.3135839  50.2154493  58.1870365  35.9857488  49.2685556
   9.6314210  20.5262256  32.0074201   9.4638956  21.1114049  31.2686849
  10.0268722  19.7491181  31.6125107  70.3724670  31.0031891  55.3360081
  69.6255112  31.5965915  55.2575016  71.1381292  31.5769744  55.3083849
  70.2351904  27.1780133  58.9128160  70.0604916  27.0940638  59.8501873
  70.3535700  28.1177330  58.7744617  58.0952644  46.2495756  24.0256429
  57.6454115  47.0888472  24.1230702  58.1883287  46.1360931  23.0797601
  21.0752797  38.4947348  32.4491954  20.6434631  38.4863663  31.5949750
  21.2417674  39.4209290  32.6243496   8.1687212  16.4174950  64.0645552
   8.4323800  15.4998374  64.1325235   8.9819276  16.8872702  63.8795185
  17.5189042   7.7913135  59.1383600  17.5895429   6.9902164  59.6574831
  18.0117929   8.4435701  59.6362114  67.6159239  55.5101061   5.9480995
  66.8296814  55.6781626   6.4675343  67.3393536  54.8656797   5.2965969
  57.4210215  68.5853529  35.8674145  57.9418707  67.7954531  35.7224774
  56.8836069  68.6658192  35.0794148  29.6776032  10.5369461  37.1358609
  28.9846206  11.1826861  37.2738051  29.6920156  10.3997207  36.1886597
  63.6914873  66.8622398  55.9463978  63.9017773  66.0671091  55.4567242
  64.2513990  67.5360918  55.5608368  34.8976278  71.6985035   4.7675186
  34.4338107  72.3685932   4.2654368  35.3285503  72.1824884   5.4719996
   6.7539781   3.9534608  40.4635048   6.8572634   4.5710933  41.1874485
   7.5268716   3.3912423  40.5162096  71.9106865  65.9012651   4.2884341
  72.4806309  66.6142273   4.0001857  72.1736479  65.7355118   5.1937562
  73.8473797  61.3339567   7.0162570  74.0968943  61.3142490   7.9401553
  74.4382286  61.9757366   6.6222358  26.1352777  23.9034390  34.5013046
  26.7157602  23.4995222  33.8562274  25.4254365  24.2807460  33.9816928
  11.6292369   0.7645492  32.7036738  10.8412540   0.6969233  32.1644688
  11.5372849   0.0653736  33.3509231  13.2684505  17.8082657  37.7271152
  13.2781744  17.9214871  38.6775446  13.3672345  16.8650758  37.5972438
  29.1059518   1.4007828  35.6130266  28.5929775   0.7449217  36.0851860
  30.0008273   1.2786682  35.9300756  61.6244555   8.0768853   4.3706194
  61.7461538   8.9111084   4.8239326  62.4887896   7.6660085   4.3889612
  21.6387892  45.2898455  12.8338337  21.9907475  44.6480322  12.2170460
  20.8501291  44.8767328  13.1853795  74.8559618  50.7967281  51.4774513
  74.2022991  51.4018774  51.8278122  75.4495239  50.6345224  52.2106695
  75.4934788  14.8705161  29.2723870  76.1346626  14.4200933  29.8221445
  75.9374762  14.9862134  28.4323192  24.6058774   9.8285419  49.3197870
  23.7518239  10.2236462  49.4950390  24.6285415   9.0502942  49.8766088
  17.5073171   4.0632492  22.4686098  18.3350992   3.8618106  22.0322275
  17.6198745   3.7329745  23.3599472   9.5293391  19.8941052  62.3827219
  10.3133106  20.4215407  62.5357962   8.8516027  20.5318379  62.1586609
   7.1805358   1.0967165  38.2873225   6.2844312   0.7602277  38.2890868
   7.4086177   1.1755012  39.2136073  77.1583796  41.2548304  31.5149021
  76.8734455  40.6734276  30.8099103  76.7155027  40.9204721  32.2948360
  17.5814259  28.5255361  29.6970797  17.6951671  27.5855827  29.5564175
  16.7018330  28.6078644  30.0655484  74.1514778  37.8997183  35.3369570
  74.4056749  37.3968673  34.5631623  73.4641647  37.3755121  35.7481050
  79.0680218  18.4434164   0.2735461  78.1651402  18.1339645   0.3461694
  79.4335222  18.3235669   1.1500607  64.5200634  71.2523556  32.0511961
  64.3493986  71.5626240  32.9404855  64.7279549  72.0451260  31.5566969
  59.9417114  72.5471497  62.6890326  59.4499969  73.1155014  63.2818413
  59.8125076  71.6660070  63.0399227  70.1368093   9.8794913  39.1126275
  70.6752539   9.1206026  38.8881254  69.8066330   9.6876657  39.9903607
  14.6664655  28.9828348  47.9985476  14.7184336  29.7496128  48.5691452
  13.7327003  28.8863611  47.8114462  74.2331457  72.9800701  52.7761698
  74.9283981  73.4728956  53.2120371  73.4683847  73.0948544  53.3402634
  72.4595928  33.1689048  43.5035515  71.6471243  32.7063847  43.2981300
  72.1808529  34.0593767  43.7170887  52.3418331   0.8983120  26.9845366
  52.4168301   1.4386806  27.7710533  53.0334997   1.2198177  26.4062095
  58.5132074  63.5681248  33.0717874  57.6699352  64.0021563  32.9423952
  58.9148188  63.5611725  32.2029424  75.6676292  72.2700977   0.3576799
  76.1133385  72.9990244   0.7892378  76.1632252  72.1302557  -0.4492037
  16.0143948  75.0388432  33.4396410  16.0433722  74.9583244  34.3930078
  15.2482867  74.5274591  33.1792617  72.9516602  72.4277496  12.8581500
  73.1060123  73.2618427  13.3016539  73.8273764  72.0979977  12.6566124
  19.9772859  38.2377958  11.9547212  20.9317970  38.2706189  11.8909991
  19.7905743  38.4555840  12.8679228  30.8088470  27.7495027  14.0045011
  30.7249475  28.6415696  14.3412626  29.9102449  27.4794173  13.8152921
  26.3999057  19.0760291  29.2237926  26.4453650  19.1291642  28.2691503
  25.4651690  18.9993989  29.4151688   8.1517786  38.9722681  33.8679314
   7.8547293  38.5834146  33.0452609   9.1070974  38.9491558  33.8125873
  27.8163338  11.4132619  40.2044487  28.1349874  10.8449197  40.9056473
  26.8652964  11.4171386  40.3128242   8.1401676  41.5971899  34.1983891
   7.8088862  40.7023954  34.1220713   7.3591489  42.1475220  34.1402698
  47.1633720  60.5260706  37.6022887  47.7273941  60.6618357  36.8409252
  46.3090897  60.3053427  37.2311902  51.1384630  60.0575972  62.6234579
  50.9055424  59.9780750  61.6984367  51.8269157  60.7223988  62.6408005
  22.8322053  60.9792185   9.3629587  23.5379457  61.5368843   9.0355891
  23.2247329  60.1084995   9.4262296  77.2269249  28.9381862  30.5751467
  77.1429920  28.0774140  30.1649499  78.0344820  28.8823414  31.0859990
  74.2731905   8.6703253  10.2448833  74.2936850   9.6105558  10.0666165
  73.8288498   8.2922959   9.4860089  35.4735637   4.8374510  13.6383927
  34.9194932   5.4626298  14.1057146  34.9891615   4.0127602  13.6767507
  50.4078007  13.8890350   8.9933437  50.0130177  13.0171978   9.0100884
  50.7783890  13.9673054   8.1142700  72.2850418  65.0993824  17.9562342
  71.6008711  64.8006058  18.5553002  72.1383524  64.5964003  17.1551549
  71.7989159  71.3070965  47.5310946  72.2133875  70.4516268  47.6433992
  71.0274792  71.2756062  48.0968904  46.6852474  53.6766672   4.2163762
  45.9948254  54.1398096   3.7419841  47.3586845  53.5100412   3.5568669
  71.1277819  58.7359905  55.4954052  70.7728529  58.5214758  54.6327114
  70.5401134  58.2988024  56.1116409  76.5576172  62.8837729  54.1700792
  76.4239836  61.9469357  54.0261889  76.6745520  63.2466650  53.2920885
   0.2968129  71.1975479  56.1519957   0.6526013  71.6604519  55.3934669
  -0.3084304  70.5565262  55.7791615  73.6260176  74.6734285  47.7509499
  72.8727531  74.9524450  47.2303963  74.0040398  73.9471722  47.2550774
  33.1768084   1.3970827  50.3006124  33.4177184   2.2882539  50.0476122
  32.4805474   1.1547263  49.6901083   3.6908171  21.2211299  13.3125055
   3.3041969  20.3546882  13.1858778   4.0148664  21.4677358  12.4462438
  22.3446774  23.8166618   6.3031012  22.1972919  24.3354559   5.5123025
  22.5862312  24.4596243   6.9697988  13.0904818  18.2824337  15.2598727
  13.0923915  18.4949815  16.1931729  13.3555567  17.3634100  15.2229822
   7.2645074  12.1001172  33.6027622   7.5904906  12.3461819  34.4684505
   7.7369773  12.6717126  32.9975486  70.7612228  27.7965736  45.8374786
  70.8246183  28.3280873  45.0439358  70.7355595  26.8939948  45.5197906
  17.3096502  14.8814106  14.8916793  17.1442330  15.0292981  15.8228064
  17.8875637  14.1186881  14.8692691  79.0602398  44.4007444  17.7648628
  79.5658731  43.5928440  17.6761854  78.9319754  44.5007086  18.7081492
  11.9702327  17.1915329  24.2410636  12.3243201  16.3429594  23.9750242
  12.7386224  17.7562165  24.3243670  23.7916470  17.7162766  52.4897099
  24.2051220  16.9775009  52.9363441  24.1258669  17.6720536  51.5938473
  74.1311169  60.0365639  13.0970776  74.5136929  59.1601467  13.1390154
  74.2273188  60.3826046  13.9843392  71.9059944  32.1345925  15.0134802
  72.1262312  33.0568075  14.8821330  71.3240671  31.9210815  14.2840946
  11.4958692  20.3385949  33.6994505  12.1031463  21.0444736  33.4776831
  10.8436656  20.3548503  32.9990220  27.1843028   2.0500490  40.3907681
  26.4929628   2.6854718  40.2049732  27.8536105   2.2239418  39.7289395
  45.4903269   3.5607606  51.1812878  45.0612593   4.3947875  50.9901524
  46.4210749   3.7317255  51.0373878   1.2446316  26.4352965   3.4553519
   1.7339104  25.6302738   3.2857174   0.4532383  26.3511586   2.9235163
  63.4931850  11.6015148  56.3197470  63.5846281  11.2265658  55.4437971
  62.6264095  11.3192952  56.6117954  70.2600622  17.5911748  15.0819933
  70.2003479  17.9814959  15.9539545  71.0975170  17.9014254  14.7375417
  72.3622799  71.4463854  22.2031379  71.8046761  72.1974993  22.4059558
  73.1785440  71.8327856  21.8859029  62.0966911  29.6419191  36.5667343
  61.5761137  30.0616789  35.8818769  62.9861689  29.9652934  36.4235783
   3.6541796  19.6014965  28.9476776   4.4624045  19.7075284  29.4494343
   3.4653538  20.4769897  28.6099100  44.4752645  19.9862921  31.0121226
  44.4364119  19.3661261  30.2840304  45.4022598  20.0207448  31.2481880
   2.7235651   8.3329344  35.4834270   2.7175042   8.3826339  34.5275354
   3.1827477   7.5158828  35.6778741  14.4822180  45.9129667  46.9113445
  14.1405380  45.1249361  47.3338318  14.2894959  45.7891846  45.9819555
  42.0672321  17.1003914   9.4687957  41.9494867  16.4473331  10.1586390
  41.7770958  17.9221022   9.8648292  10.6689811  18.6994314  30.4710841
  10.2648020  18.6261988  29.6064997  11.2724364  17.9578316  30.5169630
  58.3694744  18.7224722  37.9324627  58.7154388  18.3868611  37.1054745
  57.5405693  19.1377616  37.6943851  15.2779794  20.8887911  45.6218672
  14.9593389  20.0171447  45.3874922  14.5648408  21.2760019  46.1295414
  49.1381311  35.2482104  10.0091016  49.9471331  35.6609726   9.7068161
  49.1778755  35.3136396  10.9632349  30.2176452  22.8380084  21.4161491
  29.7870779  22.5037384  20.6293130  31.0903955  22.4453783  21.3967371
  68.9480829  13.7518513  40.6939507  69.2365551  14.6246111  40.9609842
  69.4748354  13.1530869  41.2233353   6.5330076  31.8350530   5.6087822
   6.8858343  31.1141586   6.1303723   5.6394446  31.5637112   5.3986615
  31.5739894  34.3335199  37.4679613  32.0543313  34.9449801  38.0261898
  32.2530985  33.7906504  37.0675468  26.9336939  13.9911425  41.5341043
  27.1034741  13.3741903  40.8222246  27.5560641  13.7445736  42.2182751
   5.3934437   5.4201907  48.5804987   4.5069525   5.0853133  48.4455061
   5.7600749   5.4895788  47.6990223  56.4750338  65.4391336  60.6915426
  57.1566343  65.5602741  60.0305033  56.6165352  66.1516714  61.3148403
  28.6615896  32.8349161  18.8088870  28.5280800  31.9103742  19.0177572
  29.5239711  33.0399632  19.1701186  72.1865988   4.2612454  -0.2901475
  72.3921108   3.3946797   0.0606519  72.1143436   4.8214912   0.4825979
  10.9398413  63.7155962  36.8395829  10.5723941  64.4997692  36.4318013
  10.5651355  62.9888582  36.3419104  10.9231400  23.0881977  24.1113806
  10.0245082  22.7838159  24.2380476  10.8762693  23.6613369  23.3461714
  66.2483025  18.1700516  23.1033731  65.6143188  18.7699354  23.4963560
  67.0939064  18.6017191  23.2252312  61.4644575  75.1162243  15.9615445
  60.7154083  74.5939732  15.6744754  62.0034075  74.5057106  16.4645743
  76.6295910  46.6473484  21.7230272  75.6772041  46.6034698  21.6377616
  76.9595337  46.3744116  20.8669472  50.2912188   5.3086561   1.5314247
  50.2260780   4.6125185   0.8776810  49.5284653   5.1799023   2.0952198
  55.8809280  15.5225122  27.6706076  55.9634495  15.5044699  26.7171407
  55.1421642  14.9434495  27.8580761  36.8641186  39.6205807  64.9337149
  36.5188837  39.4436812  64.0586424  37.2377658  40.4995775  64.8706055
  78.5422802   7.8264678  37.5537276  78.4160709   7.9920065  36.6194344
  77.9851627   8.4719270  37.9887342   7.4631244   2.6989949  16.1939609
   8.1308669   2.0444846  15.9891009   6.8283606   2.6247168  15.4813671
   6.1489469  11.5136194  30.2921820   6.8747556  11.8403339  30.8238697
   5.9963918  10.6254971  30.6149793  17.1037102  19.5639086  30.0683975
  17.2373819  18.8305056  30.6687999  17.9553461  19.9990594  30.0284910
  75.5692768  13.1120706  37.6443648  75.4260683  13.7165070  36.9160914
  76.3257408  13.4709466  38.1082654   7.8457952  43.9447594  49.5766783
   6.9295514  43.8711691  49.8437262   7.8686768  43.5739708  48.6945105
  13.4490120  22.8898716  50.7384634  14.2266929  22.4342060  51.0606575
  12.7423072  22.2505879  50.8285666  22.6392221  72.2799063  36.9446039
  22.2173429  73.0391359  37.3468661  23.5073495  72.2473907  37.3465109
  78.3111238  16.1895895  53.1204176  77.4649572  16.6366684  53.1017351
  78.9161825  16.8046415  52.7058697  67.7371836  23.4093356  44.0674305
  68.0129242  23.5761380  43.1661129  68.2107210  22.6167393  44.3199778
   0.6680782  62.0727873  17.0920908   0.7470776  62.6819277  16.3579655
   1.3382834  61.4097691  16.9263649  76.5860701  60.1987076  41.7410612
  76.5449762  60.1697445  42.6969385  76.9709539  61.0525942  41.5436363
  32.1508813  25.7429242  34.4342303  32.7645946  25.8853579  33.7136054
  31.8053198  24.8629832  34.2841554  71.6848707   4.7576830  36.5444016
  72.3958683   4.2675292  36.9572783  70.9527969   4.1415486  36.5183401
  54.3241119  13.5954607  43.5387802  53.8066053  14.2825115  43.1188059
  53.8364649  13.3804953  44.3339014  10.7498217  45.7344055  36.8376255
  10.6855631  44.8023224  36.6294932  10.1237440  45.8644819  37.5499034
  17.2168231  59.7397184  30.4926634  18.0483866  59.2662859  30.5169821
  17.2884393  60.3858471  31.1952448  28.6382556  12.0570481  21.7025399
  29.5924520  11.9840121  21.6823387  28.3472157  11.2675011  22.1587682
  64.7382259  40.0527191  54.6570921  64.7482586  40.4800844  53.8006496
  64.9385595  39.1356993  54.4695330  15.7238388  72.9107332  15.2395582
  16.2793934  72.3869181  15.8168042  15.4635537  72.3063278  14.5444453
   4.1983026  35.5463552  26.9377136   4.6459618  36.3343930  26.6297698
   3.4544381  35.8752251  27.4424338  79.1994381  73.4747362  54.0918732
  78.8467550  73.2955170  53.2202530  78.9535761  74.3829727  54.2676353
  42.6076937  23.7482691  21.8501806  43.4369612  23.5122800  22.2659373
  42.3349810  24.5494032  22.2974420   4.9570948  46.0171604  39.5358253
   4.9831963  46.6023922  38.7788200   5.6425071  45.3716612  39.3632817
  72.5243044   1.0048928   5.0545257  72.5215721   1.1138432   6.0055012
  73.0240011   0.2019372   4.9068764  56.0543251  15.9773123  48.4793997
  55.3867674  15.9561145  49.1650724  55.9692764  15.1331997  48.0361462
  22.1574879  29.8567605  62.2959137  22.6273513  29.0342855  62.1580887
  21.2383914  29.6356320  62.1456051  31.1426592  28.0658674  29.6770978
  31.0047770  27.9802012  28.7337637  31.7867255  27.3897123  29.8873949
  13.6417294  42.9428577  46.2968683  14.2290473  42.1875000  46.2698507
  12.8601563  42.6225567  46.7471838  37.2707701   0.7133942  64.2257738
  36.3460302   0.4678055  64.2536402  37.7128768  -0.0580221  63.8712454
  32.5093102  30.5929613  46.2280178  32.1473694  29.7302556  46.0256100
  32.8846335  30.4959106  47.1032000   8.6000872  10.9017634  26.9434524
   9.3298596  11.0802674  27.5365806   7.8752029  11.4201605  27.2927952
  70.4281139  33.6291957  62.9486513  69.5099163  33.4142351  62.7845287
  70.7610178  33.9215422  62.1001577  25.0874734   1.6971551  15.4295373
  25.6472754   2.3750857  15.8080399  24.5959949   1.3493577  16.1736596
  28.2225609  10.8288479  31.3878703  29.1185403  10.7825661  31.7215014
  28.1515789  11.7067742  31.0131168  47.5222921  19.5398724  30.8376145
  47.6528311  18.6530864  30.5017543  48.0569696  20.0928712  30.2679300
  56.5026188  65.4591942  44.0481138  56.7667913  65.9323454  43.2590818
  55.5591536  65.3330517  43.9471483  26.2878203   1.7112793  54.3412161
  25.4256487   2.1077414  54.2158747  26.8848705   2.2763768  53.8508797
  13.2550406   7.5668478  20.4868865  12.8291619   7.7875888  21.3152194
  13.8635087   8.2890260  20.3304982  34.6453190   7.6299286   7.4515814
  33.9024377   7.5373322   6.8551022  34.9427795   6.7330974   7.6046896
  58.0909348  19.0536714  33.1428957  58.8353205  18.5182250  32.8682685
  58.2746983  19.9216175  32.7835488   7.6580852  19.1191173  46.2142944
   7.9692787  19.5427537  47.0142460   7.5213689  18.2054365  46.4647532
  69.9750996  14.5470309  51.2347555  69.8632908  13.6502850  50.9191942
  70.9217024  14.6886230  51.2235022  29.3143272   4.9959111  33.6707354
  29.6447492   5.6633240  33.0693913  29.9101233   4.2553553  33.5574341
  74.0069389  46.0029221  43.1389856  74.8987865  46.1937380  42.8484249
  73.4472227  46.4299870  42.4904728  27.6539016   3.6637029  19.1507423
  27.5671911   2.9181162  19.7447228  27.4219942   4.4235393  19.6846890
   9.6650195  31.1049151  32.7061462   9.5691729  30.3665519  32.1045947
   9.0349102  31.7532921  32.3918200   7.5639856  53.0526733  37.4265742
   6.6783798  52.8087854  37.6957417   7.9477996  53.4574699  38.2044315
  19.6650779  34.3881035  12.4561834  19.7973847  35.2642393  12.8182769
  18.7216914  34.2409039  12.5239074  73.1463671  69.4703007  56.2538099
  72.8633070  70.3645182  56.0628033  72.7605343  69.2741537  57.1075583
   6.2775761  12.7673101   1.8233712   5.4480004  13.2328820   1.7171682
   6.9362384  13.3696187   1.4775099  36.5181684  67.7412271  50.7454062
  37.1729350  68.2475424  50.2646160  36.5957355  68.0464506  51.6493130
  28.6936641   1.6175506  46.0609770  29.4815302   1.7442372  45.5323458
  28.7599707   0.7166679  46.3775921  20.3429365   2.8283212  29.6186018
  20.5169058   3.7352663  29.8704290  20.5840278   2.7862376  28.6932182
  17.8593278  34.1301441  45.4153776  17.3952341  34.9169517  45.7013512
  18.7256956  34.4439721  45.1562405  18.5385263  40.1996374  38.9501715
  19.2002702  40.4479647  39.5956635  18.0137706  39.5309019  39.3902373
  20.9481263  47.5075006  14.1875267  20.7254338  47.3249197  15.1003814
  21.1238027  46.6468906  13.8071060  27.3692346  36.1890650  63.8100290
  27.2496843  36.4372277  62.8933191  26.8445587  35.3952050  63.9136362
  33.0177140  31.0261631  23.1348443  33.0459690  31.6837978  22.4398971
  33.7388849  31.2628555  23.7180448   2.2016202  35.9874201  37.3553920
   1.7373107  36.2973261  36.5778279   3.1233171  36.1698604  37.1725750
  37.9970479  23.1197238  27.9653120  37.4587369  22.5047088  27.4671030
  38.7232184  23.3319330  27.3789024   7.7378845  37.9369307  38.5899878
   8.6167395  37.7698517  38.9304733   7.4702936  37.1051264  38.1991816
  23.1125593   3.1204790  32.4499798  23.3182454   3.7929982  33.0993223
  22.3415804   2.6755592  32.8019309  67.2231436  24.3205571  15.7227111
  68.0230093  24.8213053  15.5623865  66.8002415  24.7720957  16.4531195
  75.2611351  67.5046968  44.8235941  74.6955490  68.1615686  45.2296257
  75.3783131  66.8381500  45.5005121  23.0509377  54.5967054  51.7942286
  23.8016653  55.1801395  51.6835785  22.2892570  55.1527166  51.6301441
   0.8814575   1.6227199  36.2561989   0.0753729   1.8811724  36.7030358
   1.5086782   1.4700004  36.9629550  64.3207598  62.8872108  34.9010468
  64.2618704  62.0088053  34.5253229  64.7894621  63.3988285  34.2416549
  64.8344755  73.4922361  30.6856728  64.1467381  73.9965391  31.1203313
  64.4159651  73.1463337  29.8973608  37.4866390  10.3126705   9.2409819
  38.3735490  10.6554008   9.3512636  37.4358201  10.0729990   8.3156675
  17.9028606  21.4398098  23.8794613  16.9949913  21.2187028  24.0871072
  18.0842471  22.2216916  24.4009924   6.1076063  14.5012093  31.5613222
   6.1577094  13.6722207  31.0854030   5.1744437  14.7139859  31.5741754
  14.7908783  18.7917471  42.0776510  14.6359468  19.4912100  41.4428425
  14.1721904  18.9698088  42.7859974   1.0577799  27.1806216  64.7053957
   1.1322000  26.2433434  64.5259380   0.5609833  27.5276423  63.9644527
  55.3645372  73.5519457   2.6581132  54.6132898  73.0134726   2.9069197
  55.7819176  73.0665779   1.9464661   2.4311647  25.8458447  41.8469477
   2.3076884  26.7156720  42.2269249   3.3454251  25.8358169  41.5636444
  14.3146718  32.8580809  20.9930301  14.3675637  32.8040671  21.9472408
  14.0532398  31.9794536  20.7175255  10.0962412  42.6270533  18.1016684
  10.5831861  42.4255133  18.9007294  10.7325363  42.5070143  17.3967218
  23.0345702  33.8630557  64.2954111  22.6051998  33.7672424  63.4452963
  23.1501079  32.9657006  64.6078777  67.8211498  22.5596881  59.9977398
  68.3210278  22.6423049  60.8098507  68.4747314  22.6485944  59.3040848
   6.9827354  17.6979101  51.0604572   7.6791495  17.6514959  51.7155027
   6.8670690  16.7934179  50.7693481  13.2716393  23.9038086  22.6024270
  12.3554552  23.8950682  22.8794861  13.7628901  24.0794277  23.4049630
  75.8680487  36.9320631   4.0313849  76.2846613  36.2316728   3.5292727
  76.5683317  37.2803140   4.5832494  66.1972761  10.7048452  42.7058887
  66.6601276   9.8933822  42.9145241  66.4743900  10.9162319  41.8143988
   4.1983101  52.2714424  18.2028663   4.1465193  51.6775370  18.9517510
   3.3011669  52.3192406  17.8725922  73.0591631   8.0354762  12.5488806
  73.1439590   7.1687961  12.9462564  73.3337355   7.9103643  11.6404819
  68.7464619  29.8476720  43.2495737  68.8163185  30.5264068  43.9208937
  67.9224348  29.4015145  43.4448957  58.5372400  19.1124249  45.7604694
  58.3415890  18.9399779  44.8394823  59.2730188  18.5340679  45.9613848
  50.0806093  13.9850569  34.7302818  50.3008556  14.8990190  34.9102759
  50.3500700  13.8481438  33.8220525  51.9489527  33.2077479  48.6240435
  52.8644848  32.9290485  48.6052895  51.7534351  33.3255124  49.5536327
  28.5439157  20.9396148   3.5569337  28.8370800  20.4379630   2.7962554
  27.7484512  21.3816881   3.2602167  30.3579593  49.8492050  18.5053337
  30.1669478  50.1411724  19.3966818  31.3117218  49.7731066  18.4774399
  76.5997648  17.2232831   5.8025980  76.8655539  17.2751176   4.8845011
  76.5056849  16.2859297   5.9721529  78.7319899  22.5091219  54.0326929
  78.5827589  22.5476813  53.0879831  79.5882225  22.9186225  54.1568327
   9.0382338  22.4849582  14.6526706   9.6200502  21.7463541  14.8320735
   8.2359093  22.2799540  15.1327562  14.4064689  31.7621136  49.7095299
  13.5663462  31.9241977  49.2803955  15.0392818  32.2617054  49.1935921
  46.7591810  70.0229025  55.3902864  47.3635054  69.9581051  56.1297607
  46.3746881  69.1493130  55.3179216  71.7481613  48.0124092  22.8201413
  72.2358751  47.4860811  22.1866226  72.2236252  48.8422775  22.8586149
   2.8934589  12.0715296  43.4844971   2.3247112  12.6135468  44.0312815
   3.3917263  11.5427387  44.1076660  30.1756334  37.1725535  48.2011127
  30.5466294  38.0454636  48.3300400  30.6759310  36.6099739  48.7922430
  58.7817240  60.3926897  15.1228571  59.2517853  60.1501846  14.3250680
  59.3432760  61.0440636  15.5430961   3.0798471  47.5480461  44.6417046
   3.7629631  47.0409679  44.2030048   3.5321972  48.3247137  44.9709415
  52.0415115  68.6805534  40.8393049  51.6979980  68.3923769  41.6849899
  51.5472031  69.4751930  40.6382036   0.8343685  52.2481060  18.7582767
   1.4983661  51.5979958  18.9878297   1.1454330  52.6283979  17.9367840
  51.7785549  72.8426886   0.4527848  50.9538651  72.7517605  -0.0245579
  52.0759487  73.7297010   0.2503040  54.1144943  13.5017681   3.8392907
  54.3251228  14.1439307   4.5171523  54.2563391  12.6538801   4.2602390
  40.5762672  63.4901094  13.7379825  40.8588028  62.6364899  14.0662134
  40.7654428  63.4606743  12.8001237   4.1869694  60.6351948  16.9140351
   4.7210401  60.0087214  17.4024332   3.4236392  60.1309204  16.6324949
  40.1722145   4.4772473   7.1540004  40.9966755   4.5069778   6.6686028
  40.2409267   5.1921320   7.7868122  59.8222733  29.9106288  54.1680670
  60.7451534  29.7301269  54.3467903  59.7866249  30.8563280  54.0244865
  60.7307673  29.1271281  42.0061970  60.4447794  29.4150996  41.1392975
  59.9180508  28.9837337  42.4911356  66.8501663  58.5997200  33.4644532
  67.0631742  57.6945257  33.2375574  66.4037514  58.5363007  34.3088007
  75.8574486  11.1069906  35.0081992  76.0308313  10.9671509  34.0772772
  75.0193834  11.5689886  35.0289845  78.2753992  48.9017868  15.4280508
  77.8257084  49.2610645  14.6632457  78.3230305  49.6333694  16.0434771
  13.0686915  30.2941751  41.9178152  13.3970225  30.5293632  41.0499954
  12.7132785  31.1106992  42.2688150  20.1547122  20.8823705  58.1479168
  20.8340144  20.2086210  58.1188726  19.4012785  20.4816961  57.7142906
  26.9371867  10.9089029  64.6923733  26.5520430  10.9783614  63.8188314
  26.8872786   9.9764276  64.9026823  19.9547088  23.8495827  46.1691475
  19.8109007  23.8090754  45.2236795  19.1304970  23.5464811  46.5499830
  43.1437588  27.0190954  35.0981283  42.8608513  27.1439910  36.0039949
  43.5511112  26.1529207  35.0916862  12.1350348  41.5251732  22.7287841
  11.4965749  41.9186926  22.1340227  12.9122829  42.0775890  22.6453996
   7.7556187  29.4726920   9.9170601   8.6676377  29.4106817  10.2009749
   7.3973280  30.2039266  10.4202068  74.5432472  37.0510912  25.3002763
  73.5976696  37.1229839  25.4304433  74.8709726  36.6851640  26.1218143
  27.3707032  23.7244391  37.3406982  27.4319148  24.3431354  36.6128922
  27.9973722  24.0512586  37.9862285   4.4329154  10.5886745  20.7090688
   3.9719331  10.8802497  19.9224865   4.1927484  11.2291121  21.3786864
  28.9969873  19.4428813  19.3842232  28.2304430  19.0207052  18.9963961
  28.8924980  20.3704333  19.1721845  50.4182053  53.9175653  18.5214615
  50.3751564  54.1156149  17.5859630  51.1195135  53.2705355  18.5972774
   9.6760774  36.3778615  35.7942367   9.4971603  35.5715036  35.3104925
   9.0450853  37.0093727  35.4488754  20.8357525  74.4907188  32.3608184
  19.8959422  74.3120098  32.3932505  20.9684038  74.9228859  31.5170979
  52.3984241  60.6840515  41.0239792  51.7002821  61.1674023  41.4657927
  53.1068277  61.3206053  40.9280729  53.6550617  70.1382351  15.3738081
  53.5887814  69.9819374  14.4317842  53.3628178  71.0425901  15.4876924
   5.4712021  27.9508758  60.2649927   5.4750472  28.0378008  61.2182283
   6.3620710  27.6778674  60.0457859  16.4789748  57.0962191   6.8873453
  15.9163308  57.6174736   7.4600244  17.2968721  57.0026684   7.3757327
  25.9227610  15.1034462  50.0363016  26.7417169  15.0261784  50.5257654
  25.3569007  15.6328237  50.5982542  33.1344700  54.0572119  26.4447594
  32.8187203  54.8727942  26.0557055  32.3440766  53.5343695  26.5794563
  20.7598996  52.4032593  28.5612655  21.5796518  52.8614235  28.7465310
  20.5875063  51.8916845  29.3517113   2.4474505  49.7995090  24.7691727
   2.5809711  50.4039717  25.4992604   2.2493421  48.9608049  25.1857758
  49.6261644  62.9118872  15.5560315  49.4921732  63.8024759  15.8802652
  48.8856220  62.4159479  15.9051323  36.9634938  39.6517205  30.4266024
  37.1934509  40.1281834  31.2243080  36.5113997  40.2975941  29.8837519
  72.8772736  32.0753813  55.0163889  73.0782223  32.3371744  55.9148979
  73.0671215  32.8533936  54.4920921  34.2732620  56.2676334  19.4593537
  33.5023904  56.8072844  19.2839527  35.0104976  56.8746042  19.3937922
   8.8514358  56.3981962  52.9699993   9.0947878  55.7158709  53.5956526
   8.7292933  55.9321928  52.1428585  75.3054237   5.4902446  37.1696234
  75.2417946   6.1355698  36.4655352  76.2180519   5.2023107  37.1488571
  13.6161125  29.8192453  22.7104473  13.4991980  29.0020251  23.1949186
  12.8452754  30.3415751  22.9322910  18.1199145  43.9032650  22.8614640
  18.8255334  43.6916447  22.2502756  18.5034263  44.5478535  23.4561563
   1.4436759  14.4302320  26.6694450   1.0098359  13.5796964  26.6016006
   0.7447054  15.0678885  26.5243006   8.1698990  31.8770528  47.9303265
   7.3359102  31.9858599  47.4733210   8.2779133  30.9292436  48.0092096
  11.2171352  46.5489197  53.9357519  10.7910955  47.1034050  54.5894051
  10.5507791  46.4188957  53.2609940  35.7875776  35.3688240  42.6141214
  36.3285041  34.8575020  43.2159328  36.4055514  35.7101393  41.9677114
  46.5546942  58.1228065  41.2235022  45.8113861  57.5373030  41.0789108
  47.0371723  57.7231359  41.9471836  74.4989824   5.5491674  49.6332979
  75.4412699   5.6471449  49.4964695  74.1159725   5.6817734  48.7661505
  71.8919992   5.6639034  42.0547295  71.1601353   6.0169995  41.5488338
  72.6176167   6.2619162  41.8755770  41.2124300  70.7955790  17.0148015
  40.8856058  71.6946650  17.0473886  41.7811012  70.7751989  16.2451041
  12.8858519  56.0709143  48.4659195  13.2184768  55.3068399  47.9949808
  11.9580805  55.8811188  48.6053848  61.2900352  51.4106417  32.6695609
  61.4681721  51.8093491  31.8177772  61.5869045  50.5053568  32.5770473
  66.3330984  69.0301657  41.7005348  65.7740688  69.5790482  42.2504902
  66.8535471  68.5204315  42.3214483  71.0024595  26.8356419  21.1666703
  71.5621710  26.9612956  20.4004025  70.4655552  27.6272273  21.2034893
  43.8581467  72.9506540  32.4880314  44.7459078  73.0897093  32.8178430
  43.5843468  73.8100481  32.1675539  64.9590826  40.6335735  44.6153736
  65.5692530  39.9073815  44.4866467  64.5763397  40.7809973  43.7505054
  34.3472815  73.9307022  56.2391615  35.2454352  74.1532469  56.4841604
  34.0661120  73.3026981  56.9045830  60.9555674  72.4161863  24.5236254
  61.5353394  72.3360443  23.7662125  60.0877380  72.5611448  24.1466832
  66.9697714  13.8481534  29.3698740  67.2257519  14.0467405  28.4691691
  66.0133505  13.8856637  29.3608665  30.5011010  17.9217446  26.4171672
  30.1192141  18.0480242  27.2857571  29.7476411  17.8763342  25.8285522
  51.3691282  23.9493775  30.9285688  50.5781841  24.1592908  31.4251328
  52.0616055  24.4522905  31.3572741  74.1847944   8.0540806  62.6132727
  73.3698797   7.5741243  62.7608776  74.2056036   8.2058340  61.6684103
   1.4781205  15.3069913  21.3146687   1.3989893  15.9682047  22.0022488
   0.8816744  15.6036592  20.6273031  74.3269396   6.7258382  19.2474985
  74.0029430   6.6874033  18.3476210  75.2065468   6.3511145  19.2015707
  20.3636003  68.0861521  28.4332061  21.2993312  68.2864857  28.4557629
  20.1788211  67.7080250  29.2929196  72.4197149  43.7244129  43.6855745
  71.6739655  43.9327860  44.2483091  72.8830767  44.5558453  43.5843563
  54.1648579  61.0019588  17.0651972  54.3467665  61.7280293  16.4685774
  54.9489117  60.4545498  17.0223403  72.2895622  23.3160377  38.9835572
  72.6080608  22.5438619  38.5160828  72.6472473  23.2257557  39.8668122
  77.1503973  40.8823776   6.1515403  76.4832258  41.2555361   5.5754596
  77.5310087  41.6384459   6.5984589  17.8802085   3.2430801  34.5064259
  17.9982281   4.0935308  34.0832973  18.2998598   2.6200840  33.9131284
  12.9680121  17.5027466  40.3499126  13.6861956  17.7840197  40.9167671
  12.2152007  17.4279642  40.9363508  43.8772297  73.2526636  53.3511448
  44.6823502  73.0943251  53.8440371  43.6139774  74.1384983  53.6005926
   2.5916111  54.9948883  51.0895920   1.7731114  54.5183659  50.9509754
   3.1473652  54.7351503  50.3548050  13.7009370  10.1812208  18.6795545
  12.8231966  10.4439807  18.9566112  13.5581017   9.4097781  18.1311870
  10.2309811   4.4927421  12.6299703  10.5168033   5.2903187  13.0754018
  10.4515517   4.6399084  11.7102301  13.9264691  53.2688475  49.2614222
  13.0472898  53.6356306  49.3549490  14.3396223  53.8064098  48.5857296
  52.9021215  49.9276209  33.4485078  53.1949902  49.0240192  33.5666871
  51.9808769  49.9167156  33.7081623  69.1767216  12.4401915  49.7949314
  68.8026857  11.5943253  50.0415897  69.4848108  12.3133242  48.8975906
  49.0084696  66.6464758  40.7694960  48.9837694  65.6973124  40.8907700
  49.0362310  67.0008516  41.6582441  57.2881603  56.9305801  55.8895969
  58.1179810  56.6349506  55.5151224  56.7090940  56.1718035  55.8176422
  65.5269051  43.7146282  20.8370042  66.3573885  43.7309217  21.3126707
  64.8584223  43.7601233  21.5205956  14.0707195  73.7307978  32.1483684
  13.4932232  73.5884333  32.8983426  14.0223765  72.9146767  31.6505313
  55.7211781   3.7860957  33.7317157  55.1309395   3.5751948  34.4551587
  55.4986477   4.6866813  33.4957981  59.0404844  69.7457743  39.1302323
  59.7281837  69.8596478  38.4742332  58.2313156  69.6905994  38.6218667
  78.0008411   3.0908257  57.2321653  78.2885885   3.7458175  57.8681040
  78.7131357   2.4518733  57.2074604  62.5063324   5.5344081  44.5180702
  62.8107548   4.8582944  43.9127350  61.8945026   6.0597217  44.0023756
  79.0089130  58.8566780  18.6568499  79.4930506  58.0903006  18.3494246
  79.6844006  59.5110178  18.8351476  45.4915094  24.5384121  33.1654263
  45.3850222  24.3915105  34.1052723  44.9479628  23.8659739  32.7547979
  35.7981610  42.8208780   7.0020050  35.3742766  43.5366344   7.4755579
  35.3854108  42.8275108   6.1383939  28.2329369  13.3433485  43.8927269
  27.6089573  13.5327220  44.5934582  28.4738898  12.4268711  44.0277958
  35.0884557   0.4920432   1.4539661  35.3625059   0.3568529   2.3610775
  34.3407702  -0.0945911   1.3396868  72.5946617  73.9297962  18.5386527
  72.9915380  74.6832037  18.1015027  73.3327532  73.3561659  18.7445593
  11.1767840  25.6006861   1.2293768  11.4705253  25.7177424   2.1328402
  10.7511055  26.4286160   1.0067496  62.1683216  14.0485549  36.1137295
  61.8369055  13.1632531  36.2641788  61.7765522  14.3127131  35.2812815
  56.5013695  61.4230680   6.5656352  57.0430279  60.7556152   6.9867516
  55.9842873  60.9401608   5.9209204   3.3353376  66.7301512  26.8491030
   2.6151675  67.2657585  27.1818352   3.8904852  67.3458242  26.3705778
  41.9969130  15.2908015  26.2564397  41.4491320  16.0706913  26.1673379
  41.7239189  14.7227788  25.5359840  20.4942966  68.1802988  49.0096760
  19.8483765  67.7581024  48.4433079  20.0012851  68.8588572  49.4708967
   9.0633810  32.0233464  54.0222311   9.8911798  31.9909883  53.5427189
   8.6573660  32.8443146  53.7440300  46.2779617  62.0876217  43.6027813
  46.1648130  61.2333965  44.0195847  45.5931711  62.6345348  43.9877224
  42.8040695   4.7801092  32.7466178  43.3067799   4.1114959  32.2813559
  41.9659233   4.3594086  32.9383397  54.6261787  56.7125702  36.4254951
  55.0008583  57.5754499  36.2486005  53.9603949  56.8730688  37.0942307
  62.0277023  67.1894264  24.0056372  61.4070511  67.8864479  24.2181969
  61.5430117  66.6074181  23.4203410  61.9864893  72.0492744  60.9309387
  61.2324619  72.4694157  61.3446474  61.9884825  71.1595583  61.2839699
  67.9876137  15.8157301  23.4229374  68.7974548  16.2990677  23.2593012
  67.2942924  16.4670432  23.3165097  39.1828156  61.0565519   3.1691286
  39.1691852  61.5885592   3.9647508  39.1264153  60.1541710   3.4834000
  54.5839262  74.7930002  21.3205457  53.8142920  75.2224255  20.9470582
  54.2391253  74.2716551  22.0454860  75.7198954  47.7658939  39.4796824
  75.4913712  47.0388031  38.9005899  76.4037514  48.2416916  39.0083146
  76.9079876  28.5429716   9.8025572  77.7725935  28.2002378  10.0288701
  76.8886995  28.5313582   8.8456219  49.4109058  10.2583730  52.5354528
  50.1517153   9.7576338  52.1938467  48.7737608  10.2609265  51.8211222
  33.7328672  65.2505827  38.4990144  33.0730700  65.4547310  39.1617537
  34.1875148  66.0796881  38.3503199  33.4032202  15.8064628  28.6914253
  32.6585221  15.4202688  28.2304382  33.9927125  16.0950577  27.9946876
  56.9776011  65.1354313  40.7822752  56.4426565  64.3438768  40.8414841
  57.5236797  64.9981117  40.0082064  56.7349195  66.3062572   4.2815557
  56.6966820  66.4905882   3.3430505  57.6474285  66.0653877   4.4413540
  73.5434389  20.9835887   1.0920469  73.9538670  21.8308640   0.9191278
  72.9516602  21.1494350   1.8258892  46.4951277  73.0533504  32.9193878
  46.5587473  72.3962927  33.6125398  46.9499731  72.6604319  32.1744299
  68.0648232  16.8184936  30.1287818  68.4112692  16.8308806  31.0209990
  67.9934168  15.8887959  29.9124599  41.1511898  64.8690844  44.8648119
  40.5513144  65.6116819  44.7945642  40.9177828  64.3022633  44.1296482
  31.7872834  13.8623106   3.3012894  32.4969649  14.1444552   3.8783312
  31.8831587  12.9112482   3.2510915  50.3469276  64.2622185  55.7062721
  50.5224037  65.0117636  55.1373959  49.4064665  64.3073702  55.8786774
   0.8595095   9.4931620  19.5592308   1.1685942  10.2816439  20.0053191
  -0.0637835   9.4265330  19.8027921  27.3111820  12.8436375  49.1809797
  27.3290062  12.3459578  49.9984360  26.7532969  13.5976887  49.3717670
  66.0446358  10.4996300   4.0304825  65.5848789  11.1010313   4.6162909
  65.8530569  10.8277440   3.1519210  11.6234732  11.9865799  24.1167855
  11.1353481  11.3965428  23.5424852  11.0101545  12.6960719  24.3083405
  40.5857086  26.9811797   5.6701696  40.5422831  26.0302162   5.7702523
  40.0983381  27.3233867   6.4195657  60.7477283   3.2845163  29.3452597
  60.2886724   2.4489075  29.4304490  60.2884102   3.7392345  28.6392236
  47.9644823  57.7745056  24.7560000  48.0509853  57.6934385  25.7058287
  48.6698532  57.2315407  24.4040465  48.1608057  69.1331911   8.7998706
  48.1793118  69.8245049   9.4616717  47.5481892  69.4523191   8.1372297
  31.8824172  36.3877964  28.4157944  30.9349394  36.4945960  28.3314419
  32.0504999  35.4947543  28.1150365   5.9476143   8.7820280  30.8762503
   6.0610694   8.8720655  31.8224287   5.7079434   7.8639519  30.7500505
  37.6049089  73.3221197  28.4591842  37.7369547  74.2644548  28.3552575
  36.6983557  73.1760502  28.1888914  47.3066616  68.8095093  49.4599152
  47.3207664  69.5449400  48.8473988  46.9080400  68.0934763  48.9653158
  13.2579219  20.4793811  30.8361006  12.8226328  19.6351135  30.9542727
  13.1543458  20.6739569  29.9046254  10.5765486   7.8846389  45.7653761
   9.7755295   8.3742142  45.9522343  11.1417556   8.0533886  46.5192270
  48.2557392  29.9282217   2.0849198  48.9687109  29.2913151   2.1323779
  48.4765434  30.5845952   2.7457154  63.7400723  54.6876526  44.6102285
  63.7255955  53.9993000  45.2752018  64.4634676  54.4465351  44.0316200
   2.0790266  61.5130186  55.2000618   2.5496188  61.1860752  55.9667969
   1.5194005  62.2103167  55.5418634  14.8441243  10.0728631  50.4510260
  14.4760108   9.8852599  51.3144636  14.9928284   9.2111635  50.0616741
  73.2678747  18.3707464  44.8308420  72.8179550  18.4113705  45.6747341
  72.7610254  17.7401435  44.3193007   6.6933262  64.3439102  40.3207397
   6.5582782  65.1813412  40.7642460   7.3825216  63.9133835  40.8265924
  12.7950716  64.6813822  20.7457185  12.2013414  64.0035582  21.0686278
  12.2830582  65.4889441  20.7894707  65.4074621  66.5757418  22.4835110
  65.9206343  66.9578171  23.1954813  65.6847858  67.0564842  21.7036295
   3.8180548  51.0591745   0.5818818   3.6898527  50.8442354   1.5057845
   2.9335561  51.0841846   0.2168222  42.8955746  65.0759411  39.0872002
  42.4485779  65.4209948  38.3143044  43.3770275  64.3138838  38.7651706
  57.9312897  56.0750055  48.9782476  57.3561430  56.5902090  49.5439339
  57.3357868  55.5300665  48.4638119  12.6377177   4.0016291   7.6202887
  12.7521336   4.9116480   7.3464155  12.8147769   3.4898928   6.8309802
  10.7963502   8.8817173  27.0656896   9.8967594   9.2027915  27.0034051
  10.9455001   8.7676406  28.0042911  74.0133190  24.7279739  55.0336313
  74.4015932  23.8756609  54.8360634  73.6352444  25.0172281  54.2031956
  64.7427034  69.8966455  27.1987414  65.3138256  69.2014265  26.8720484
  64.8635340  69.8795414  28.1481290  72.1907759  64.4984484  47.6900530
  71.8358135  63.9719391  46.9738007  73.0144835  64.0677166  47.9185438
  40.9494066  63.3525610  10.9481549  41.8001032  63.5092020  10.5382633
  40.3117371  63.5958767  10.2770317  60.1480770  48.5567808  23.4632087
  59.4383955  48.9590216  23.9639974  60.5076122  47.8911066  24.0495920
  21.0260320  16.6578674  46.8287182  20.0902534  16.5180302  46.9736099
  21.4529395  15.9708250  47.3405361   8.1283766  30.3003287  59.2319250
   8.2086843  30.3893042  60.1815939   8.0080855  29.3615890  59.0886402
  26.8716073  67.3680878  41.8102980  26.3562512  67.9987764  41.3074350
  26.4128923  66.5361977  41.6929674  54.3552876  62.0173883  10.1931214
  54.9016380  61.3402796  10.5921853  53.4666109  61.6643763  10.2363157
  66.6045284  44.6199608   9.6634012  67.3443413  44.1571474  10.0567353
  66.1254835  43.9431524   9.1851985  48.4520483  70.9135866  45.0793409
  47.5883102  71.2164068  44.7991896  48.9068174  70.6999111  44.2646265
  50.9340286  63.0671406  25.7442617  51.1326361  62.5287724  24.9781346
  49.9789476  63.1303883  25.7514715  71.0348940  64.0265989  33.4781027
  70.9132099  64.8596668  33.9335418  70.2030373  63.8751936  33.0294108
  49.1739893  73.9534521  44.4633484  50.0278139  73.6565161  44.7780561
  48.7482166  73.1592226  44.1406250  48.5297966  27.7890897  21.7537022
  48.0511951  27.3512292  22.4575853  49.2566967  28.2281518  22.1953702
  16.6234517  26.7060256  23.7966514  16.4037466  26.2661409  22.9753947
  16.0025251  26.3503766  24.4324160   2.5343114  29.0850592  61.9292164
   2.4934962  29.0825605  62.8855419   2.0404747  28.3083534  61.6663790
  25.4268980  10.9970498  58.3566904  26.1921453  11.5720522  58.3558893
  24.7476673  11.5016723  57.9092169   7.2467554   2.0880497  51.6168213
   6.6789126   2.6871938  51.1322451   6.9313067   1.2156507  51.3809299
  45.4383612  60.7274723   9.7742534  44.5189857  60.5378628   9.9614000
  45.9090137  59.9493456  10.0729871  20.5571055   1.7190796  11.2407744
  20.5142164   0.8438911  10.8554995  20.0489616   1.6501287  12.0490253
  75.9739351  55.4537964  41.9153452  76.5620422  55.5102444  41.1622381
  76.5158415  55.0903893  42.6157045  41.6580486  65.4097557  36.2997699
  40.8603001  65.0529337  35.9092474  41.6924191  66.3147116  35.9897590
  62.5724840  69.3319416  21.0498619  63.0476570  70.1073408  21.3485169
  61.6700602  69.4804907  21.3323426  14.3679559  32.9959941  23.7941551
  13.9572048  33.6914349  24.3078446  15.2611041  32.9426360  24.1342592
  69.8235846   2.6839527  26.4204693  69.4422770   2.1879198  25.6960487
  69.1352940   3.2965219  26.6797900  48.6365461  73.2188129  14.9670887
  49.4946337  72.7972507  15.0140333  48.7316370  74.0145016  15.4906034
  13.5094045  52.9233535  65.2000817  13.2558416  53.4156676  64.4193352
  14.4387935  52.7333816  65.0720984   8.9684570  13.9027059  63.8580942
   9.1258669  13.1839550  64.4703436   8.6745685  13.4730554  63.0548096
  14.5044124  62.5882816  11.0219026  13.9076972  63.2362747  11.3964224
  15.1865554  62.4796486  11.6845596  33.7218666  16.6807961  62.1654129
  32.7697253  16.6416287  62.2555590  34.0430593  15.9537864  62.6988220
  17.4292421  22.2085834  18.8292682  17.4986148  22.7684927  19.6025217
  18.2689929  22.3129392  18.3818769  73.1314516   8.7621099  55.2808380
  73.9849854   8.5368961  54.9107170  73.0377579   9.6999091  55.1135540
  48.1728268   4.0206388  50.4607582  48.9528322   3.8887289  50.9996605
  48.5095453   4.3572333  49.6303606  65.8907604  46.8523693  20.0388241
  65.9037733  46.6889858  19.0957618  66.3141537  46.0836315  20.4209518
  42.0030355  62.1144867  46.3050699  42.0061970  61.9383621  45.3642178
  41.2108850  62.6321363  46.4491796   2.7620727   8.0528939  32.8063202
   2.1088709   7.5363421  32.3343754   3.5691184   7.5435019  32.7326345
   7.1638691  63.5041380   3.4568536   7.4374139  63.4590244   2.5406823
   7.9192144  63.1816864   3.9484954  51.4446354  15.3350270  23.1744599
  50.7169533  15.6668711  22.6485443  51.1141062  14.5208013  23.5539603
  25.0429368  21.2626076  33.1282997  25.2971125  22.1337700  32.8238225
  24.0871811  21.2932324  33.1710291  11.5936911   4.2817590  31.5925431
  12.2144735   3.5544184  31.6354060  10.9367979   3.9988184  30.9564090
  59.0583134   1.0832533  41.4370394  58.1515646   0.9011889  41.1902809
  59.1474819   2.0312361  41.3390160  51.6514778  53.8499451  53.4267521
  52.5378275  53.9801311  53.0896044  51.4497471  52.9365396  53.2237148
  57.6380396  19.0243089  53.4159422  58.0317736  19.8545396  53.1477594
  58.3166456  18.5944998  53.9365101  65.9369421  74.1409349  51.8494749
  65.7211971  74.6904659  51.0960102  65.1459026  74.1520023  52.3883295
  37.1757960  63.6502981  59.3122625  37.1590090  64.1486979  58.4952259
  36.8452835  62.7847815  59.0716839  40.1402712  29.3064642  39.4834828
  40.6201363  30.0233817  39.8982024  40.5049801  28.5143018  39.8780680
  54.1226768  73.3049202  28.7631655  54.6055126  74.1293669  28.8213444
  53.6118364  73.2689476  29.5718551  63.1950665   7.3321486  58.8137674
  62.7950096   8.1809855  59.0026140  62.4667740   6.7118031  58.8452864
  78.5465908  67.4117136  44.8709488  78.8662338  67.2729826  45.7624722
  77.9426622  68.1506109  44.9452972  69.9735737  60.4847050  29.9209547
  69.8185253  60.6044102  30.8578992  70.6125069  61.1608839  29.6956110
  29.6009088  70.2266550  16.5985072  29.3391371  70.0494909  15.6950033
  30.5557108  70.2849960  16.5641797  75.4268122   3.1280440  46.5741825
  74.4971848   2.9001385  46.5650511  75.8045959   2.5659215  47.2505951
  63.5353613  14.7155488   9.6372479  63.6083794  14.3545616  10.5207562
  62.7529478  14.3013847   9.2732030   1.3747700   3.2947516  20.5311441
   1.6695310   2.6662129  19.8721385   0.9005672   2.7650946  21.1721015
   8.0452186  54.2812014  26.1459303   7.1228611  54.4769573  25.9811068
   8.1107157  54.2211199  27.0989943  64.3679953   0.7762425   0.8516238
  63.4504938   0.8230501   0.5828616  64.6779585   1.6806126   0.8039965
  18.8797414  10.2664173  25.6126714  18.9461637  11.1908567  25.3734374
  18.0823648  10.2120256  26.1394191  36.6352773  65.5175161  56.8185663
  35.8468747  65.3619671  56.2985134  37.2873163  64.9221182  56.4489985
  61.0921240  63.0998850  28.7820792  61.8849230  63.2212973  29.3045306
  60.9138346  63.9648056  28.4128094  15.1657891  20.7706833  14.0191507
  15.7874250  20.4255509  13.3783031  15.6789255  20.8702469  14.8210299
  20.7456589  33.2357979  14.6937406  21.6240048  33.0097413  14.3877375
  20.4222918  33.8655901  14.0495133  61.8344259  28.4162784  32.7583385
  62.7331161  28.1907153  32.5181150  61.3091469  28.1394243  32.0075583
  51.7620277  72.8998137  45.3145647  52.3491669  72.9574156  46.0683441
  52.3146677  72.5722408  44.6049786  42.0111513  72.0571280  19.3648970
  42.9080534  72.3091125  19.5846879  42.0982122  71.5304518  18.5703754
   3.9767638  22.5449848  27.3239732   3.3527815  23.2600760  27.1993804
   4.5793074  22.6212525  26.5841365  59.2806339  17.2995138  27.4816418
  59.8880434  17.8034842  26.9400692  58.4360552  17.3878551  27.0399213
  27.9270601  67.0700598  35.3331518  26.9857788  67.0314741  35.5026579
  28.0971837  67.9909325  35.1349521  49.6003628  72.2007370  33.5518050
  49.4647455  71.6485453  34.3218184  50.4483223  72.6183176  33.7028718
  63.6816645  10.1077795  48.4628010  64.4907427   9.7902900  48.8638258
  63.5180712   9.5010161  47.7407837  50.2756500  63.8826132  47.8313541
  50.2059126  64.3129683  48.6835051  51.0777807  64.2379332  47.4485111
   6.7690217   5.9296030  36.7853189   6.2602234   5.2770984  36.3040757
   6.1133438   6.5274924  37.1442699  46.3844299  60.8519268  47.1921444
  45.6410646  60.9511995  46.5973473  46.9247150  61.6255617  47.0314741
  66.5516329  49.8690891  15.3772104  65.6714010  49.6300793  15.0868773
  66.4245510  50.2310610  16.2541699  58.6749315   1.1349770  61.7349815
  59.5910168   1.4089739  61.6908741  58.2669163   1.5391293  60.9692001
  71.9167185  46.6431761  38.7275171  71.3301182  46.9253969  38.0257463
  72.2333384  47.4580860  39.1172695  44.7927332  73.5390997  45.3874826
  44.7243071  73.4893656  44.4340277  44.9022675  72.6303434  45.6674719
   1.7128803   2.2642985  38.8351107   0.9916766   2.0969263  39.4418097
   2.4991468   2.0254610  39.3260026  75.9799814  63.8563108  41.5155697
  75.5009747  63.7539434  40.6931925  75.3674555  64.3098402  42.0946693
  64.3161917  72.3050070  13.3724523  63.6930990  73.0303860  13.3298385
  64.2632389  71.9966078  14.2770612  78.7819052  19.3762255  37.2190523
  77.8418064  19.2010188  37.2608972  79.1428614  18.6326742  36.7362761
  45.1750946  66.6440344   0.7560883  45.8060026  66.2543631   0.1508287
  44.3296623  66.5427828   0.3187967   6.4747047  24.6342850  18.5692143
   6.7308736  25.1638412  17.8141117   5.5819190  24.9165678  18.7679172
  76.2537384  71.6945744  19.4380879  75.3257847  71.4732075  19.5163572
  76.3506556  72.5023127  19.9424720  71.7336369  44.3679190  36.8577027
  71.1928654  45.1476288  36.9836044  72.4219561  44.6486473  36.2546778
  52.4244928   7.9138684  31.9647408  52.6906204   8.3240455  31.1418414
  51.9388962   8.5971379  32.4268770  61.1990595   5.1893127  58.8455200
  60.8727694   4.3353730  59.1293335  60.5592632   5.4873586  58.1989431
  72.3367500  21.4644146   3.4829718  71.8885565  22.0441318   4.0988329
  71.9913912  20.5935144   3.6791658  34.4316864  68.0587673  57.5598288
  34.4387102  67.7766848  58.4744930  33.6917806  67.5923014  57.1710062
  15.9816432  47.1295261   6.4116907  15.3237677  47.6891470   5.9990692
  15.5293751  46.7398691   7.1599245   1.3142018  54.4744539   5.9992129
   0.4155514  54.4119930   6.3228762   1.2249552  54.4912577   5.0463307
  12.6788795  47.5266695   7.0131159  12.3707771  48.4326887   7.0339233
  12.6884866  47.2982407   6.0836214   5.0803405  22.4407053  37.5966382
   4.7818357  21.5738535  37.8717661   4.3831089  23.0339837  37.8761363
  45.5701542  40.9826899   1.3526905  46.1425257  41.3435316   2.0297553
  45.5152941  40.0493526   1.5578818  69.6143198  37.6476455  40.9845972
  68.9413261  38.2731676  40.7162046  70.4372740  38.1283164  40.8955050
  44.4112730  62.4532890  32.2592092  43.5128021  62.7119112  32.0540261
  44.8361301  63.2643223  32.5384092  16.4734149  10.3405249  42.0064116
  16.5468848   9.5825404  42.5863218  16.5462017   9.9753886  41.1245918
  61.3432741  60.1539183  48.3792543  61.2575817  60.6646013  49.1842985
  60.8060360  59.3762922  48.5305786  64.2548323  13.6471832  42.6012850
  63.7348127  13.2227612  43.2836914  64.1980743  13.0533266  41.8527222
   9.7975850  65.7346249  23.6056447  10.4045212  65.2250147  24.1424465
   8.9338446  65.3829241  23.8212609  36.1870122  61.3917017  62.9808378
  35.5086827  61.0702181  62.3869085  35.9488344  62.3041487  63.1449795
   8.1260473  13.2105172  46.8811750   7.8697914  13.0539894  45.9722948
   7.3327011  13.5449290  47.2995090  67.6358652  63.9199114   9.0332848
  67.9669809  63.1180143   8.6288595  68.1762838  64.6167326   8.6609644
  49.7479010  34.1334963   1.9479966  48.8377953  33.8907719   2.1183710
  49.9758720  34.7260475   2.6643351  56.9938087   1.1364353  32.1757674
  56.7955160   1.5736015  33.0038977  56.1398125   1.0046992  31.7639804
  21.5591931  11.3403153  18.3132398  22.2173047  11.6739440  18.9230061
  21.0269642  10.7428420  18.8385868   8.8182938  74.9098674   8.8836426
   8.9343106  75.3580296   9.7214508   9.7013246  74.8517832   8.5187924
  21.9810295  18.1102204  10.7509279  21.6729569  17.3621833  10.2392995
  22.6526213  18.5153830  10.2022600  16.8664861  32.8759789  38.6718798
  16.8443620  33.2407975  37.7872038  17.4049544  32.0885539  38.5928464
  34.8012781  39.2704082   9.0305513  34.3288207  38.6712766   9.6085298
  35.3796244  39.7606611   9.6148443  57.8687143  37.9107070  43.9214849
  58.1326580  37.0113659  43.7271786  56.9653749  37.8341460  44.2286444
  60.4975033  57.5938988  38.9455485  60.2952623  56.7312145  38.5834599
  59.6454763  57.9595518  39.1834211   0.2497905   5.4551077  51.1835814
  -0.6462819   5.3035462  51.4841175   0.7959598   4.9790859  51.8091440
  72.5461483  32.6844049  18.2313895  71.8411875  33.2640457  17.9428041
  73.2475662  32.8253508  17.5954831  40.4352379  12.6389444   1.0332558
  40.0003576  13.4881306   1.1106805  40.7840109  12.6288474   0.1419171
  19.5775497  23.3064866  14.4684279  19.5794785  24.0393710  15.0841463
  20.4160142  23.3750796  14.0118074   6.9319481  35.4196906  37.7660823
   7.6658052  35.1759434  38.3302402   6.4425641  34.6060467  37.6447606
  40.3309917   8.1397378  29.9904895  41.1147261   8.3246589  29.4729948
  40.5577421   8.4202111  30.8771420  57.8798723   5.1920724  35.3245044
  57.4086428   4.6500266  34.6917629  57.6345062   6.0897738  35.1005411
   1.4534508  24.8685074   9.9578589   2.3547056  25.1735973   9.8534954
   1.1557220  24.6913314   9.0655595  51.8935776  18.0906284  50.3551769
  52.5107861  18.4493649  50.9928274  52.3825121  17.3967874  49.9127293
  32.6117587   8.2691681  26.7894411  32.9810452   8.3482355  27.6689911
  33.1893277   7.6508427  26.3418698  25.0193000   1.3680333  37.1244216
  24.3944764   2.0270577  36.8219113  25.8189535   1.8617439  37.3061895
  51.4697075   0.7253627   2.0699918  51.0621119   1.1323431   1.3054885
  51.0002184   1.0957952   2.8173807   7.0415163  17.6156342   4.8666471
   6.7961395  17.1631336   5.6736571   7.8860939  18.0196404   5.0658917
   2.9748565  18.2875574  13.0773592   3.4265184  18.1185794  12.2505105
   2.5019678  17.4761009  13.2621491  53.7082958  69.3478155  58.5979414
  52.7789497  69.5063019  58.4323168  53.9213848  68.5866261  58.0581093
  17.8392982  10.3586042  50.6343746  16.9370246  10.6781900  50.6336784
  17.9623175   9.9904513  51.5093374  64.1021919  17.3921192   9.9726719
  63.8902903  16.4588130   9.9562860  64.9875212  17.4430788   9.6123534
  71.5030146  54.8547935   0.9893995  71.0386229  55.6089115   1.3525513
  72.2988987  54.7868967   1.5168391  60.5999899  29.7344708  39.2297244
  60.1360655  30.5645299  39.3393135  60.7803154  29.6829844  38.2910752
  75.8234978  74.2229271  32.1155167  75.3396988  75.0466299  32.1762133
  75.8395243  74.0229797  31.1795688  11.1929989  34.7621059  59.3548107
  10.3435063  34.4466639  59.0464449  11.4469314  35.4288554  58.7166929
  70.4276800  59.4153309  51.7899036  70.9636402  59.0689707  51.0764503
  69.5652628  59.5511389  51.3974428  74.5939636  51.0461569  24.5193100
  73.9912224  51.4451981  23.8918567  74.2336798  51.2747240  25.3761530
  10.7867432  17.3592460  41.8983889  10.1263177  17.9915810  42.1816254
  10.6972766  16.6289735  42.5107050   5.4467714  74.1647339  16.4287150
   5.2405268  74.4754601  17.3102725   6.3450706  74.4577026  16.2755489
  64.0725040  62.1850061  50.8823776  64.6700001  62.8302193  51.2604380
  64.4509125  61.9802713  50.0273180  22.7256536  32.8683591  28.7013888
  23.1231165  32.8532815  27.8307414  23.4110236  33.2168031  29.2715573
   9.0441871   9.2762977  14.7524190   9.9783695   9.4829381  14.7235167
   8.6182147  10.0374269  14.3581331  44.3024445  67.0357752   5.2889538
  43.8495159  66.8657923   6.1149031  43.6155033  67.3446465   4.6982443
  12.4123895  12.5192726  52.6778460  13.2615733  12.8653789  52.4033880
  11.9710028  12.2910607  51.8597221  36.8935847  63.7147570  44.2392302
  36.7607737  62.8633833  44.6560669  36.1156082  63.8392639  43.6956453
   5.3028357  34.8778629  18.3561349   4.9955437  34.9226093  17.4507058
   4.5244932  34.6442890  18.8619590  31.1692715  21.7728400  39.5445967
  31.1883950  20.8335233  39.3614292  30.7971406  22.1635127  38.7539482
  69.8839712  15.3615117  11.0567272  70.2582741  15.3613782  11.9377089
  68.9396715  15.2932739  11.1976898  62.7913284  68.2073593  44.4211769
  63.0310488  69.1327477  44.3720388  62.1385336  68.1658268  45.1200104
   8.1289041  15.9040332  30.3542972   8.8541269  15.7711148  30.9647202
   7.3927057  15.4393542  30.7521892  39.3305039  73.6112404  40.2280569
  38.5195446  73.7020540  40.7283878  39.3554068  72.6876593  39.9778390
  59.1868496  37.9370236  61.9176149  59.4699335  38.6722159  62.4612951
  59.7532845  37.2119379  62.1814919  26.2645221   6.4486384  13.3608270
  26.9569564   5.9360439  12.9436791  25.8030272   6.8649197  12.6328409
  35.1930904  64.7000742  20.7476592  35.0031185  64.9947166  21.6383481
  35.0298595  63.7571001  20.7673860  44.0857315  62.8172445  60.9708309
  44.7921133  63.3169842  60.5615425  44.4558620  61.9446516  61.1043358
  64.1492224  13.8037694  29.9863005  63.8722849  13.1955743  30.6715989
  63.4133530  14.4084597  29.8910379  15.6064868  33.1109166  16.7323768
  16.3860428  32.5671029  16.8454683  15.6119943  33.6976624  17.4886382
  10.8672416  14.8162627  49.9065924  10.2328348  14.4018757  50.4914379
  11.1031938  14.1289616  49.2835569  10.7729435  53.5462284  29.9934244
  10.5529857  53.1536913  29.1485763  11.2375772  52.8548956  30.4650283
  55.2773714  66.6337919  54.0562725  54.9582148  65.8643198  54.5277405
  55.9765100  66.2980318  53.4952879  37.1607995  30.1710081  26.6953087
  37.1364737  29.2295909  26.8667006  36.6271710  30.2851534  25.9088993
  64.1852570  18.7155008  48.3359432  64.3707180  17.8543007  47.9615498
  63.4970188  18.5530472  48.9810562   7.0645440  34.9095345  27.6842666
   7.1162057  33.9950323  27.4063301   6.1430752  35.1425815  27.5710535
  34.4126320   2.4443664   8.0470777  34.9620652   1.7012408   8.2963127
  34.0601301   2.2047976   7.1899998  75.6597662   0.4555102  51.0204506
  75.3190708   0.7258978  50.1677799  75.5740499   1.2341843  51.5704966
  76.3258886   7.8812313  39.3503857  76.2153530   7.0508134  39.8134398
  75.8900404   7.7461255  38.5089493  77.1518230  55.6519222  53.5945797
  76.5420103  55.9974241  52.9426670  76.7142820  54.8756504  53.9441347
  68.1289244  70.4233503  16.0075963  67.7328777  71.2928057  16.0661781
  68.0597448  70.0684404  16.8938720  70.3223228  66.2884426  34.6785784
  70.8901453  66.5815020  35.3912687  69.4486618  66.5882635  34.9296832
  44.4805145  59.9307871  36.2267876  44.3622875  59.0581083  35.8517051
  43.6645603  60.1019049  36.6970801  71.7749357  13.7782466  36.9937253
  72.1355963  14.5868003  36.6298628  70.9416389  14.0420091  37.3839593
  36.2555647  16.3091183  54.3613577  36.9012284  17.0084953  54.2602491
  36.6217160  15.7413101  55.0394154  72.5285959  61.2151289  22.7928352
  71.7032528  61.6933823  22.8722835  72.5690365  60.6745005  23.5817051
  49.5375490  63.4383726  32.3648477  49.6658087  64.0940952  33.0502748
  48.6405993  63.5804415  32.0622969  69.7508049   2.9549375  34.3996668
  69.0424776   3.4762970  34.7774005  69.5722961   2.0610440  34.6917629
  67.8005838  59.1968632   4.5005810  68.5054970  59.8341131   4.3855068
  68.1798983  58.3658648   4.2145786  72.3287106  60.0529957  32.7497363
  72.7465057  59.4332695  32.1517253  73.0511141  60.5791664  33.0925274
  55.6258821  31.1909914   3.2105744  54.8571205  31.7021132   3.4635434
  56.2327528  31.2923026   3.9438406  24.2323351  13.3411336  34.2050338
  24.9158025  13.8463390  34.6453404  23.4888124  13.9414227  34.1497183
  63.4357643  51.6603041  24.2829728  64.3359137  51.9858170  24.2819405
  63.5194778  50.7250881  24.4689512  72.8820467   5.8503646  14.0333831
  73.0658388   6.4438039  14.7615886  73.5766649   5.1933348  14.0786755
  58.0320597  68.5665798  44.8385096  57.5282669  68.3824253  45.6312943
  58.4894800  67.7472258  44.6496820   5.1399171  46.3644934  63.3388662
   4.6139383  46.1495113  62.5685644   5.3402609  47.2952509  63.2399225
  69.6213007   1.0719368  38.3668208  69.6248722   0.5128157  37.5899029
  69.1175270   0.5789100  39.0144086   9.1514361  11.9559741   6.0673136
   8.6771750  12.0809484   5.2453101   8.4682107  11.9363415   6.7374253
   8.8085574  46.0209179  28.6187625   8.9941353  46.3764238  27.7496195
   8.5940248  45.1015568  28.4606886  27.6864743  58.8346434  54.3265057
  28.4277725  59.4323111  54.2290497  26.9685388  59.2659473  53.8630676
  10.5816281  53.7847471   2.9609445  10.3445160  54.3749332   3.6762699
   9.7497725  53.4050131   2.6780093  50.8450317  58.8123608  52.6548100
  51.5211868  59.2988062  52.1831989  50.2254915  59.4823647  52.9437685
  69.7545862   6.6907400  40.6249189  69.6747923   6.3033503  39.7532558
  69.1889668   7.4624318  40.5967522   6.9052333  16.2565911  37.1243644
   6.0681462  16.5504670  37.4837446   7.4022865  15.9599936  37.8867269
   9.3750679  26.0118341  30.4436040   8.5050833  26.2093425  30.0966907
   9.9780607  26.3146043  29.7646642  66.6410112  52.8355217  64.3082285
  66.1430073  53.4651136  63.7868452  66.6039610  53.1807661  65.2002287
  58.6420679  73.8916588  35.0547171  58.3010101  73.9115000  34.1605616
  59.5572329  74.1584587  34.9679661   0.7836285  71.5972662  11.1719644
   1.0107382  70.9156561  11.8044710   1.0170898  72.4165058  11.6085112
  37.5159359  18.9286923  13.1496084  36.9138575  18.2173860  12.9310358
  36.9562435  19.6106172  13.5210311  47.0730734   0.0620636   2.1441229
  47.4684286   0.6790092   2.7600005  46.6112423  -0.5669554   2.6984489
  74.0364456  32.9995990  23.9597225  74.3210459  32.1035528  23.7798953
  73.4807110  33.2284570  23.2147312  60.5453348  10.4631102  31.8730497
  59.8897028   9.7766280  31.9960046  60.6177902  10.5577672  30.9232998
  78.5124350  60.4839420  25.8379650  78.2521725  61.1669016  26.4560771
  78.4043264  59.6667290  26.3244915  12.1461761  53.3366394  22.3110437
  11.3232613  53.0841351  22.7297139  11.9446540  54.1579914  21.8627143
   6.4304370  12.7340496  28.0422688   6.2662834  12.3600256  28.9079428
   5.7832748  12.3161328  27.4741507  20.0318098  13.3608317  32.2798491
  20.0313902  14.2112470  31.8405032  19.2365801  13.3660781  32.8125906
  35.7051229   9.0364683  36.5200257  36.4883494   9.5310807  36.7611647
  35.8115244   8.8602042  35.5852318   6.5918970  14.4856668   5.4881072
   6.7825472  13.6260605   5.1126587   5.7239890  14.7072601   5.1506698
  46.4614058  27.5430727  44.6322918  46.9634295  28.2108021  44.1650152
  45.6432295  27.9801440  44.8684788  13.6745107  55.5489254  17.4562335
  13.2192624  54.7284126  17.2671914  13.0516899  56.0533190  17.9796016
  19.1000438  58.3618116  15.0778770  18.9861155  58.8879013  14.2863703
  18.8198137  58.9367628  15.7900131   5.6703246  44.4003344  55.2459860
   4.9345216  44.0728045  55.7632399   5.2691090  44.7350883  54.4439888
  59.3921566  23.2588363  22.5850582  58.7003279  22.9817581  23.1857538
  60.2050638  23.0092621  23.0245137  11.7511702  52.9928637  45.7120943
  11.1613762  53.7312651  45.8641958  11.1735666  52.2737169  45.4562902
  44.6812153  25.0597548  53.2801533  43.9926386  24.4680572  53.5834503
  44.2255878  25.6933188  52.7258682  33.0531502   8.2017642  46.8374777
  33.0851746   9.1380006  47.0341206  33.9551449   7.9731840  46.6130018
  34.2281532  63.4878778  59.8725557  34.2395759  62.7564955  60.4899549
  35.1448321  63.6051750  59.6232128  10.2724135  68.3075237  26.1218786
  10.8225346  68.2577133  25.3401399  10.4099488  69.1941166  26.4554429
  33.5939789  67.5829315  47.5222874  34.1960120  67.2852421  48.2043219
  33.3913994  66.7934513  47.0203781  25.7610536  18.6036432  26.5144515
  26.4237595  18.2689285  25.9102845  25.3178430  17.8207922  26.8414712
  74.7017431  72.5985670  46.3209391  73.9483786  72.0685530  46.5812445
  74.9056530  72.3051548  45.4329252  60.9247923  41.6723442  61.6909695
  60.6804466  41.1791754  62.4741173  60.1022005  41.7904854  61.2159729
  74.5011425  42.7986336  17.3337698  73.6545038  43.0860567  16.9919717
  74.5283461  43.1428003  18.2265425  56.7780590  17.2367573  16.0611260
  56.4444780  17.0369852  15.1864576  57.1095371  18.1320906  15.9923255
  60.3163052  63.5267162  40.7720566  61.1097765  64.0470743  40.6461143
  60.1621246  63.5498095  41.7164755  30.1054549  15.2027202  58.5180330
  30.3769159  16.0387146  58.1390190  30.6443810  14.5505166  58.0703497
  17.8099191  10.6482899  22.2279811  16.9207072  10.3686261  22.0104432
  17.7977574  11.5981674  22.1104360  19.8446810   2.5990829  21.7940044
  20.4402471   2.7520478  21.0604286  19.7545123   1.6470128  21.8347979
  13.2138455  17.8673756  29.7021937  13.9698207  18.2092786  29.2248726
  13.3378375  16.9182456  29.6990180  78.9960480  73.0155897  17.1670032
  78.2926226  72.6801729  16.6111934  78.6593628  73.8455343  17.5047398
  20.9867549   9.9350309  55.2926779  21.2126708   9.6551436  56.1797237
  20.3138709   9.3156415  55.0101614  16.0292554  28.9226627  40.7400560
  16.5393698  28.1144857  40.6865454  15.9464788  29.2142081  39.8321033
  20.1399565   8.9115155  42.9431057  19.2744517   8.8864803  43.3511543
  20.5939388   9.6271396  43.3880949  38.8405323  19.9111545  26.6338086
  38.6943364  19.9502623  27.5789714  38.2568598  20.5787063  26.2733436
  72.5686026  71.5749550  40.1073790  72.5692606  70.8215523  40.6978130
  72.9417944  71.2404633  39.2918563  46.8219757  68.3252144   4.0020192
  46.7235613  67.4119043   4.2711064  45.9278631  68.6663055   3.9807138
  30.1142502   9.4794607  40.5906963  29.3774271   9.5884848  39.9894977
  30.8730555   9.7936380  40.0990248   6.5138429  70.1532507  33.6739826
   5.6093431  69.8821926  33.5170221   6.4643055  71.1033487  33.7793088
  38.7830734   3.8300499  39.7897863  37.9787230   3.5216677  39.3724728
  39.1679406   4.4318438  39.1526413  18.2599211  61.1460352  61.0251617
  19.0107667  61.7366934  61.0850096  18.5954332  60.3782845  60.5623150
  33.6496568  70.0759125  63.5861826  33.2247949  70.6639671  64.2106104
  34.1948462  69.5050478  64.1275883  63.3586264  66.9770670  26.2567544
  62.9842854  67.1309757  25.3893352  64.2137766  67.4061632  26.2281442
  48.5688496  60.0523853  48.4364653  48.1282043  59.5718336  49.1372776
  47.8609085  60.3326082  47.8563547  66.1491299   2.6789224  18.9550030
  66.7096949   2.7672476  18.1841624  65.3030300   2.3997347  18.6051345
  48.2092619   7.4019456  50.8775806  47.7347755   7.1346480  50.0904083
  49.0547943   6.9584298  50.8097649  59.2085838  41.9442987  53.2361603
  59.0059519  41.5554094  52.3853159  60.1553202  41.8378258  53.3288050
   5.5083227  65.4549503  62.2044754   6.3471597  65.0912380  61.9211054
   5.5424708  65.4192734  63.1604004  64.1451168  16.1974108  23.4426475
  63.4546089  16.8486488  23.3188653  64.9307346  16.6101873  23.0839658
  40.9035349   1.5018861   7.4025506  40.4312134   0.9574045   6.7727220
  40.9539175   2.3618865   6.9853067  12.3904181  66.1355972  64.0923309
  12.6219523  65.3999949  64.6593523  13.0167055  66.0876369  63.3700466
   2.8711283  65.5638504   7.2094548   3.6533660  65.8620596   6.7453343
   2.6678321  66.2746334   7.8174782   9.9672669  56.5476274  27.2394061
   9.8350954  56.7940998  28.1548381   9.1098845  56.2365866  26.9489193
   5.7662147  18.6691380  12.8030741   5.2173811  18.3505976  13.5196948
   6.4615810  19.1644824  13.2358932  77.0804739   6.6128647  19.3143046
  77.4833536   6.2095189  20.0832200  77.6119089   6.3091695  18.5783839
  67.0875263  59.6412277  23.7874150  67.2949791  60.0615215  22.9528189
  67.9309511  59.5656061  24.2336774  35.7838988  15.3488052  17.3003972
  35.3582811  16.1709738  17.5435448  35.0699711  14.7125268  17.2593045
  38.0384660  13.5005343  32.7595305  37.8424859  12.7313983  33.2945561
  38.8567090  13.2803905  32.3142791  58.3066416  50.8047819  35.9817243
  57.7004719  50.6383276  35.2598619  57.7607918  50.7644272  36.7669940
  74.4017506  72.5488663  16.7301130  75.3491497  72.4448490  16.8187165
  74.2884350  73.0154991  15.9020770  67.8966236  24.9654531  19.4190395
  68.4534645  24.4846392  18.8066804  68.4764147  25.1848578  20.1483798
  33.6032581  22.7259207  32.7944875  33.0997944  23.4815168  32.4914551
  34.4999123  22.9068756  32.5125289  33.0793118   5.5476737  45.5882931
  32.5168252   5.5749023  44.8142767  32.7285409   6.2277687  46.1633253
   1.7991820  14.4471943  41.5243387   2.1401283  13.9225233  42.2487068
   1.6859202  13.8220704  40.8083630  66.7702675  20.8874249   6.4071631
  67.5425053  21.3315177   6.0569340  66.0378075  21.2545514   5.9122390
  65.0335693  71.3717937  24.7061992  65.5434465  71.9134378  25.3085923
  64.6757603  70.6743670  25.2555633  14.5270109  70.2713203   0.5620097
  14.6447480  70.3789711  -0.3818022  13.7810111  70.8316946   0.7757747
   8.8605416  48.6603451  31.7663407   8.6148632  48.9522362  30.8884597
   8.2543081  49.1175413  32.3491645  27.1935368  11.4755785   9.7584480
  27.2672558  12.0912361  10.4876697  28.0311370  11.5454125   9.3004262
  69.3766928   7.0107281  29.0879488  70.3004456   7.0928353  28.8509488
  69.0080118   7.8777015  28.9186430  25.6711102  26.0301328  40.8693886
  26.0568666  25.1596594  40.9678745  25.8910441  26.2897515  39.9747062
  62.3956680  65.2242947  40.3493643  63.1387758  65.4879379  39.8066688
  61.9246817  66.0393429  40.5228424  19.7954810  73.2081270  47.1201134
  20.2003193  73.9893103  46.7431688  18.9878452  73.5274172  47.5226164
  39.5235968   8.8241529  39.9679422  39.4445586   8.1129408  40.6036806
  38.6198950   9.0497041  39.7473001  45.9246922  16.4431596   8.7669998
  46.5291214  16.2485099   8.0507517  45.4064608  15.6445932   8.8667786
  12.6313412  14.4890201  20.0523257  12.2480726  15.3640544  20.1127553
  11.8787313  13.8975799  20.0493050  45.6440067  69.5261574   7.1864063
  44.8656082  68.9705610   7.1459293  45.6058550  70.0505209   6.3865209
   4.3974647   4.5795429  52.9434299   3.8175488   4.5086956  52.1852016
   5.2096772   4.9429664  52.5906324  39.5065284   1.7981529  13.2679200
  39.5139599   2.5141808  13.9031219  38.7527585   1.9828531  12.7076101
  35.4723716  12.5980425  35.0568342  34.6551299  12.3609257  34.6185136
  35.4241395  13.5489309  35.1554036   0.3425401   7.8970081  26.7589235
   0.4999393   8.8393140  26.8182158   1.0759109   7.5637436  26.2418866
  51.6047573  70.6700134   3.6029544  50.8443308  70.0895929   3.6360282
  51.4703035  71.1962461   2.8147715  51.8919992  10.6143808   5.5773479
  52.3374271  10.5728388   4.7311202  50.9760761  10.7849956   5.3577816
  37.7418184  10.7251120  37.6166058  37.4024796  10.3710401  38.4386253
  38.5862398  11.1095846  37.8518987  59.0531254  70.5377865  33.5800385
  58.3248758  69.9502039  33.3784747  59.1184235  70.5195045  34.5348334
  42.5218868  18.6865115  48.5294485  43.3580065  18.2214391  48.5585976
  42.1659470  18.5949469  49.4132805  74.0847206  41.1320400  36.5822959
  74.9677420  40.7787943  36.6905594  73.7561846  41.2335777  37.4755979
  13.3407164  46.6615915  36.9250560  13.3767474  47.4106359  36.3301897
  12.6290679  46.1194372  36.5846753   2.9456532  33.1489778  12.9943442
   3.5577950  32.4332261  12.8234291   2.3702601  32.8130746  13.6816013
  29.5499706  59.4702864  10.0189638  28.6001277  59.4268370   9.9087644
  29.7189760  60.3736830  10.2864504  17.5646269  26.4190125  41.1894560
  17.9617441  25.8349156  40.5434227  16.7672348  25.9660459  41.4637136
   3.5412148  57.0782423  13.5883522   2.5853679  57.0423508  13.5522878
   3.7441912  58.0124569  13.6360085  10.5617130  74.6597910  29.1990137
  10.4460895  75.5786419  28.9569855  10.2130806  74.6007061  30.0885057
  45.5348110   7.2841334   8.6728191  44.8709106   6.9853222   9.2942542
  46.1352921   6.5434116   8.5892421  64.2323446  44.5397902  11.1428785
  64.9351597  44.6630716  10.5048466  64.6456766  44.7072124  11.9898498
  55.4374170  68.9947319  53.3030081  56.2109327  69.3134403  53.7681246
  55.3641367  68.0760098  53.5614967   6.1483347  21.8144298  47.4725866
   6.7938870  21.2549329  47.9043913   5.6621176  21.2212300  46.8999290
  50.4383278  21.8013215  54.5495272  51.1449337  22.0188117  53.9415550
  49.7601461  21.4104629  53.9985895   6.5191907  69.5336533   7.7455842
   6.5490222  69.1366816   8.6160737   7.3612559  69.3078661   7.3503894
  65.4566193   9.2476857  30.9050775  65.3699875   8.4322131  30.4113865
  65.4749441   9.9319476  30.2359891   4.4532445  42.5745964   7.9307377
   5.2147120  43.0786276   7.6437724   3.8146603  42.6832581   7.2260141
  38.1865335  38.9818668   7.7635479  37.7362466  39.6238708   8.3124602
  38.0733180  39.3085194   6.8709606   3.1540382  58.5162830  21.0230637
   2.8503096  59.0623808  20.2979732   3.8622618  57.9926825  20.6482363
  73.2812548  65.1392889  28.0638599  73.2688999  65.6813812  28.8526654
  73.5757685  64.2807484  28.3678460  30.5078125  21.5772843  46.4113092
  30.1275301  20.7489562  46.7036963  31.4315724  21.5157914  46.6544533
  58.0084848  72.6241922  39.3208814  57.8733587  71.7117262  39.5765710
  58.2379246  73.0699587  40.1362848  30.1371241  31.4924455  27.0821953
  29.2255831  31.3849187  27.3537946  30.4131413  30.6150770  26.8171024
  76.9970894   2.4406172  32.8488517  76.8673992   3.2246813  33.3823848
  77.9318523   2.4430193  32.6428413   7.9766995  27.7863598  40.9357262
   7.7309191  28.6840296  41.1593580   8.9184743  27.7473068  41.1023569
  31.5426540   4.2247230  13.2612133  31.7760921   3.8275969  14.1002774
  30.5966783   4.0967607  13.1905961  42.1266556  11.1151743   6.9165725
  42.5660801  10.4905486   7.4936163  42.0286894  10.6472158   6.0873258
  42.8927851  16.1598873  31.7653394  42.8198481  16.1136973  30.8120394
  42.0390415  16.4809895  32.0555925  47.5438690  18.1958115  23.7059927
  47.5156069  17.4468386  24.3013668  46.8283319  18.7607622  23.9976525
  78.7031603  32.1141624  14.6473849  77.9093552  32.1852088  15.1775289
  79.2553711  32.8372025  14.9448872  56.7555904  37.4455357  63.0180883
  57.4645758  37.7401996  62.4464750  56.7781639  36.4906883  62.9549503
   8.4757626  58.6180878   3.7286285   9.3142873  58.8119650   3.3096778
   7.9947519  58.1079197   3.0770260  23.8636923  25.5641127  48.5392570
  24.4909692  25.3272247  49.2223644  24.1966057  26.3881063  48.1836796
  41.7761612  26.2466860  56.0665369  40.9574890  25.8172131  55.8184290
  41.9975233  26.7938614  55.3129911  23.5606003   4.7771183  21.3045192
  23.7483430   5.2361798  22.1232057  24.4088793   4.7134531  20.8656549
  35.5292273  15.8320332  10.6709075  35.4628015  16.7052531  11.0573065
  34.8870993  15.3085065  11.1503088  12.3757994  54.7325611  14.3255496
  13.1239057  54.5236731  13.7661433  11.9190609  53.8986397  14.4359684
  48.6089754   7.4154067   6.9675565  48.7299776   6.6531825   7.5337774
  48.9913797   7.1545142   6.1297399  72.7476454  32.9337597  29.4481611
  73.6375237  33.2825089  29.3959832  72.2147655  33.5634398  28.9625955
  31.1999106  29.4677782  41.1784506  31.3774538  29.8052526  42.0564175
  32.0611930  29.4121671  40.7645321  36.7494822   8.4061301  29.6220088
  37.1922398   7.5589240  29.6714091  37.2711897   8.9819813  30.1809812
  14.6843839  32.8253579   8.1878352  14.0948689  32.6640558   8.9245075
  15.3214896  33.4554625   8.5244298  38.8425255  17.2442150  62.2964239
  39.1547060  17.7795756  61.5669250  39.0638208  16.3469875  62.0469427
  30.6608105  28.9515853  37.5035286  31.4059091  28.4364843  37.8129339
  31.0525560  29.6422100  36.9689202  27.4538374  13.2460129  58.0920458
  27.6661277  14.1373062  58.3691025  28.1241250  13.0307364  57.4435091
  37.1753573  16.2844837  37.2919106  37.7593994  15.5781007  37.0159531
  36.8096018  15.9819090  38.1231165  37.8035283  62.8633165  15.0257564
  37.3207188  62.0563316  14.8471403  38.4360433  62.6194096  15.7015288
  79.2434064  34.0750408  21.9961190  79.6050674  34.3794370  22.8284502
  78.9085487  33.1987953  22.1866345  58.2348061  29.7176337  63.1132078
  57.7899981  29.2120194  62.4329615  57.9702520  30.6230044  62.9502726
   9.0412623   6.1144871  38.4533644   9.5792633   5.3380907  38.6082697
   8.2678747   5.7828403  37.9971695  69.0193367  29.3776345   0.8435947
  68.2361746  29.9269676   0.8770798  69.6265125  29.8601198   0.2825442
  25.9143925   4.0131369  32.4051571  25.1234555   3.4753856  32.4435687
  26.4317727   3.7324142  33.1599712  72.9181147  29.7293162  11.8066549
  73.2335138  30.1393795  12.6120126  73.4973621  28.9782929  11.6775358
  48.0702448  69.3302107  29.5318317  48.4560823  68.6767101  30.1151848
  48.6756516  69.3780088  28.7919474  32.3955393  21.4353514  21.1810756
  32.6011348  20.7830787  21.8507814  33.0124164  21.2533903  20.4721451
  32.9305840  23.8140178  52.9294872  32.8589296  24.7463131  52.7247381
  33.5519505  23.7755489  53.6565733  19.8633611  20.0778031   7.6320273
  19.0451932  20.3784084   8.0275905  20.5385447  20.3176165   8.2667303
  51.0097122  55.2599096  11.7622769  50.9881306  55.8933067  11.0449421
  50.5673313  54.4865608  11.4123285  71.2850094  62.4540186  45.7322693
  71.6223049  61.5824080  45.9390640  71.7307854  62.6970339  44.9208164
  51.7884684  36.7540026   0.8229631  52.1427488  36.2253070   1.5379445
  52.5243139  37.2960925   0.5385398  24.1137671  36.7555737  21.8018413
  23.4902382  37.1868515  22.3861742  23.6084771  36.5638781  21.0117984
  -0.0449568  27.4361825  10.1987112   0.8518833  27.2179198  10.4522276
  -0.3743083  26.6428018   9.7764444  17.3116803  15.7917619   4.8530164
  17.5531173  15.4629350   3.9870992  17.7941203  15.2346575   5.4638499
  49.8000669  65.4944611  50.3111649  48.9114285  65.2995539  50.6087589
  50.1483679  66.0924435  50.9724760  31.8385124   5.5470562  43.1596804
  32.4899316   5.3671902  42.4817896  31.1589575   6.0504329  42.7113008
  38.3193016  30.7157063  56.7533350  39.0367460  30.1349711  57.0068121
  38.4290123  30.8342171  55.8098602  20.5819154  19.4403064  36.9097853
  20.6604242  19.2866313  37.8513002  20.8430076  18.6111081  36.5091681
   2.0486140  38.9593291  44.0349865   1.1734308  39.0842223  43.6679888
   2.5724417  38.6379409  43.3011293  16.9943106  21.1631513  54.2575312
  17.0212197  21.4345765  55.1750469  17.9124165  21.1391521  53.9878321
  24.2886543  31.5247774  18.1428778  24.9328971  31.6030145  17.4392712
  24.4870424  30.6848979  18.5569763  17.0729709  37.3503923  62.3411751
  17.2501004  38.2895327  62.3947811  16.5492892  37.2504234  61.5461969
  49.1287422  62.3523474  44.7642040  48.6759520  62.0685863  43.9700413
  48.4594965  62.3156404  45.4475737  28.3529687  15.4205990  37.2937441
  28.2301164  15.8653879  38.1323767  28.7211680  14.5682263  37.5263834
  63.0558014  45.3482914  16.8571436  63.3715773  46.2502146  16.9123626
  63.7917995  44.8177385  17.1621847  19.1024411  22.6157308  29.8036623
  19.3636870  22.4914098  28.8912320  19.8889065  22.9505301  30.2344894
  68.2130766  64.4010067  45.1134157  68.2314157  64.2930079  46.0643291
  67.6580620  65.1675844  44.9700880   4.5198619   4.3860513  59.9637127
   5.0855887   3.9839906  59.3045235   4.1995537   5.1867020  59.5482683
  63.4952211  17.4675119  19.2137349  63.5486126  17.1635199  18.3076608
  64.3596745  17.2813010  19.5801735  33.7124538  17.0660412  20.8981323
  33.0389309  17.7436459  20.9568691  34.0053153  17.0977449  19.9873865
  74.2642927  69.3791962  36.5175867  74.7036648  69.3302631  37.3665810
  73.8743210  68.5130548  36.3994455   6.2501001  14.0847445  48.8595486
   5.3020686  14.1667032  48.9632320   6.5782428  13.9571226  49.7496414
  17.0702350  48.5119295  24.5945740  17.5090289  47.6840496  24.7902822
  16.3155591  48.5279989  25.1831651  34.1111493   3.7171668   1.2983361
  33.3073545   3.3128679   1.6249721  34.7797441   3.0403808   1.4040416
  48.9137745   8.0123132   3.8523889  49.7097206   8.1709641   3.3449119
  48.3045578   7.6210266   3.2263070  29.6295238   6.9701612  22.5212097
  28.7110615   7.1066624  22.7536464  30.1142907   7.5467169  23.1118178
  66.6450357   3.5762057  32.7892852  66.4581013   4.3285486  32.2277999
  66.2237930   3.7884277  33.6222029  65.3856850  69.8724556  11.9642568
  64.7802162  70.5599165  12.2418189  66.2543917  70.2576208  12.0792878
  70.7272720  11.8398285  33.8413525  70.8828354  11.5286803  32.9496026
  70.6734324  11.0419750  34.3674374  45.8814001  28.0271387  62.1975660
  46.4058590  27.3427081  62.6131773  45.8922768  27.8050852  61.2665415
  32.0819998  12.5501692  34.6614552  32.4222302  11.7003107  34.9411225
  31.9567394  12.4589503  33.7168789  34.6945953  33.3738065  27.6200199
  34.8103380  34.2897201  27.8728724  35.5460191  32.9697013  27.7873778
   0.3634377  34.2701626   1.4732121   0.0139243  33.6297035   2.0927942
   0.1438522  33.9147973   0.6119752  13.8297832   9.3134803   3.9336410
  13.1943703  10.0289989   3.9563501  13.3369493   8.5661656   3.5947192
  23.7927198  37.2511125  26.0201526  23.3513904  37.3953629  25.1831007
  24.5953774  37.7691555  25.9601212  13.0676579  14.3702161  40.2295303
  13.1213665  14.7354913  39.3463969  13.8702095  14.6650612  40.6598902
  14.7618234  47.5446749  19.3205142  14.3481421  48.1957388  18.7537575
  14.9131584  48.0065441  20.1451397  79.2587852  12.6251686  37.0677519
  79.0821934  11.7612135  37.4400806  80.1930428  12.6100338  36.8599868
  19.4430804  72.1970844  59.0001249  18.9793754  71.5179539  59.4900131
  20.2019000  71.7479229  58.6277294  51.9825649  16.7842042  47.4892282
  52.7050972  17.3241580  47.8095770  52.0839548  16.7886376  46.5374231
  15.0887442   4.0969566  48.2857752  14.3319428   3.5693491  48.0306005
  14.7226143   4.7924069  48.8321543  18.5482872  50.7382727  18.4447384
  18.4736228  51.0685158  17.5494182  17.9091835  51.2484121  18.9422691
  27.0691109   6.5058625  27.2835040  26.8813181   5.6137693  27.5752831
  26.6895485   7.0645845  27.9617333  25.7622051   2.6844761  62.4305248
  25.4970026   3.3847496  61.8342686  26.2520695   3.1307369  63.1212568
  24.7886157  15.6450129  42.9582548  24.9892163  15.7811213  43.8842487
  25.2876616  14.8645544  42.7172804   1.2593231  24.1895390  29.6059155
   1.3564801  24.9735832  30.1463485   1.9978596  23.6338973  29.8550344
  29.0029907  21.6406560  53.2337856  29.4513297  22.2565460  52.6542139
  29.6707344  20.9920573  53.4566545  23.2882857  70.3530216  19.9570584
  22.5355482  70.9101295  19.7589493  23.3824968  70.4069853  20.9080815
  31.6269946  14.5112312  24.5502305  32.3617792  15.0131285  24.1974926
  30.9376550  14.6012056  23.8922405  61.1049414  11.7531037   5.4001123
  60.4678631  12.4546921   5.5347979  60.6166315  11.0715842   4.9382511
  47.4888992  19.7462606  37.0827270  47.8301144  19.5879555  37.9629207
  47.2506905  18.8777554  36.7583990  74.0036678  74.5331526  42.0156622
  74.2618847  75.4183245  42.2726154  74.8022509  74.0138817  42.1097374
  55.1217127  55.7043076  62.2184086  54.3519020  56.2515020  62.3739815
  55.6125593  56.1686325  61.5403938  10.1300418  38.7587595  22.7807617
  10.1283896  39.0456653  21.8675733  10.9103835  38.2098126  22.8579378
  30.8712006  32.8444839  30.6205678  30.7561994  31.9165063  30.8251810
  31.8177271  32.9822850  30.6570745  38.9959717  43.2055473   9.9186581
  39.3894601  44.0641832   9.7632813  38.8831282  42.8320837   9.0445745
  19.7249925  32.3528051  27.5146222  20.3103852  32.6805496  28.1973577
  19.4964731  33.1284642  27.0024085  13.5244334   1.5659817  28.7358379
  13.5337865   1.7612523  29.6728611  14.0945804   2.2294128  28.3472228
  50.9394693  13.8759172  60.8752680  50.6707764  14.7918773  60.9463692
  51.6569328  13.8852644  60.2417183   4.1538361  10.7537448  40.9785795
   3.8237837  10.7940543  41.8761730   3.3696029  10.8074033  40.4323864
  35.9531879  22.4442267  50.5348349  35.4626441  23.2587099  50.6453609
  35.8252406  21.9738960  51.3586378  52.3724127   0.4637285  17.7857280
  51.6786194  -0.1095682  18.1116259  51.9156408   1.2564528  17.5043428
  32.0064425  37.1554351   1.9188939  32.6760769  36.7283154   2.4531128
  31.4046907  36.4503217   1.6802759  29.8183012  13.3885741  28.0603766
  30.4562068  14.1012418  28.0227804  30.3307033  12.5990462  27.8862405
  50.1621580  13.0820441  44.5361996  50.4756880  12.7579510  43.6918688
  49.6315575  12.3660398  44.8855352  17.3037708  19.1328669   1.0919091
  17.6556242  18.9924681   1.9709538  16.5222633  18.5813463   1.0558279
  38.2396960  13.1015432  23.8462114  38.0417061  13.0376983  22.9118896
  38.4526753  14.0246117  23.9833808  49.3961763  17.3247921  27.4179864
  50.0097799  18.0390072  27.5900888  49.9532557  16.5596628  27.2749209
  58.3588505  24.6219611  25.4104638  57.4553394  24.4172049  25.1696873
  58.6991501  23.8067031  25.7789516  53.9575911  32.4154019  12.2580731
  54.4936562  31.8689036  11.6834366  54.2363214  32.1782875  13.1425619
  38.6490703   7.5854957  32.7564049  39.3734455   8.1523681  33.0213022
  38.3100772   7.2302830  33.5780740   9.4165272  71.8486547  28.6249089
   9.0533513  71.1024237  29.1018486   9.6638274  72.4720383  29.3078899
  15.1392472  31.5847135  28.4642220  15.0089693  30.6404161  28.5511923
  16.0678291  31.7169785  28.6552000  69.5986938  66.4235544  20.0740004
  69.9552584  66.9422007  20.7951808  69.9843359  66.8097973  19.2876637
   1.3690412  16.1997032  13.7950933   1.3498001  15.3376889  13.3794105
   0.4765575  16.5320170  13.6988032  63.3448887  71.4382601   3.6507687
  63.3894300  70.7941866   2.9440752  64.1092300  71.2496710   4.1952366
  56.0746002  24.4321609  59.6940374  55.9742403  24.5919943  58.7556267
  55.1821184  24.4614339  60.0387812  66.3191700   8.5532218  17.0526743
  66.6899729   7.9756653  17.7198803  66.2156010   9.3954098  17.4956477
  23.3926392  12.6555967  19.9866056  24.0641141  12.9266536  20.6126094
  22.7740693  13.3858335  19.9676895  27.6510477  69.3855810  62.7696848
  27.4623275  69.2009115  63.6897469  26.8204975  69.2319918  62.3193216
  76.1563730  34.1871119  56.1343908  75.8122301  34.0430593  55.2528906
  76.9625950  33.6719728  56.1639023   9.0939426  15.6911635  40.4025936
   9.8895371  16.1323929  40.7002115   8.3849454  16.2873161  40.6437492
  71.8517494   7.9226899  28.7123179  71.7094135   8.7624985  29.1490030
  72.5044346   7.4787730  29.2537737  33.4059954  30.9010744  33.6557484
  33.4304380  31.2388635  32.7604651  33.4741569  29.9515891  33.5554481
  18.0756271  65.7442570  22.7344131  18.4127820  65.1627398  23.4158778
  18.8277590  65.9077358  22.1653748  36.0642004  70.1923990  38.9618158
  35.6584358  71.0546350  38.8716245  36.4845538  70.2142477  39.8215008
  61.4937735  15.5694532  33.1584835  61.0740566  14.7502565  32.8958344
  62.2664070  15.6334496  32.5970817  73.0374527  49.7572470  31.3922024
  73.7994909  50.2692461  31.1213088  72.8484583  49.1937685  30.6418681
  51.3724184  52.6739407  44.2046118  51.8239355  53.4465027  43.8647413
  51.6966200  51.9512653  43.6671543  33.0991507  12.1861577  63.9344597
  32.7725315  11.3197863  63.6916590  32.3381948  12.6341081  64.3039465
  22.8110409   3.7621358  16.8237472  23.4173751   4.2201924  16.2417042
  22.0478129   4.3375075  16.8753648  76.9334412  74.2476225  21.0599852
  76.5972185  73.8078499  21.8408728  76.1869574  74.7441244  20.7245994
  13.4322834  14.7961318  27.1383882  13.5721743  13.8629270  26.9777942
  12.5937498  14.8369753  27.5981998  51.6971588  61.7931795  10.8349288
  51.2976265  60.9373093  10.6796968  51.2604856  62.3773289  10.2149940
  70.4782104  11.0021985  58.8381624  70.6802940  10.4250085  58.1017876
  71.2613440  11.5429914  58.9405251  21.8276501  20.8773351  26.2997866
  21.6947556  19.9315691  26.3637924  22.7777958  20.9829950  26.2519431
  76.5353870   8.9043659  57.7671623  76.6460705   8.2334876  58.4408855
  75.6265068   9.1897911  57.8604031  75.5729580  41.3132763  15.2157950
  76.3970661  41.2131500  15.6922960  75.1023531  41.9971800  15.6922770
  69.4602823  21.3349295   0.8413235  69.6034098  20.4070091   0.6550169
  69.7979593  21.7890811   0.0693436   5.0253987   1.2489071  48.1922293
   4.5554769   0.4294654  48.0375671   5.9302413   1.0561492  47.9465914
  41.0322571   6.0698342  18.1207871  40.3286028   6.3794678  17.5504959
  41.4704514   5.3877962  17.6118255  39.3519306  29.2143655  24.0196776
  39.7342205  29.4242978  24.8717403  38.6850619  29.8874927  23.8839650
  14.3259931  39.7928238  12.5351727  14.1225100  40.7106638  12.3551869
  15.0365365  39.5817971  11.9295096  41.3582134  25.7913089  43.1077099
  41.1474943  24.9518538  42.6988745  40.6376219  25.9480906  43.7179613
  27.6936674   7.6856494  15.4986489  27.1977735   7.6202488  14.6825337
  27.1357441   7.2641891  16.1523497  34.7325015  32.4139190  47.7559710
  34.8142552  31.4931226  48.0043316  34.4978666  32.8613567  48.5689735
  24.7064090  28.3163166  50.6297493  23.8096309  28.6366463  50.7267380
  24.7903609  28.1180382  49.6970797  22.1384335  37.4450707  23.5341787
  21.4299607  38.0800033  23.6398077  21.7763257  36.6243744  23.8681984
   7.3112732  28.4607244  15.0528276   6.5029985  28.3133602  14.5616984
   7.9872179  28.0173588  14.5402288  34.9935603  28.6897302  29.9612761
  34.2727590  29.3134928  29.8741102  34.9976087  28.2110357  29.1323805
  51.5065670  27.3347807  46.7302179  51.4211512  26.3828421  46.6777945
  50.8650112  27.6677370  46.1027002  34.1508126  33.1096244  37.0044565
  34.6868992  32.4044824  36.6416669  34.6468687  33.4227180  37.7608514
  18.7729430   3.0204821  37.0656800  18.1040514   2.4135885  37.3826933
  18.6159265   3.0790246  36.1232615  75.6917620  47.2557068  47.7649164
  75.7897043  46.3129330  47.6314545  76.0245085  47.6477432  46.9575644
  17.2212231  32.7602816  31.3503671  16.3364720  32.8600526  31.7017817
  17.1095240  32.2151589  30.5715227  57.8699541  57.5925541  21.4011455
  58.6902428  57.9598188  21.7304921  57.5785398  56.9987392  22.0930219
  40.5470848  23.4657788  42.0238495  39.6105742  23.3295488  41.8802500
  40.9729147  22.8496671  41.4277697  37.0277429  36.5149689   8.1307518
  37.0426583  36.1295724   7.2546929  37.4529409  37.3660350   8.0252850
  58.8630581  72.5161695  45.4728413  58.4815359  73.3702946  45.2700043
  58.6183929  71.9623947  44.7314215  38.2012105  18.1806886  19.5188296
  38.6824584  17.3554397  19.5787966  38.5157132  18.6958826  20.2617264
  36.5134144  34.2376590  34.6660280  36.1103630  34.1396832  35.5286884
  37.4211931  34.4778776  34.8516822  16.6445267  21.7405605  28.4161210
  16.4498103  20.9248853  28.8776326  17.3391664  22.1483803  28.9332199
   7.2121036  42.8347731  22.3732376   6.8055868  42.4365187  21.6035819
   7.9425061  42.2538233  22.5859380  33.5599923  12.3741388  17.6872146
  33.9002037  12.4993241  16.8013155  33.2419538  11.4713645  17.6962972
  62.7299404  68.0585384  29.5518112  62.0509434  68.6678886  29.8414469
  63.5331249  68.5792160  29.5477486  57.5763941   1.1952195  64.1190958
  57.1322060   0.3537915  64.0145493  58.1669474   1.2492908  63.3677292
  30.7963419  28.5567904  26.8664455  30.8441114  28.7794328  25.9367251
  30.9748244  27.6168776  26.8971252  31.3995671  11.8108618  13.7228858
  31.8004632  12.4221468  14.3408227  31.2287545  12.3373055  12.9419172
  68.1962061  73.3828449   1.0383214  67.6365280  74.1456556   1.1835946
  67.8836584  73.0099630   0.2139997  22.9960465   1.7826292  53.6146164
  22.1269917   1.5478714  53.2892513  23.2731438   1.0231458  54.1270971
  77.7713490  66.7928457  17.8753495  78.6307240  66.9254923  17.4752128
  77.3433542  67.6466942  17.8121603  53.0318689   3.0535084  29.3562818
  53.8029003   2.6012823  29.6986747  53.0113029   3.8846081  29.8307109
  34.1972423  32.8234935  42.5837994  34.9057055  33.2932734  42.1437788
  34.5982885  32.4774289  43.3810663  57.5966930  21.1193037  23.4284997
  58.1084585  20.9123254  22.6465225  57.0601177  20.3406024  23.5766339
  29.1192508  19.0423465  14.9685609  29.3368268  19.8704183  15.3965664
  28.2948542  19.2167878  14.5144987  79.3696690   0.8411252  25.4591966
  78.6965132   0.2898866  25.8582330  79.7433090   0.2982333  24.7650123
  10.0378036  73.1465244  60.2589178   9.2133749  72.6654720  60.1872158
   9.9183923  73.9116240  59.6962500  33.1894326  29.5265436  64.3417120
  33.9696002  29.0482044  64.0610647  32.9047823  29.0752935  65.1364326
  15.6727087   0.6392279  33.1998634  15.2498055   1.4241073  33.5482168
  16.4659929   0.5408635  33.7264132  13.5105991  59.3292093  40.5079985
  14.3429720  59.7684431  40.3334618  13.1486225  59.7932005  41.2629271
  71.4486837  19.7753143  24.3160081  72.3624659  19.6293414  24.0712094
  71.4372015  19.6773136  25.2681088  62.7100039  72.8605747  41.6660118
  63.0328941  73.6923695  41.3194656  62.1417713  73.1092644  42.3950481
   1.8892305  35.7468057  43.8141203   1.1249031  35.4539871  44.3103981
   2.2199923  36.4988494  44.3053007  62.0546722  30.4231477  63.0219364
  62.1855640  29.5211625  63.3143806  61.6333008  30.3388572  62.1666193
  73.9472818  68.7586212  21.9809985  73.2479954  69.3769979  22.1927691
  73.5047054  67.9132509  21.9054866  66.9648933  66.9558525  43.5529089
  66.4053440  66.6478252  44.2658329  66.6206598  66.5204763  42.7730465
  36.9452024  21.7077017  25.8165979  36.0955238  21.6921234  26.2570906
  36.8429017  22.3581123  25.1218081  22.6044655  23.9115262  50.5657959
  22.0428538  24.6721625  50.4166126  22.8494191  23.9720774  51.4891434
   1.8941924  37.0057440  12.3327720   2.5947198  36.3914585  12.5521922
   2.3493704  37.8153253  12.1012044  24.1513515  16.8061566  63.7566137
  23.8721609  17.1799612  62.9208183  24.4349027  17.5602722  64.2734718
  27.3984098  27.4894142  16.3043106  26.8284416  27.2522521  17.0358300
  27.3150659  26.7604136  15.6896210  24.3075943  28.4576154  28.5164714
  23.8036442  28.0253220  27.8269887  23.8291621  29.2682123  28.6904430
  30.0703049   0.3674144   0.8142862  29.5361447  -0.1326007   1.4314479
  29.7445393   0.1095657  -0.0480494  15.7739711  71.8013096  59.7752571
  16.2947488  71.7920542  58.9721775  15.1494098  72.5153351  59.6474886
  39.4635606  12.4949408   6.5003258  38.7610698  11.8534553   6.3943291
  40.2249718  11.9757605   6.7590439  49.3473625  33.2894206  20.0223756
  49.0406561  33.5806298  19.1636777  48.5569715  32.9854202  20.4685760
  67.3538256  19.4971275  29.4264698  67.4400473  18.6063039  29.7659254
  66.6084862  19.8636436  29.9022436  24.2176342   7.0269549  26.0040951
  25.0432754   7.2210670  26.4477944  23.7653995   6.4230078  26.5931320
  31.4391470  40.8493423  12.3462808  30.4942656  40.7420635  12.2370923
  31.7995691  40.7018661  11.4718783  79.0424395  13.3838809  21.8991590
  79.8973608  13.7847328  22.0562029  78.4252024  13.9439583  22.3698592
  33.7700272  29.7889161  40.1796484  34.5760202  29.9191618  40.6792927
  34.0510750  29.7993994  39.2647004  23.8545084  48.2896757  29.0799832
  23.9520168  48.6015558  28.1802845  23.5535049  49.0562057  29.5678949
  20.8446884  41.2637758  10.8273077  19.9041677  41.3057423  11.0001922
  21.2309480  41.0074139  11.6647530  28.2928419  21.1030006  10.7733107
  29.0277338  21.1109018  11.3865852  27.6891994  21.7629671  11.1143267
  57.0717096  71.4192247  20.2206302  57.5735474  72.2188807  20.3785658
  57.2381639  71.2095737  19.3016255  45.6068230  58.2279062  21.7114019
  46.2953138  58.8490963  21.9487548  45.6537676  58.1714678  20.7570219
  24.4699502  59.7391748  16.7868996  24.5939040  60.0302315  15.8834863
  23.5228729  59.6332026  16.8765843  28.0136490  39.9070191  27.4403334
  27.3791814  40.6192541  27.5203395  28.8654876  40.3435898  27.4435973
  40.2369118  40.4958105  31.2825513  39.3913984  40.9417105  31.3326812
  40.3005648  40.0099087  32.1047926  40.3349400  28.5714126  33.4244323
  39.6254683  29.2138958  33.4343863  40.2558041  28.1142211  34.2616582
  22.0902610  21.2266660   9.1076779  22.7831793  20.5679440   9.0609699
  22.5374556  22.0252466   9.3878847  35.5969000  15.5390573  35.0698376
  36.0684633  15.8953547  34.3169022  36.1261392  15.7929444  35.8259320
   7.1832186  68.0349398  32.1379232   8.1288552  67.8885889  32.1620989
   7.0179129  68.6512089  32.8514481  28.7500477   3.8152325  15.2732730
  29.0515924   4.2165840  16.0882688  29.1743445   2.9573563  15.2574492
  32.2206426  16.1344993  50.7219172  33.0915427  16.1929178  51.1147928
  32.2695160  16.6940391  49.9468327  36.2914324  25.4552698  24.9385858
  36.6766453  25.1050186  25.7418084  36.5502167  24.8338437  24.2580748
  51.4905262  24.8916888   7.8750253  51.9550276  24.2376518   7.3528129
  51.4450788  25.6620812   7.3087549  35.8492589  24.4838190  29.0054774
  35.4735494  23.6338663  29.2349410  36.7383790  24.2818618  28.7140870
  46.5497971  13.6332262  16.9256639  46.7229557  14.5736432  16.8825030
  46.2220526  13.4098053  16.0545146  28.4574103  18.6967814  33.6303353
  28.1426430  19.2677343  32.9295039  28.9613128  18.0193853  33.1792831
  40.3847694  64.5193386  25.7539749  40.9490108  65.2628708  25.5417824
  39.5415020  64.7376823  25.3571653  76.2992764  70.0411367  34.3973327
  77.0808554  69.6804905  34.8160172  75.5824900  69.8087215  34.9876165
  52.9350996  21.2715268  39.5150876  53.3051825  21.7120242  40.2800941
  52.8644753  20.3538465  39.7779751  34.9318099  17.9371274  12.6757610
  34.7854376  17.8672385  13.6191177  34.0866542  18.2144248  12.3221421
  37.1361351  28.5744905  31.5301299  37.7690291  28.1370044  30.9606695
  36.3552356  28.6769342  30.9861350  23.2544637  23.5410929  15.2322340
  23.2374334  24.3206906  14.6771061  23.8525343  23.7672901  15.9445381
  25.1066470  30.9993672  31.2265277  26.0628414  31.0348368  31.2007308
  24.8249650  31.7136097  30.6549144  48.5339212  10.3553700  13.7174475
  48.3545065  10.4019129  12.7783644  48.9062023  11.2105000  13.9328372
  22.4331927  14.1286635  36.9576526  22.2022724  13.2236910  37.1672535
  23.3649135  14.1928411  37.1674371  18.1605709  36.4740205  27.9179668
  19.0396297  36.8022847  27.7289438  17.5909019  36.9558644  27.3183537
  33.0169964  22.5123072  13.9232433  32.4634886  23.2890248  14.0043020
  33.4073281  22.4047828  14.7906017  23.0341434  18.7783718  38.5619307
  23.5222745  18.2771826  37.9086542  23.5178161  19.6003270  38.6436749
  75.1259089  24.7567129  47.6852465  75.5114603  25.5858517  47.9682875
  75.8736467  24.2268348  47.4089289  38.1476045  35.4365253  36.5755510
  38.9303207  35.6590939  36.0715199  38.4301710  35.4813313  37.4889946
  67.1515369  58.2804441   7.4313676  66.9588566  57.9464722   6.5552580
  66.7895079  59.1665363   7.4348891  53.1117535  11.9466352  25.8317733
  52.8353691  11.7536092  26.7276430  53.9801311  12.3376453  25.9280157
  10.9984076  46.0797691  51.1402559  11.1057067  45.7653427  50.2425623
  11.5697062  46.8457842  51.1956310  39.8846865  27.0317793  35.4224753
  40.5432796  27.1465373  36.1075425  39.0737605  26.8507814  35.8977318
  35.7837152  31.3010979   2.1223539  36.3817477  32.0483017   2.1057381
  34.9152327  31.6868186   2.0075145  34.3323946  28.5199356  12.9822648
  34.2031693  29.3509340  13.4394002  33.5156322  28.3807158  12.5029421
  55.7450485  55.7754135  58.3522749  56.4126301  56.0999250  58.9566422
  55.5720758  54.8804808  58.6445332  64.3578911  64.6461916  27.0986485
  63.8075352  65.3888273  26.8499851  65.1018953  64.6876717  26.4978433
   4.8872104  12.8978908  34.4589114   5.0696415  13.0095422  35.3919101
   5.7382554  12.6938534  34.0711975  74.5538139  54.7116804  54.6436787
  75.1808262  54.7409916  55.3663349  73.7993145  55.2079725  54.9609375
  73.1004190  20.8536577  38.5467792  72.9982901  20.0428915  39.0452361
  73.4221649  20.5698419  37.6911163  66.1695719  16.3377798  45.8001947
  65.8278990  17.1686482  45.4698181  66.1206532  15.7438815  45.0511122
  39.5680690  28.0311632   7.8642738  38.8705230  27.7744126   8.4673846
  39.5101833  28.9857459   7.8235716  35.8236003  23.8233328  40.0920296
  34.9445724  23.6585784  39.7508526  35.6900144  23.9986992  41.0234976
   7.2464579  36.6959643  32.6438594   7.7633393  36.1800146  32.0251012
   7.1116132  36.1110497  33.3894634  65.2212954   8.3615935  21.3295388
  65.9340048   8.8649714  21.7231011  64.6899176   8.0771220  22.0731401
  44.9116230  34.3650651  22.0155287  45.1390839  35.0620604  21.4001513
  44.0302658  34.5881605  22.3149896  19.7936153  35.3865623  18.2777774
  20.2603030  35.7137823  17.5087786  18.8892794  35.2812624  17.9822779
  10.9633172  38.5331559  27.7570438  10.1139033  38.1556845  27.9856110
  10.7896984  39.0580583  26.9756579  28.8873553  13.7883627  14.3374336
  29.0395665  12.9310119  13.9399266  28.6890650  14.3632805  13.5982561
  43.5334778  14.9546361  44.1788530  43.1851912  15.2003491  45.0359154
  43.4631920  14.0002835  44.1564035   7.3192984  71.7751646  59.0790701
   7.1041232  70.9714270  58.6058426   7.7602828  72.3241091  58.4306717
  34.6540451  33.6427498  50.1872063  34.4126391  33.4263897  51.0878420
  34.6348166  34.5992875  50.1572895  27.5514269  16.8143928  39.3493772
  27.5608206  17.7658510  39.2451119  27.5481486  16.6772807  40.2967024
  57.2399282  28.1109667  24.1775298  57.9605436  28.1803346  24.8037362
  57.4094915  27.2950149  23.7066793  54.7725248  49.1067123  12.0764589
  54.4362736  48.5565901  11.3689756  53.9923286  49.5076752  12.4595428
   4.5598942  36.5636945   9.8027623   4.7654572  36.4825296  10.7340991
   3.9142120  35.8762550   9.6392024  30.6344342   3.7814599   5.6408006
  29.8168111   3.5052538   5.2267569  30.6382775   3.3327118   6.4862835
  46.5229893   2.7036491   1.2041960  45.6644106   2.6479906   0.7846999
  46.7856932   1.7923948   1.3339514  28.6966848  32.8727341   4.2623022
  29.5620489  33.1600595   3.9710641  28.7283850  31.9179773   4.2017657
  25.1394629  41.5944386  37.6164913  25.5309153  40.8158112  37.2205949
  25.5004334  42.3254061  37.1148729  27.1351838  23.6449146  41.7661476
  27.1303058  23.9629650  42.6689482  27.9161763  23.0943012  41.7104006
  17.7258217   0.9627434  40.8676147  16.8653429   0.9737604  40.4484653
  18.0574596   0.0786792  40.7105207  36.8828034   2.0252188  19.9987173
  37.2986126   2.7049589  20.5290842  37.3270106   2.0765612  19.1523862
  37.6851726  35.7727027  20.2504969  38.2101226  35.1586366  20.7639003
  38.0933523  36.6245341  20.4054379  27.4962950  37.8235745  29.4306564
  27.5450587  38.6870956  29.0205550  28.0480480  37.2662711  28.8818288
  51.4962864  10.2485478  59.4339228  52.1114492  10.9375978  59.6849489
  51.9438696   9.4334936  59.6610498  37.1104717  38.6866903  33.5831261
  37.2419524  39.6329641  33.6424088  36.1631322  38.5815501  33.4952426
  31.6631579  36.7738056  16.2709975  31.3071418  36.0822678  16.8289065
  32.4347353  37.0882511  16.7421937  36.9327188  61.6864777  38.8767838
  37.1096206  60.8342981  39.2751908  37.6128602  62.2610188  39.2282701
  56.5939951  15.1364410  41.6188717  57.1121407  15.5578101  42.3045874
  56.8757010  15.5629551  40.8095741  76.1723804  48.9583588  25.3259516
  75.5835390  49.6932840  25.1545453  76.9711304  49.1741323  24.8446274
  46.7339897  35.3935289   0.6385873  46.8436241  35.6567597  -0.2751528
  46.7088127  34.4370604   0.6109293  35.8966613  56.1500454  10.3904700
  36.2711811  56.1200523  11.2708485  35.2311540  55.4620552  10.3897321
  70.8252001  42.2718143  10.3538942  71.5567350  42.6341486   9.8540980
  70.1142359  42.1965408   9.7174191   7.9433835  27.3368430  59.2913961
   8.4820616  27.2559476  58.5043049   8.5405880  27.1361470  60.0120211
  70.8345461  73.4354782  49.9516630  70.4492283  72.6088190  49.6611452
  70.8737278  73.9726400  49.1603661  65.2652740  55.9160376  20.4955053
  64.9545193  55.5804396  19.6546507  65.1399612  56.8631601  20.4364538
  47.2677994  57.8330231   4.6464109  46.5055275  58.2796669   5.0147665
  47.0305204  57.6672316   3.7340271  67.1471262  41.8766546  17.5347638
  67.5337982  41.3450336  18.2305324  66.5856361  41.2691927  17.0531535
  38.2735634   2.8947222  56.8730974  38.4194613   2.9474917  55.9285545
  38.7071323   3.6716229  57.2261953  50.9817934  67.1892118   3.1065363
  51.7751646  67.1783113   3.6419585  51.2110519  66.6812515   2.3283014
  48.1916094  44.3989658  14.6453118  48.8425350  43.8302422  15.0565135
  47.9808855  43.9636564  13.8192773  66.0400486  54.3904829   3.9995816
  65.6902313  55.2300262   3.7012142  65.2912283  53.9470387   4.3981481
  53.2256126  71.9429350  20.0404692  54.1518688  71.9052982  20.2789307
  52.9674006  71.0269976  19.9374545   0.3028063  70.2152443  38.1125259
   0.8996721  70.8025551  37.6487875   0.0982649  70.6754827  38.9265132
  67.2922325  24.7024369  63.5094213  66.3703251  24.7376943  63.2543230
  67.7709961  24.9070048  62.7061987  67.2404528  24.1108251  48.8833284
  67.0520401  24.4446325  48.0062294  67.4092913  24.8943305  49.4066334
  54.8696947  71.6192818  57.7104950  54.6203852  70.7267523  57.9502058
  54.4000530  71.7879486  56.8936586   0.8831380  24.6164489  63.1233835
   0.8643644  24.5626545  62.1678782   0.0610944  24.2130303  63.4021854
  32.2221994  67.8963470  43.3975554  31.3989067  67.4292040  43.2554245
  31.9555449  68.7703466  43.6826086  23.0284452  69.0608788   9.6412933
  23.5087824  68.3695841   9.1856414  23.4516907  69.1221619  10.4976451
  16.0843110  19.6619797  60.3759813  16.4126790  18.8351619  60.0227451
  15.5756533  19.4082272  61.1461210  18.8693321  54.5512152  54.1401100
  18.4664059  53.9613676  53.5029602  18.8053167  54.0839100  54.9730301
   8.6638319   4.2066309  35.8108068   8.0794758   4.8520052  36.2086153
   9.1025525   4.6830779  35.1059985  60.9699869  11.6058719  36.2784362
  60.9853125  10.6843531  36.0199809  60.2261543  11.9756770  35.8028412
  54.3290234  62.4038363  40.7759857  54.6373177  62.8624153  41.5575838
  55.1288795  62.1613264  40.3094530  22.2480321   3.2793066  39.9107265
  22.4028134   3.9443672  39.2399287  21.7253494   2.6103011  39.4686103
  73.7054014  16.8126917  27.7547717  73.9642668  16.0130239  28.2127571
  74.5294571  17.1893620  27.4460936  69.7497177  36.8374515  36.3395953
  69.9198151  36.6512847  35.4162121  70.2902174  37.6034021  36.5330195
  67.0007992  53.3025837  39.6466899  67.9509640  53.4051561  39.5929241
  66.6533422  53.9850330  39.0724349  15.6662869   4.0762898  20.3813267
  16.1033177   4.2598540  21.2129164  16.2603426   3.4804100  19.9249732
  10.7239616  69.7617197  36.3955545  10.2994454  70.5814648  36.1425090
  10.3405118  69.1042805  35.8150601  60.3636789  44.3696785  22.4906850
  60.3038311  45.1902151  22.0014358  61.1729193  44.4503117  22.9955196
  55.5250692  50.5404520  59.1393805  55.9329081  50.9343815  58.3682013
  54.8964071  51.1969042  59.4395208  30.6215525  65.2604246  47.0612812
  29.8290730  65.1503992  47.5867319  30.3024316  65.5306959  46.2002659
  67.3752737  69.6178865  21.1338568  67.8920603  70.3424931  20.7815695
  67.4184895  69.7322321  22.0832205  13.2643390  42.6985931  28.5985589
  13.9798176  42.1770620  28.9623260  13.4775901  43.5997295  28.8408470
  22.9436350  40.0831270   8.6879402  22.2590852  39.9097872   9.3341410
  23.0005813  39.2757654   8.1769085   2.2456138   9.5580208  50.1817513
   2.2273771   8.9226425  50.8974314   3.1195796   9.4663203  49.8022699
  48.2712412  60.7193327  28.1360483  48.2684898  61.3626528  28.8448262
  49.0205145  60.9643602  27.5931048  50.5304623  56.4426994  50.6002378
  50.9780073  57.2677231  50.7880306  50.8548927  56.1852503  49.7372818
   4.9376905  23.7611651  60.1289749   5.1323134  23.6582565  59.1974401
   5.7262540  24.1610956  60.4956579  69.6958780  50.2920580  17.7458084
  69.0299034  49.8989439  18.3098698  70.1127625  50.9563780  18.2945538
   6.3753951   1.6323631  35.1080298   5.7070744   1.9286612  35.7259178
   7.0963627   2.2520217  35.2196574  69.1936350   1.1551180  18.8575125
  68.7527657   1.6552627  18.1706929  69.5381308   1.8196681  19.4541097
   4.7928232   6.3012177  32.7921748   4.5466927   5.4025257  33.0112743
   5.5611628   6.4782089  33.3349109   3.0049381  31.5042996   8.5125405
   2.9546654  30.5589628   8.3709592   2.3523790  31.6799951   9.1904265
  53.3741713  56.0546207  47.9018211  53.2120848  55.4722452  47.1596622
  53.5765171  56.9007301  47.5025892  69.9805593  50.6461477  21.4876461
  69.6201897  50.1087856  20.7822299  69.4964361  50.3740168  22.2672629
   3.2329121  15.6621695  11.0411906   3.8133425  14.9731624  11.3646126
   2.3569447  15.2791882  11.0884976  57.2114515  59.7604656  47.0095253
  57.0077133  58.9537382  46.5363312  57.4643946  59.4672966  47.8849173
  54.0261126  55.9596252  17.6485014  54.2203808  55.8557796  16.7169929
  54.7759295  55.5662155  18.0948532  36.8644857  46.3840389  13.0380583
  37.6153851  45.9292889  12.6565075  36.9968820  46.3136005  13.9834368
  70.4021645  57.3425198  21.4410639  69.6616316  57.3307180  22.0474505
  71.1104679  57.7543306  21.9359922  52.9469013  69.7439146  46.9637680
  53.1142139  69.0114784  47.5568771  51.9927454  69.8132324  46.9319820
  12.1564305   5.4141945  46.8770123  12.6660788   5.8136612  46.1720848
  12.5709987   5.7289338  47.6803207  55.1873350  58.6521626  40.0641632
  56.1229515  58.8530016  40.0413513  54.8808002  59.0321779  40.8874846
  53.5911989  60.2342892   4.3833688  53.1693935  59.3933392   4.2069769
  54.5285225  60.0416088   4.3602774  25.4418874   1.3181563  20.3476000
  24.9452925   0.5674667  20.6733155  25.2347040   2.0255625  20.9582400
  72.2231960   1.6604742  39.6714449  72.9470873   1.8388969  39.0711284
  71.4914036   1.4252917  39.1010094  62.8620768  23.2329774  38.5296321
  63.7231064  23.0389762  38.9000678  63.0511665  23.6352181  37.6818824
  12.5844967  54.2274761   4.8791033  12.2856283  53.3776188   4.5556018
  13.4054220  54.3859482   4.4130552  17.3845482  71.0843801  16.7044759
  17.3263991  70.2898693  16.1738110  17.4069059  70.7680702  17.6076269
  44.1319561  10.0551915  26.0575414  44.5927858   9.2932034  25.7064795
  44.7245789  10.4088783  26.7208195  74.7296047  16.0291243  25.1647258
  75.4609966  16.4465046  25.6197977  74.3966627  16.7058814  24.5753360
  56.2955093  69.0288401  26.6505790  55.3745747  68.9463758  26.4029670
  56.6691351  69.6142864  25.9918785  77.6138496   2.4521463  37.6093054
  77.5943851   3.4091473  37.6107025  78.2315111   2.2241321  38.3040977
   9.0367275  40.3444672  30.3853846   8.2589716  40.8408880  30.1306367
   8.8005215  39.4306946  30.2258420  45.6250906  71.9553089  14.9912214
  45.8716297  71.0963154  14.6483147  46.3995028  72.5002670  14.8514450
  23.3848214  62.0767117  18.6927485  23.1207705  61.7553759  19.5548689
  22.8540611  61.5722847  18.0762458  70.1782656  63.1145000  22.8544211
  70.5174065  63.9113617  23.2621336  69.2332506  63.2567406  22.8001809
  60.2495718  46.8870735  31.2174487  60.3285313  45.9636831  30.9779859
  59.3899727  46.9540358  31.6331911  62.1802235  37.6248622   8.3223748
  61.2477541  37.8024125   8.4456784  62.6050138  38.0453396   9.0700263
  15.2934802  15.6288695  42.1101809  14.9503958  16.4692259  42.4140310
  15.3793538  15.1034808  42.9056835  77.0273113  11.2178564  32.5161719
  77.1969795  12.0806730  32.1380305  77.8737307  10.9387028  32.8652859
  44.4899225   6.0860562  30.6256318  44.3641996   5.6066108  29.8067546
  44.0661097   5.5418462  31.2892985  48.3761454  46.8327999  15.3917384
  47.9427528  47.2049379  14.6236813  48.2095051  45.8923340  15.3285897
  51.4714003  70.5244637  23.9336276  52.2737455  70.0447464  23.7278485
  51.1249447  70.7885313  23.0812955  73.3499956  46.1634016  26.4071131
  73.5102463  46.9754076  26.8879390  72.3962498  46.0905361  26.3712311
  39.9845099  60.4697132  22.3759031  40.0329733  61.3632393  22.0360518
  39.4759417  60.5477190  23.1830621  33.1935096  27.3793149  56.4184427
  33.8608479  27.7191424  57.0146036  32.7478790  28.1593752  56.0880613
  48.5110760  57.5056934  27.3601174  48.6756659  58.2916880  27.8810334
  47.8931093  56.9960880  27.8841877  10.3115737  32.2614408  39.0277505
   9.4291574  32.2321415  39.3974996  10.5930042  33.1679702  39.1511846
  48.6751366  21.2290072  63.7144232  47.9668856  20.6893992  63.3630896
  49.2548323  20.6068730  64.1538954  69.0149498  17.5368893   2.8369078
  68.7452316  16.8262887   3.4187427  68.2088518  18.0227327   2.6625642
  17.5416958  64.4610882  11.1326909  17.1398914  65.2147770  10.7005620
  18.2305217  64.8379993  11.6801286  30.7476711  15.2974820  54.5894480
  31.0157347  15.7402253  55.3946543  30.5201173  16.0080183  53.9897919
  16.1963916   8.1474656  20.3673530  16.5210402   7.8445601  19.5193648
  16.5839636   7.5442934  21.0015488  17.7424204  47.2956753  12.9385591
  17.2205722  47.9023838  12.4133849  17.7774847  47.6988316  13.8060069
   2.7506039  10.1566768   5.8264190   2.1620645   9.4773042   5.4973191
   2.4642566  10.3056753   6.7275494  57.6597691  70.5247593  13.7084723
  58.5991001  70.7071161  13.6833382  57.2741508  71.3079977  14.1009903
  76.4810610  57.5373459  20.2566433  76.2955809  56.6024590  20.1682425
  77.3502159  57.6466179  19.8708236  31.6409564  68.7743902  18.5509992
  32.3871803  68.1763983  18.5086858  31.1307859  68.4680891  19.3007576
  69.1103649  59.8421907  14.8855913  68.9072561  59.5200443  15.7637715
  68.8515854  60.7635880  14.9026752  72.3089123  69.8812008  24.9835563
  72.2474098  70.8357859  25.0184560  73.2473707  69.7038317  24.9197650
  32.4020553  43.6819744  16.4210153  32.9682660  43.1004667  15.9135807
  32.2769904  44.4458389  15.8579004  37.7439308  25.5012941  36.7280889
  37.4622035  24.6594906  36.3699985  37.7408028  25.3712821  37.6764131
   4.8482895   7.1941453  14.2251039   4.7637719   7.6882386  15.0405550
   5.6289011   7.5559717  13.8056290  32.3113394  42.8464699   4.7934136
  33.1585622  43.2679510   4.6492046  31.8765879  42.8849459   3.9415076
   1.5233642  15.0538516  34.2092776   2.1719560  15.6975484  33.9242983
   0.7115839  15.5537033  34.2952514  72.6928616   7.5035048  36.9178748
  73.1935692   6.6922510  36.8319058  72.1661425   7.5455928  36.1197352
   7.2760695   4.9195072  27.0968723   7.3615086   4.8531461  26.1458039
   7.4710184   4.0387067  27.4168992   3.8780305  14.4348133   0.9725121
   3.8130888  15.3212428   0.6171871   3.2890460  14.4354856   1.7270505
  54.2661619  43.2821035  12.3844540  54.9039698  43.1864119  11.6771531
  54.0739632  44.2195034  12.4084556  73.5869884  58.2955980  51.6972876
  73.8688993  58.4975386  52.5894594  73.7232542  59.1098881  51.2129450
  53.7443829  73.8742590  18.1518626  54.6832085  73.6934710  18.1983423
  53.3662844  73.3628178  18.8671958  18.6797273  25.6141424  61.2537575
  17.9347610  25.9568381  61.7475367  18.3097780  25.3584385  60.4087830
  50.9282494  66.9979095  28.6622310  51.5249300  66.2589455  28.7811041
  51.4131451  67.7532005  28.9948630  78.3372068  17.1392500  29.0356255
  78.4479141  17.8845954  29.6259117  77.6576042  17.4184847  28.4221077
   3.2663700  48.2269382  49.1917515   3.4631097  48.0294323  50.1074553
   2.6100010  48.9224672  49.2324257  64.1113281  44.3169260  47.2073221
  64.3175125  43.3998680  47.3882103  63.3551788  44.2813635  46.6214848
  50.3044987  58.8207769  44.1367006  50.4274940  58.8377714  45.0858116
  51.1831522  58.6805487  43.7837982  17.1282589   1.9635625  29.4915462
  17.1895969   2.9186550  29.5079184  16.3240409   1.7835173  29.0046692
  63.3659077  45.9705496  24.5172429  62.4246788  46.1094666  24.6222258
  63.7471581  46.8451643  24.5942760   6.0589236  61.3432264  12.1145296
   6.0220712  61.4201403  11.1611366   5.4056239  61.9673491  12.4305999
  34.2089176  72.7416182   0.7657810  33.5508561  72.3460102   1.3373409
  33.9362121  73.6554241   0.6831859  67.7607203  74.0729856   8.6008817
  67.7649832  73.2525349   8.1078494  66.9596148  74.0342951   9.1233426
   8.0451792   4.2978299   0.2640667   8.9690590   4.5480743   0.2715334
   7.7314025   4.5139179   1.1421794   5.9330100  73.8389587   2.3515654
   5.2688968  73.7250137   3.0314201   5.6919104  74.6564198   1.9158332
  65.1721191  67.1629953  36.2089491  64.8935556  66.8235588  37.0594883
  64.4243908  67.0067072  35.6321383  58.9608192  10.2666938  54.5050669
  58.9623976   9.5918190  53.8262606  59.7930813  10.7250607  54.3890333
  59.1611052  31.8670750  39.8503542  58.3338785  31.4110041  40.0050354
  58.9055014  32.7709866  39.6663833  22.8716898   5.2037412  27.4205327
  21.9349170   5.1627922  27.2281480  23.0335784   4.4477212  27.9848528
  60.9020853  52.9909277  19.0692079  60.6157875  52.9696941  18.1560731
  61.8467665  52.8423834  19.0275419  73.9148140  50.1188374  45.9893036
  74.6196556  49.5452929  46.2901020  73.1214619  49.5909405  46.0795689
  46.4944410  66.7162466  20.0072956  47.3794842  67.0528221  19.8671317
  46.1399746  66.6000748  19.1257679  44.8259401   5.7177776  58.1222391
  44.7517252   5.1889443  57.3278475  44.9587011   6.6107118  57.8040028
  51.1164570  52.3381996  33.7270427  52.0480871  52.2272873  33.9167762
  50.7240677  51.4946938  33.9523339  77.8522110  68.3048820  41.3858414
  78.7136936  68.2242775  41.7952108  77.7762604  67.5274849  40.8325672
  65.9047985  44.0970421  51.2720013  65.1164055  44.4303608  50.8435535
  66.6154861  44.6278811  50.9123278  44.0382433  22.3321271  62.5183916
  44.5584345  22.0600080  61.7623615  44.5257807  23.0657315  62.8930426
  22.3310399  72.2314310   5.6331855  21.9929600  71.9063139   4.7987807
  21.6161346  72.7564526   5.9930378  30.6232643  16.6207194  30.4991245
  30.1253176  17.3213768  30.0779819  31.2620997  16.3509369  29.8393226
   3.8127807  14.9360669  27.8703809   4.5264411  14.9661863  27.2331882
   3.0170947  14.9982858  27.3419452  23.5033250  37.9050040  17.2175694
  22.8165054  37.3913240  16.7925513  24.3185186  37.5713205  16.8429399
  66.8517351   0.2158171  14.4019651  67.5019455   0.4176939  13.7291324
  66.0667324   0.6889835  14.1260660   0.5451625  31.4488792  19.0139759
   0.8662075  30.6749749  19.4768322  -0.4012543  31.4379406  19.1568148
  71.4152384  73.2795572   1.8169262  70.6306982  73.3613825   2.3591773
  71.2736511  72.4800968   1.3099243  36.1165977  27.3628950  55.8657789
  35.9967160  26.5215421  56.3062143  36.9274282  27.7130389  56.2348080
  42.7097464  50.9398746  12.1967471  42.5180674  51.5285730  12.9267633
  41.8863058  50.8834505  11.7119873   3.9877418  21.4663458  61.6886425
   3.8845468  21.1328101  60.7973862   4.5402652  22.2419381  61.5916491
  64.7010660  22.7847505  24.3901110  65.2197170  22.5218534  23.6297703
  65.0318718  22.2412276  25.1052189   6.4027387  18.9607251  32.3559737
   5.8962721  19.6108544  31.8690920   7.2756958  19.3457663  32.4329209
  70.6878376  57.2927380  32.5001574  71.2128830  56.4933157  32.4616599
  71.0780811  57.8675318  31.8417072  49.6457148  31.3532162   7.1817714
  49.5719767  31.8707752   7.9835987  49.1100073  31.8235493   6.5429950
  43.0023098  31.6711569   7.2122997  42.3731279  31.0967422   6.7759389
  43.6789179  31.8292856   6.5539467  65.8024693  49.7310972  34.7942519
  65.5901051  48.8434458  35.0827074  66.6923523  49.8803043  35.1137447
  26.6993237  14.2358971  63.3195353  26.9705296  14.0389299  64.2161274
  27.0156765  15.1257527  63.1636238   3.6132601  30.1323032  46.3207436
   3.2006139  29.2719841  46.3969183   3.1135678  30.5778885  45.6366444
  31.1954379  69.9790859  41.2494469  31.9276142  69.3860483  41.0807610
  31.2053323  70.1081181  42.1978617   0.4973889  26.9316363  60.5377007
  -0.0855255  26.4063740  61.0859203   0.9538016  26.2915945  59.9915648
  71.3937187  66.7766857  52.2609472  71.5425348  66.0051870  51.7142534
  71.7901993  66.5535641  53.1031132  30.9314227  68.6932278   1.4941697
  30.0141859  68.7038851   1.2206847  30.9061384  68.9116383   2.4257758
  50.0973129  61.7151260  38.1198525  50.0739574  62.6387215  37.8695416
  49.1949463  61.4147282  38.0115557  54.6163273   5.5334884  29.7126007
  55.3437996   6.1328381  29.8793197  54.2032528   5.8731771  28.9187431
  11.3959372  27.2578239  28.4994793  11.5606427  27.6714826  27.6521373
  11.9453824  26.4740419  28.4942126  21.6232514  73.2572889  18.4778059
  22.0266485  72.9379606  17.6706290  21.1806035  72.4914551  18.8435853
   4.1485712  38.1489110  18.5746992   4.0446916  39.0420198  18.9030230
   3.4686679  37.6476288  19.0248990  21.2623715  71.7461872   3.4092134
  20.3802824  71.4257145   3.2209465  21.7997551  71.4013863   2.6960775
  54.6115303  74.2681980  33.4758806  54.7250843  73.8992071  34.3517709
  55.3749561  73.9621592  32.9862356  60.0457621  54.4895744  50.1047897
  60.6483078  54.4951868  49.3610573  59.2196321  54.8138428  49.7461891
  64.6878767  57.8021431  29.6638942  63.8165236  58.1823254  29.5523882
  65.2859545  58.5444546  29.5772672   4.5107576  23.1458306  57.0778608
   5.0490683  23.6511970  56.4687157   3.6619979  23.0706167  56.6417646
  37.3757958  72.9757166  17.3812187  37.5348067  72.0411968  17.5139582
  37.0554614  73.0387306  16.4814138  16.5557837  13.3473623  28.2475948
  17.3673344  13.2314849  28.7417507  16.6310203  12.7343130  27.5163341
  58.8907051  67.1430302  17.3160493  58.5929871  66.8529987  16.4537990
  59.8458481  67.1083498  17.2638047  29.5958233   0.2284854  50.9562206
  30.3224754  -0.1218189  50.4409599  29.9578667   1.0043236  51.3842773
  67.6542997  38.4349585  11.9833791  68.3986616  38.9766717  12.2455072
  66.9994783  38.5811877  12.6660585  71.0407114  35.1403189  25.9174871
  70.6904364  34.7668886  25.1087308  71.7518854  34.5496678  26.1656713
  46.2562752  47.8170013  19.9130130  46.1769104  48.4315538  19.1834545
  46.1350441  46.9551945  19.5144904  46.9223452  74.0467024  36.3397217
  47.8397083  74.2174006  36.1263108  46.6080570  73.4960985  35.6225801
  74.5320892  62.5193834  28.4768009  75.3917599  62.4470949  28.0621123
  74.1093969  61.6789865  28.2998848  45.8820963  48.5335207   6.0328031
  45.9853363  47.6620960   5.6504512  44.9477720  48.7232924   5.9476250
  62.6600218  73.4609365  28.5883188  62.6956415  72.5792933  28.2172823
  61.7362356  73.5943174  28.8005924  17.9414594  50.8654165  55.8344793
  18.4667349  50.1030111  55.5914640  17.1338201  50.7706356  55.3295374
  55.7955122  51.7886543  37.5877118  55.1361704  52.2544718  37.0734024
  55.9085608  52.3238087  38.3732462  24.6448112  20.6692743  55.1010609
  25.3640342  20.2401471  54.6375990  25.0557780  21.0588026  55.8728170
  50.3127623  62.3910427  51.9572687  49.4550467  62.7865171  51.8018484
  50.1752853  61.8059397  52.7022409  34.8822474  43.6655188   4.3273649
  35.6564808  44.2164278   4.2120594  34.8905826  43.0792904   3.5707283
  72.1446514  38.5721850  41.7159510  72.8471231  38.1335878  42.1959496
  72.0108891  39.3951750  42.1860838   0.8783884  37.2668028  54.7916555
   0.8872082  36.3364458  54.5667267   0.1718865  37.3517466  55.4318714
   3.2887113  59.2034674  23.7694478   2.9496744  59.6015692  22.9676986
   2.9285148  59.7411585  24.4746995  58.4818029   7.4214172  48.5737371
  58.0072784   8.1034571  48.0984735  59.2137146   7.8811330  48.9850712
  48.1090546  53.4908581  53.7804842  47.4898100  52.9573154  54.2785788
  48.9338636  53.4104538  54.2595053   7.7051777  66.9241714  44.7995234
   7.1431231  66.3958693  44.2327595   7.9030901  67.7039671  44.2808867
  48.7444830  17.9235876  16.6915286  49.0583086  17.6188719  17.5429356
  48.0809355  17.2822583  16.4373076  53.8255453  63.3619452   1.5378030
  53.2809401  63.6214638   0.7946414  53.4454107  62.5357533   1.8363601
  46.5615177  48.8583088  10.7369888  46.5885639  48.3582497   9.9212432
  46.4924860  49.7708416  10.4563558  69.0456724  55.1928282  36.2442470
  68.3158016  55.0901699  36.8549705  68.8363409  55.9867001  35.7521272
   3.7975144   4.9387413  55.9160995   2.8881133   4.6928194  56.0856390
   3.9017645   4.8335356  54.9704266  69.7605801  33.5389185  53.6058998
  70.1151609  34.4006467  53.8248301  70.4869318  33.0816483  53.1821632
  55.4195595  60.7603025  26.6383719  55.3098822  60.3688383  25.7717943
  56.3675690  60.8036566  26.7633653  11.9118345  69.4976234  61.6730452
  12.8548598  69.6303892  61.5765762  11.5661812  70.3684330  61.8691254
  29.0553891  12.4486636  64.8369530  28.1024968  12.3970842  64.9115575
  29.3696725  11.6242456  65.2081627  50.4439878  59.1493702  46.7854023
  49.8301411  59.4885445  47.4368572  51.2779856  59.5660067  47.0024157
  21.8996644  28.5533452  50.3617144  22.1587110  29.4640255  50.5023718
  21.4115667  28.5675979  49.5384359  40.9815836  71.7735767  44.5111799
  41.0903597  72.0110655  45.4320526  41.3464117  72.5149298  44.0279341
  64.6058607  69.7485447  36.3388443  64.7075176  68.7991047  36.2720895
  64.1501331  69.8827934  37.1698213  52.8308010   2.9446867  49.4595289
  52.4894571   2.1416101  49.8529530  53.3857679   2.6421300  48.7407064
  33.7594151  51.9140434  13.9123929  33.9218307  50.9713125  13.9456630
  32.9583240  52.0371914  14.4216287  42.3382664  14.7496712  19.8224282
  42.6322842  14.3166745  20.6238627  43.1387901  14.8835778  19.3150258
   1.4834830  42.9425335  37.6246762   0.9973123  42.2226000  37.2227168
   0.9012260  43.2719374  38.3092928  78.1622410  67.1816683  14.6115291
  78.6717701  66.9120646  15.3756797  77.4019194  66.6001701  14.6133292
  59.0511274  13.3156836  19.9603653  59.6388197  13.1041014  20.6856799
  58.4731674  13.9936924  20.3103614  50.2299500  61.9421291  20.6748033
  50.8429146  62.0505714  19.9476552  49.4833422  62.4945116  20.4431009
   0.5142310  70.5046558  60.1293135   0.4003169  69.5567513  60.1981544
   1.0295387  70.6266785  59.3319416  74.0177393  15.9816670  63.5858727
  73.9858818  15.1722133  63.0759716  74.8152113  15.9036613  64.1095018
  58.1559134  61.6142082  27.5438046  58.1885433  61.4362383  28.4837484
  58.8652372  61.0874557  27.1755362  15.3005874  29.1094422   9.8365885
  15.8975661  29.8576546   9.8415488  15.3467786  28.7721062   8.9419919
  13.9489138  35.1989412  31.2224293  14.6637416  35.1937795  31.8590045
  13.7455106  36.1259937  31.0982037  58.2791519  33.4961224   8.1268615
  57.4755716  33.0562878   7.8493083  58.9465141  32.8101993   8.1076843
  38.1111836  55.8007097   1.5915225  37.3261118  55.9812880   2.1085197
  38.5635972  56.6427326   1.5409750  68.9944506  65.2025652  25.0686574
  69.9277067  65.1931715  24.8561049  68.9629459  65.4251242  25.9990931
  48.2810688  61.9225121   8.8058621  48.4421015  61.2013292   9.4142985
  47.5379801  62.3930836   9.1835058   1.8052094  73.4515953  26.9454956
   1.9704711  72.7494574  26.3162708   2.6705828  73.8170719  27.1293068
  46.1054122  75.0285076   8.0667692  46.0530030  74.2365411   8.6018157
  45.9282576  75.7430381   8.6785662  26.6122413   5.3666937  20.9133911
  26.3918877   6.2217015  20.5437446  27.0393872   5.5685484  21.7458773
  63.3917713  64.4920349  22.7096367  63.9273071  65.2821875  22.7810144
  62.6844454  64.6242619  23.3408523  71.1676455  71.9067049  27.9552317
  71.4232016  72.7990580  28.1889582  71.4523888  71.8061495  27.0469141
  78.9502144  20.0162816  25.9734344  78.3514643  19.5814538  26.5806031
  79.6363020  19.3693519  25.8091164  69.9129152   8.2559007   5.8159077
  69.1650820   7.6696652   5.7005543  69.6324682   8.8714594   6.4931595
  13.5066569  54.8113394  63.1941795  13.2481802  55.0852013  62.3141670
  13.0051899  55.3796148  63.7788391  47.4213123  19.9803662  59.0614653
  47.5885916  20.2946353  58.1729364  46.8391037  19.2296648  58.9443541
  67.1842289  19.6481919  17.1687758  66.3445950  20.1055264  17.1229792
  66.9650030  18.7290883  17.0157397  56.0632849  39.4795585  55.2396631
  55.9876013  38.8912106  55.9908962  55.3377867  39.2311049  54.6668100
  60.2486038  54.6928263   4.7176236  60.5247545  55.5954647   4.5588270
  59.3202496  54.7620344   4.9403208  67.6393223  66.8282127  31.7063785
  66.6873884  66.7381239  31.6623044  67.8348875  67.5800943  31.1472130
   9.3642634  17.1558332  48.6821461   9.3332905  16.7889416  47.7985954
   9.7685015  16.4691973  49.2125750  11.4526200  56.0610247  64.5382690
  11.8417740  56.9354677  64.5499420  10.6707883  56.1394835  65.0849056
  35.5585504  49.1964817   3.2330102  35.7525420  49.9644661   3.7704125
  36.3951993  48.7370825   3.1609038  15.1002967  12.4966025   4.5972276
  15.1050913  13.4500742   4.6814927  14.1752148  12.2562337   4.6489736
  39.7505879  62.1188736  26.7730308  39.9782085  63.0477810  26.7335844
  39.4417572  61.9103050  25.8913517  64.5203638  66.2024736  11.7368531
  63.9157915  66.9227695  11.5582657  64.2107964  65.8289385  12.5620019
  53.5032892   5.2920753  53.0490112  52.9354572   5.7472217  53.6708212
  53.7126398   5.9522414  52.3882675  77.5277138   9.8183364  23.6320448
  77.2220659   9.2975688  24.3747520  78.2258463  10.3643823  23.9935374
  63.5707331   1.9251822  17.7446890  63.1013298   2.7500889  17.8688669
  63.4477901   1.7167103  16.8185925  57.6149368  50.3132486  30.0891829
  57.0567036  49.6694279  29.6531677  58.5072613  50.0152969  29.9125099
  74.5204353  65.5368137  25.4200482  74.4016790  64.5939016  25.3058219
  74.2086840  65.7116461  26.3080096  70.6689930  34.6428347  28.5956025
  70.6080484  34.8423553  27.6614141  70.4210854  35.4582524  29.0313411
  52.9321814  52.2984982  17.6975167  53.7893105  52.5727844  18.0235970
  53.0560255  52.1976376  16.7537355  61.2879372  40.4641628   3.7875909
  61.5746260  40.3270435   2.8846839  61.7413664  39.7860956   4.2884502
  48.4779739  46.2374973   7.1402621  47.8690243  45.9089088   6.4788687
  49.0915489  46.7847586   6.6500896  42.3640251  54.4564438   9.3502766
  42.5946474  55.2821493   9.7760147  41.4765930  54.2689514   9.6561223
  20.2019262  68.7048960  18.6814427  19.6253026  68.2451773  18.0711997
  19.8627627  68.4792137  19.5476234  56.9218302  59.7582674  24.1708422
  56.4042234  59.9648666  23.3926225  57.5586843  60.4703331  24.2308950
  33.4424973  24.6881390   4.5036235  34.3618178  24.9434757   4.4269219
  33.4640217  23.7337303   4.5734233  37.5719023  20.4147887  32.1354938
  38.3817601  20.8976889  31.9706607  36.9673252  21.0717583  32.4806213
  55.0994921  44.2506361   9.4857687  55.9928560  44.3813896   9.8036337
  55.1790237  43.5642958   8.8233179  14.8183084  23.8993573  34.9858809
  14.2005479  23.8620210  34.2556691  15.1510489  23.0052614  35.0640607
  51.1997414   8.8463610   8.3894300  51.1673069   7.9396409   8.0844080
  52.0648813   9.1577655   8.1233656  78.9144516  73.0012274  39.1680408
  78.8934851  73.8327312  39.6417403  79.4351387  73.1841755  38.3859634
  55.6306314  14.2733264  14.4125748  55.8797884  15.0001085  13.8416624
  56.2013960  13.5526896  14.1458499   9.6175867  66.9140863  12.5586140
  10.2903140  66.5487719  11.9839704   9.9883157  67.7414608  12.8656006
  12.2917473  51.0628033  14.6801949  13.2168031  50.8279037  14.6071994
  12.0414710  50.7798767  15.5597091  12.4027359   9.1893017  33.1907916
  11.6056907   9.7055864  33.3107924  13.0807865   9.6854222  33.6494207
  56.1251068  58.5692501  60.1710510  55.2968025  58.7887573  60.5976248
  55.9621429  58.7194824  59.2398643  58.1008339  70.2200890   8.6956429
  57.3321629  70.0993061   8.1381583  57.9015064  69.7235107   9.4893110
  44.7340298  71.9880104  21.9902825  44.2900038  72.8049517  21.7629600
  44.3764257  71.7511177  22.8459883  50.8197546   4.6181896  41.5055084
  51.3778591   4.9087662  42.2268343  50.0780869   4.1906628  41.9337368
  74.5469666  57.0512915   4.0151179  74.3339872  57.8150702   4.5513269
  75.4734707  56.8865204   4.1902658  12.0436251  10.1685011  14.8990452
  12.3824453  10.0305378  15.7835782  12.4182594   9.4533491  14.3848085
  71.5343571   1.3392450  31.0359216  71.7755651   1.3515487  30.1096916
  71.0763931   2.1681620  31.1751914  36.1574745  31.4262533  35.5374122
  35.7239485  31.8794847  34.8143148  36.9162774  31.0039163  35.1348138
  73.9219904  21.3183498  27.7532029  74.6853209  21.0618734  28.2706785
  73.3447838  21.7563343  28.3786869  65.8717203  36.2781715   6.3697237
  65.0297260  35.8624458   6.5553427  66.0981321  35.9780407   5.4894447
  39.9480581  70.1189470   2.0643011  39.5559597  70.3608799   1.2252781
  40.5307579  69.3890238   1.8547633  47.1306658  62.8626442  39.1534162
  47.1050167  61.9902086  38.7604356  46.4691210  62.8335381  39.8446059
  64.1596842  63.1283760  41.8744946  64.0398836  63.5203266  41.0094786
  63.3053732  63.2154989  42.2973251  59.8172760  58.5002470  36.2417722
  60.2915335  57.9323626  35.6344652  60.1007080  58.2125711  37.1096087
  65.4288769  63.4687710  63.6132622  64.8652887  63.6118031  64.3736172
  64.9091053  62.9150391  63.0306387   2.1757415  17.0034742  16.8092203
   1.3474105  16.7003620  17.1810031   1.9908750  17.1223342  15.8775926
  30.2668667  65.6622219  35.6726861  30.4656982  65.9943342  36.5481281
  29.4153190  66.0438299  35.4594421  71.6032028  50.6429720  49.3304014
  72.1302128  49.9714279  49.7634363  72.1331835  51.4379215  49.3887663
   4.3755740  67.4568748  22.4518800   3.7881160  68.1840134  22.2459912
   5.1722789  67.6447487  21.9556999  71.7141294  73.1222105  36.8114114
  72.6571655  73.0052567  36.9264555  71.4183140  72.3042154  36.4119005
   8.8455838  41.2404966  12.5509095   8.7670046  40.5077553  11.9400561
   8.1455970  41.0974073  13.1879139  63.8811922  43.4121561  32.2616792
  63.2259274  42.7715158  32.5381637  63.6224318  43.6504936  31.3714695
  46.0873318  12.4730790  52.2969007  45.1518297  12.4606287  52.0946407
  46.5142775  12.5912952  51.4483881   9.4534653  62.5457668   5.2888942
   9.5463270  63.3252239   5.8366716   8.9669979  61.9268847   5.8334702
  55.6103182  40.6110716   2.5976148  55.5508518  39.6579599   2.6629764
  54.7942829  40.9290171   2.9839224  61.0955238  12.5334811  21.7697215
  61.1091280  12.5467932  22.7267313  61.9108725  12.9639649  21.5125823
  46.1759281  24.3923450  10.5199397  45.8860874  24.1762447  11.4062381
  46.0415173  23.5866809  10.0208712  65.8442831  13.4772682  14.6880710
  66.6121531  14.0150177  14.8815560  66.2042713  12.6240695  14.4458008
  15.3547907   7.9194885  24.9022055  14.7630811   8.4255421  25.4590011
  15.4771507   8.4646600  24.1250014  49.8507881  73.3826494  38.7860727
  49.6586466  74.1881847  38.3060455  49.1202879  72.8000164  38.5783505
  20.4664803  57.0908785  17.1171522  19.9661708  57.4952173  16.4083266
  20.7194018  56.2341070  16.7733395  69.9914598  14.8441184  17.4370193
  69.5600986  15.3234243  16.7296100  70.7636786  14.4549739  17.0265615
  19.1202438  71.0891104  37.3916602  19.7498786  71.1373186  38.1110144
  19.0492105  71.9895458  37.0747924  55.0984144  26.9211125  63.8800573
  55.3435421  27.3750877  64.6863174  54.6420193  27.5836444  63.3614159
  15.7597995  60.2210999   6.4204371  16.6686606  59.9685240   6.2579238
  15.2713287  59.3990660   6.3769454  60.7033300  56.0800076   7.2869682
  60.2130318  55.7700872   6.5255290  61.2395239  55.3311396   7.5475991
  35.5533600  30.0532913  42.8297663  35.5748630  30.7276607  43.5087347
  36.3494420  30.2017546  42.3194313  67.5617981  46.3730860  44.7730732
  67.1010017  45.8446455  45.4247236  68.2002068  46.8750381  45.2797413
  40.9156704  69.6694517  13.3293402  40.8857489  69.8659897  12.3930120
  40.4066038  70.3698206  13.7374675  72.5854826  51.7279053  22.4729109
  71.6383839  51.6524315  22.5892878  72.7748585  52.6507139  22.6425958
   5.1680475  43.3176374  62.9936075   4.9592271  44.2471933  63.0861235
   4.7434443  42.9009867  63.7435055  72.2577810  55.5066586  39.8020482
  71.6253233  55.7745981  39.1353846  72.8361702  54.8921776  39.3502617
  77.4650145   9.8449111  43.5504723  77.3218489  10.3247738  42.7347088
  76.6464043   9.9478954  44.0357542   7.8400803   9.5528102  41.3848162
   8.1404573   9.3723571  40.4940653   8.3713579   8.9796180  41.9374704
  66.0571957  35.9228134  13.6118114  65.7104063  36.8066692  13.4902859
  66.9592476  35.9738946  13.2957041  66.8964529  65.7755804  63.6689854
  67.4388218  65.8099127  62.8810215  66.5575790  64.8805714  63.6876917
  62.9064369  55.7544899  27.3399711  62.8655910  56.2731838  26.5365314
  62.8185606  54.8482180  27.0447040  12.5616693  41.2190580  19.5479155
  12.9232335  42.0838165  19.7420812  13.1566060  40.6077003  19.9821091
  66.0475254  67.6524734  26.2296152  66.5446663  67.6996136  25.4130006
  66.4962673  66.9820976  26.7448473  15.5119336  69.4518757  38.3784556
  15.8176351  69.0604973  37.5601649  14.5622957  69.3331194  38.3606577
  58.5356236  24.4307423  60.8273220  57.7331877  24.6801424  60.3689289
  58.4347391  24.7996688  61.7047882  57.4553776   8.7155145  20.2273941
  58.1989956   8.9806098  19.6861100  56.6861868   8.9970505  19.7321069
  64.0294504  56.7046642   9.0704566  63.9816141  57.4653769   9.6494752
  64.6919203  56.1409140   9.4698983  39.2357850  24.4553423  16.2538362
  39.0858889  23.6503458  15.7581127  38.3856630  24.8952270  16.2590539
  39.3094373  46.8202925   0.9160747  39.7796559  46.0409355   1.2122707
  38.7410259  46.5045452   0.2136207  68.6817741  62.4729013  26.6375518
  68.0758810  62.5623512  27.3731637  68.2248735  62.8778267  25.9003210
   2.9513457  71.4315510  19.3551099   3.3431050  70.5808306  19.1575456
   3.6614376  71.9358110  19.7522521  71.8308306  52.1648979  41.4091206
  71.8137455  51.8135786  40.5188894  72.6945543  52.5693655  41.4904547
  48.6063528   4.3031174   6.0883218  48.5921812   3.4499300   5.6546140
  49.0944290   4.8681805   5.4893917  64.8302746  60.9760904   0.4122658
  64.2635298  61.1692142   1.1590844  64.8185444  61.7775965  -0.1108805
  24.6930432  40.0908661   4.3899581  23.9901948  40.0990248   3.7402108
  25.3553367  40.6831217   4.0338209  75.9981680  68.8814592   5.5445170
  76.9456673  68.9742088   5.4451191  75.8091116  69.2607641   6.4027810
  43.1154394  14.9578142  46.9502687  43.7280893  14.3702257  47.3925734
  42.5668621  15.3053534  47.6534891   1.6751826  64.1796398  18.5007024
   1.4956357  63.3727169  18.0181313   2.4478194  63.9765120  19.0279639
  37.7755475  63.7773037  17.9645431  38.4453225  64.3934393  17.6678753
  36.9629192  64.2830038  17.9529583  42.2256565   2.3378043  28.5546160
  42.7758741   1.9032583  27.9029536  41.9983625   1.6459683  29.1758490
  57.9364300  64.9982691  12.1158731  58.7422991  64.4914722  12.0160663
  57.3036242  64.5558071  11.5501773  45.4158401   8.5460478   3.8027737
  44.9514294   9.0455294   3.1311521  45.7010174   7.7497172   3.3547080
  49.6487474   0.5796559  10.7075560  50.3553963   0.5457821  10.0627828
  49.7309065  -0.2393181  11.1961901  48.6432695  17.6659071   8.6404753
  48.4401321  18.4109271   8.0748683  47.8650284  17.5615847   9.1879094
  68.3929634  68.2117081   6.5797812  68.2035589  67.2735786   6.5632170
  67.8675795  68.5747528   5.8667600  66.9233370  62.3765564  28.8731885
  66.9809628  61.4288139  28.9944220  65.9840107  62.5561571  28.8326311
   8.1660557   9.0573615  20.6850266   8.6291379   8.2884109  20.3526092
   8.4262162   9.7664016  20.0969720   8.5428667   9.0230352  38.7760043
   8.9114702   8.1688476  38.5507798   8.7251419   9.5713097  38.0128527
  76.2970018  14.5183289  42.0675421  76.2290525  15.2968919  41.5148640
  77.2272682  14.2934406  42.0511866  21.8007588   1.7932869  15.1174831
  22.4214339   1.8352944  14.3900013  22.2205949   2.2903812  15.8195269
  61.8782711  38.3221984  58.7296772  61.1373043  38.9280939  58.7201023
  62.1081781  38.2104039  57.8072453  48.1023026  10.5733252  10.9862995
  48.6632681  10.7235122  10.2253819  47.2402954  10.8882344  10.7142591
   5.7754904  58.1622553  22.4645901   4.8682973  58.0847931  22.7599430
   6.2978333  57.9198027  23.2291865  70.1562166  41.1363411  37.9509115
  70.7148457  40.4367113  37.6122618  69.4549608  41.2170362  37.3044133
  51.0192013  39.8941994  62.8729105  51.8494129  40.3054619  63.1134176
  51.2707806  39.0573263  62.4822903  45.3748846   1.1881284  22.3256922
  45.6368971   0.2810857  22.4833441  46.1376238   1.7059690  22.5831842
  54.0583372  25.7857466  24.8710728  54.5886135  25.6274009  25.6520772
  53.2088852  25.3944612  25.0749445  58.5692024  10.9726834  29.5476556
  59.3821287  11.3421595  29.2028785  57.9162788  11.6585875  29.4081664
  15.8094931  51.1921167  25.7611465  16.7140317  50.9747744  25.9865451
  15.3476799  50.3541613  25.7892990  30.2647758   7.8843009   7.0884073
  29.6135211   7.5405830   7.6999265  29.8309493   8.6274624   6.6691965
   0.3401245  39.8438072   2.8000665   1.0198195  40.1152802   2.1831810
   0.6385097  40.1760817   3.6467016  53.7418365  33.1816077   4.2503276
  53.2438660  32.9132628   5.0224990  53.3986044  34.0483975   4.0333024
  39.0453815  66.9904947   6.7199963  39.8005223  67.5781679   6.6947699
  38.2872105  67.5747824   6.7240995  11.5498686  58.1759024  46.6685152
  10.8303142  57.7840090  47.1633816  12.3043501  57.6193762  46.8615580
  49.9257088  36.9446874  16.1261916  50.3089523  36.1457276  15.7642257
  49.0404415  36.9714737  15.7631326  75.6593323  68.2247829  10.9963691
  74.8613548  68.7133169  10.7944047  76.0570145  68.0522680  10.1429510
  65.2199841  35.1512218   3.3480698  65.2333927  35.1058459   2.3920400
  64.3648863  35.5266476   3.5580620  13.4181976  72.0441628   9.8753196
  14.3332279  71.7635536   9.8897249  13.4601855  72.9998350   9.9094647
  40.4466915   5.7187122  38.3122540  40.5055189   6.1503971  37.4599504
  41.0787916   6.1837089  38.8603926  18.0689573  25.6775975  29.3331099
  18.9432514  25.9544778  29.0589213  17.8459990  24.9629354  28.7366366
  14.7009611   3.4268436  15.4339397  14.1072130   3.6444426  16.1525118
  14.9799633   4.2748696  15.0886250  65.5710649  60.5509663   6.4154494
  66.0457611  60.5083466   5.5853415  64.6484756  60.4930973   6.1670238
  75.3475475  32.9425406  44.1063738  75.0176048  32.4039745  43.3871269
  74.6200705  33.5261250  44.3218660  78.5717154  58.2814264   6.8452781
  78.6111832  58.9426613   6.1543089  77.9295349  58.6231565   7.4674159
  28.4560728   1.7326298  61.5824223  27.6627517   1.7823319  61.0491276
  28.3886433   0.8914687  62.0342302  11.2201989  17.9032755  12.6807082
  11.7496777  18.5674167  12.2393465  11.8488538  17.2302330  12.9415488
   6.9875342  64.2298746  35.5305386   7.7339101  64.8201370  35.6342053
   6.4081675  64.6818113  34.9170876  42.1994066  12.0273352  17.9960096
  42.4204874  11.5614986  18.8024533  41.8245840  12.8563797  18.2933712
   5.6339717   8.1679976   8.2700521   5.4526019   7.4600786   7.6518387
   6.3437742   7.8320420   8.8173604  21.3884211   9.5841825  25.9410429
  20.4837203   9.8897755  26.0070825  21.5338159   9.0900564  26.7478466
   0.3000062  59.5684576  54.9234486  -0.2487761  60.0900316  55.5091381
   1.0077613  60.1602030  54.6682024  11.2449992  14.4648767  28.5338736
  11.5378332  14.7715175  29.3920398  10.5416620  15.0672078  28.2914972
  33.7689924  12.4331784  23.4007025  34.1922331  12.8928268  24.1258383
  33.6868811  11.5294635  23.7053132  69.7544098  16.7632341  35.8849454
  70.3565836  16.2432027  35.3527951  69.6297026  16.2456608  36.6804314
  22.7652144  35.9910631  19.5312703  21.8936133  35.7939124  19.1882300
  23.2491207  36.3271928  18.7768948  60.3708506  25.7910061  22.3243904
  60.9481859  26.2842917  22.9071307  60.3889799  24.8981118  22.6688385
  10.5160809  19.0883088  38.1956792  10.7152510  20.0229025  38.1400299
  11.3723850  18.6635053  38.2458448  43.8472223  35.2905607  61.4724684
  43.9434385  34.3650270  61.6968775  44.4997501  35.4402256  60.7883358
  51.2814045  40.9919930  13.4127283  51.2455177  41.1807871  12.4750173
  52.0245123  40.3963614  13.5088575  35.7721639  20.5062866  35.5178523
  35.7356596  19.9072540  34.7721601  35.2325964  20.0872731  36.1883187
  43.6607027  28.1916308  39.1410160  44.3032694  27.7554607  38.5814643
  44.0410662  29.0522718  39.3166637  58.6392927  57.4562693  29.6119738
  58.2198238  57.6198244  28.7672687  58.7517548  58.3258533  29.9959111
  69.3749237  39.5492935  14.0265357  69.3888235  40.4002619  14.4645894
  69.2458057  38.9177394  14.7341371  44.8181868  25.1117373   2.8275338
  44.6292591  25.4248929   1.9429596  44.2364788  25.6215167   3.3914232
  22.3496509  40.2579546  24.9647951  21.6639447  40.3142881  24.2993140
  23.1546068  40.1128101  24.4675946  58.1889057  58.9494419  63.8509321
  57.5480700  58.2432890  63.7678003  58.4797001  58.9029837  64.7617102
   2.8305230  20.6258368   8.2991505   2.7221614  20.3810310   7.3801506
   3.0003911  19.7982097   8.7490523  56.8323851  61.3087225  11.4545774
  57.6964426  61.7180777  11.5000081  57.0061922  60.3717804  11.5449178
  75.9035397  50.5700779  56.5508890  74.9693298  50.4189110  56.6945553
  76.1910915  51.0485697  57.3284435  65.4861069  63.5182428  31.9849682
  65.4444027  64.4711590  32.0652175  64.7998095  63.3007431  31.3541555
  21.5796804  11.6753256  37.7973509  20.9514689  11.3110971  37.1737194
  22.0361233  10.9119165  38.1510448  51.3208103  26.4028335  17.3258269
  52.2124100  26.7379808  17.4204743  51.4035749  25.4593801  17.4646688
  10.1195931   5.4826903   4.5426869   9.8317444   5.4574323   5.4552311
   9.3534124   5.2024597   4.0420175   6.1521995  59.7036123  27.0744443
   6.5212864  60.2922964  26.4160728   5.3387839  60.1284981  27.3465800
  56.4888430  57.7957344   6.9746488  57.0904589  57.6668215   7.7079093
  56.9978476  58.2885695   6.3310152  13.0376089  70.3623199  28.7960219
  12.4278474  70.5342674  28.0784869  13.8958037  70.5958843  28.4422088
  17.6122820   0.4871845  26.4010024  18.0770552   0.0535069  27.1166444
  16.6977656   0.2303008  26.5189075  78.5852718  64.4728756   2.5696385
  79.2927980  65.0603199   2.3040284  77.7898026  64.8925543   2.2420268
  73.7877131   1.8197773  23.3783746  73.0449104   1.2182149  23.3273959
  73.3890676   2.6866832  23.4544492  62.9083633  43.4650707  61.6315269
  63.2101965  43.6177063  62.5269747  62.1324205  42.9134941  61.7310715
  48.2928085  67.8797960  43.0523777  48.9651012  68.5609484  43.0354357
  47.9476261  67.9061079  43.9447832  13.7716866   5.1357287  18.7951183
  14.5664942   4.7231013  19.1331267  13.8345993   6.0469705  19.0813220
  74.3055201  61.4289570  64.7044373  74.5460653  62.3448467  64.8441315
  73.4696198  61.4690447  64.2397976  62.8982306  67.0076990  14.0297973
  62.6591349  67.3109579  13.1539559  63.7398291  67.4277639  14.2072535
  35.5647063  27.4126196  36.6221619  36.3830662  27.0848060  36.9950652
  35.7930899  27.6641631  35.7272863  50.9031487  34.3465638  15.4808712
  51.1805677  33.5945749  14.9576259  50.4339647  33.9628506  16.2217224
  72.9849768  51.1318159  56.1266136  73.1062603  50.2338886  55.8179855
  72.0396900  51.2752056  56.0808039  78.6736631  63.1501913  39.9232101
  78.6211777  63.5720634  40.7808256  77.8234100  62.7245045  39.8132515
   4.8435405  71.6299343   7.7509886   5.7071960  71.2816954   7.9724866
   4.4773895  70.9911489   7.1393323   3.7308601  64.9220133  39.4603467
   3.2640028  64.4725657  38.7558794   4.5230848  64.4014025  39.5929170
  38.6875248  56.2556458  20.7249165  39.4183588  56.7632151  21.0777450
  38.1807089  55.9983349  21.4950848  33.4421682  10.9537852  10.1538503
  33.7686563  10.0622082  10.2752125  32.5561094  10.8396757   9.8101789
  19.0655518  44.6684742  13.3808029  18.4977984  45.4361153  13.4487498
  18.4645569  43.9236927  13.3991528  18.9670897  26.3025570  32.1328640
  18.5563886  26.4577651  31.2822938  18.5248601  26.9092631  32.7266431
  58.4789753  32.3994827  62.5650740  58.2666349  33.3224225  62.7040911
  59.1169310  32.1948814  63.2487249  22.9059386   1.0102485  48.4175920
  22.3820782   1.5053454  49.0474176  22.2900963   0.3881004  48.0304193
  42.1984816  34.8070407   6.7532754  42.3237276  35.0293803   5.8307195
  42.4557257  33.8871241   6.8150008  25.5470753  23.0811739  39.4284105
  25.8497953  23.2869577  38.5439634  26.2516546  23.3865762  39.9998379
  29.8804665  56.4537716  13.6285639  30.6122112  56.8194962  13.1315494
  30.1686835  55.5722904  13.8655424  72.3028660  37.2940063  64.3886948
  71.6932726  37.9499650  64.7268486  71.8616629  36.4577103  64.5376301
  35.6369257  20.6394315  13.9837432  35.2765465  20.8279490  14.8502421
  35.2567291  21.3091922  13.4153211  69.4724274  54.2059755  19.3384528
  69.9539328  53.3936739  19.4951403  69.9812269  54.6602774  18.6669171
  36.3246179  24.4780302  17.0324898  35.9436965  23.6018586  17.0912349
  35.7053900  24.9729323  16.4959621  49.0924025  15.4844761  37.7256131
  48.7027168  16.1597776  37.1703219  48.3649015  14.8997450  37.9379058
  37.0444703   7.6981884  13.7174058  37.9163718   7.3103470  13.7922323
  36.5669727   7.3621905  14.4759130  18.2157838   5.8190632   3.8701832
  19.1436648   6.0487437   3.8200349  18.1254315   5.0600910   3.2939637
  18.6753094  73.5058451  16.6532409  18.1495333  72.7070045  16.6938412
  19.5780694  73.1951666  16.5844345  37.4091315  20.6382489  54.2432785
  37.4632502  21.4560437  53.7487888  36.9593191  20.8776355  55.0535822
  33.5803485  18.9716601  34.2859864  33.2546854  18.7584662  35.1604724
  33.5053968  18.1526589  33.7962413  43.1261873  13.5953557   7.1810150
  43.2227898  13.4882855   6.2347406  42.6578188  12.8101158   7.4643254
  36.2499261  23.7483311  20.2230787  36.3802528  22.8330183  20.4709649
  36.5868807  23.8046241  19.3289161  11.8639243  24.3282676  37.9995155
  12.4129045  24.7055125  38.6869287  11.8846154  24.9752808  37.2944069
  73.4474325  50.5984592  17.1013963  72.9514503  51.0145330  16.3963330
  74.1130304  51.2439346  17.3392522  75.8748817  60.8714342  21.0086632
  76.3912535  60.7536840  21.8059897  75.7626295  59.9858952  20.6630468
  63.1243944   8.7265497  46.0136032  62.2154045   8.9250499  45.7887363
  63.1298113   7.7837670  46.1790180  16.5777838  70.6384659  24.1925526
  15.6412482  70.4508495  24.1298413  17.0028174  69.8017836  24.0040326
  54.4312429  25.0165606  41.8003941  53.9717913  25.3703570  41.0388374
  53.8124895  25.1209354  42.5232220  39.4669843  20.9098887  43.8903522
  40.2395105  21.4727712  43.9413309  39.8111463  20.0531030  43.6379576
  10.7958269  41.4479065  15.1093602  11.3694263  40.7220745  15.3550935
  10.2641475  41.1010551  14.3929493   2.4148874  50.9224224   2.8354630
   2.9660350  51.4731503   3.3914915   1.7839840  50.5289268   3.4382525
  54.4488716  66.4330387  27.5319695  54.2458916  67.1478081  26.9285345
  53.6775780  65.8670235  27.5008893  11.4537454  73.5120678   7.7150780
  11.8973243  73.8326073   6.9297588  10.9565127  72.7509832   7.4155116
  16.2195623   4.9173719  45.8903599  16.8979967   4.2650241  45.7159948
  15.8158183   4.6300340  46.7092943  30.0710249  39.3557572   9.4320130
  30.9787345  39.6595168   9.4368339  29.6747947  39.7969699   8.6806375
  29.1558242  74.9331951  36.0655499  28.2703876  74.5744610  36.0060334
  29.5098734  74.8452282  35.1805973  17.8726900  41.2126684  19.1033065
  16.9895732  41.5699530  19.0101123  18.3824086  41.6535902  18.4235954
  55.7937574  19.7314656  37.3348308  55.4814196  20.0374436  38.1863332
  55.1794004  19.0399170  37.0887399  51.9776440  18.5285616  21.4900446
  51.1482859  18.0662096  21.3691092  51.8229198  19.1065347  22.2371984
  53.1140900  20.3686047  28.5799646  54.0171194  20.0721455  28.4664798
  53.1871700  21.1607838  29.1122627  51.3903046  67.2485638   6.6132915
  51.7817211  67.8808928   6.0106462  51.9723368  66.4895964   6.5753889
  79.1312800  43.9885426  39.6066880  79.4441387  44.7173691  40.1425648
  78.9394867  44.3821526  38.7555003  47.6899147   1.7773281   4.2372614
  46.8744183   1.7910673   4.7382715  48.2680511   1.2004921   4.7365135
  65.2981043  71.7201662  48.8352633  65.2195311  70.9823084  49.4399357
  64.6295261  71.5568876  48.1699944  38.6617994  27.6594090  42.1014309
  38.8868332  28.5870123  42.1731567  39.5062518  27.2097015  42.0715714
  18.0122936  13.9209497  60.0285769  18.1778014  13.7975931  59.0938997
  17.4741387  13.1695879  60.2777290  70.0404549  39.0469527  25.7199168
  69.4590044  38.3340883  25.4554009  69.9198103  39.7167301  25.0468087
  52.3845387   6.7091823   2.4915604  51.7844915   6.2542510   1.9006166
  52.0389986   7.6002729   2.5443843  44.8600864   8.6817712  31.3475370
  44.8070812   7.8729790  30.8383441  44.2592049   8.5436487  32.0797205
  13.2117927  13.3125699   8.6750811  12.4572086  13.0318737   8.1573516
  12.8793502  13.3709157   9.5707983  59.8010397   2.4708517  64.9298048
  59.5955420   3.4031630  64.9990702  58.9538479   2.0323533  65.0086117
  39.9515653  30.5810356  43.2424164  40.4580116  31.1124182  42.6281071
  39.3692446  31.2052178  43.6754656   9.8969549  14.4561815  17.8572357
  10.6752610  14.6019566  17.3194432   9.4210291  13.7590873  17.4058080
  54.0691471  17.8800201  36.2327838  53.5007000  17.1159577  36.3292623
  53.6911154  18.3690369  35.5019045  26.2839246   9.5794237   4.5984560
  26.1699820  10.5277443   4.5357159  26.3590455   9.4088101   5.5373275
  42.4469662  10.5459762  20.2328825  42.6745653   9.6950394  20.6075001
  41.5592575  10.7165575  20.5476999  62.2100258  11.5352881  12.3754311
  62.0558548  12.3503125  12.8531325  61.8731356  10.8511698  12.9539800
  58.0017710  67.2923708  62.0031404  57.7778864  68.0963707  61.5344238
  58.8978386  67.0969677  61.7290783  51.0123444  44.8191404  62.9279280
  50.5875969  44.0306711  63.2657814  50.5381107  45.5416727  63.3393669
   3.0778113  48.9010811  39.1010904   3.7613863  48.5967731  39.6980429
   2.6735365  48.0987072  38.7709498  52.9299164  25.1370478  10.4077840
  53.4433126  25.9413838  10.4832554  52.3967409  25.2659416   9.6233475
  38.8742614  24.3765974  21.5659904  38.8006520  24.3889666  20.6117034
  38.7894177  25.2942657  21.8246722   7.2770667  24.8898888  15.2548671
   7.6707429  24.0414071  15.0515664   7.2130030  25.3330731  14.4088674
  21.7694187   3.8900593  49.5264435  22.1543074   4.7612691  49.4311237
  21.0913324   3.8526741  48.8518810  15.0734162  34.8467970  36.9610763
  14.7039771  35.3355265  36.2256241  15.9873354  34.7008872  36.7167521
  36.9031405  10.6603265  13.8636518  36.9002819   9.7210109  13.6795032
  36.6156816  11.0656607  13.0455422  68.7165689  46.3241434  33.7482119
  68.6542082  47.2579575  33.9490461  67.8803778  46.1119890  33.3334756
  10.3866410  42.3782778  27.5579381  10.1783395  41.5924644  27.0526290
  11.3285089  42.3177624  27.7174830  22.1134377   6.2266928   8.0710685
  21.8266797   7.1166164   8.2760984  22.9734778   6.3394618   7.6662886
  42.2773218  24.0574741  36.7197442  41.8301392  23.4449172  36.1357617
  41.6320515  24.2558551  37.3983502   5.5963951  73.6292648  45.3810310
   5.2615964  74.0588713  44.5938969   5.0702357  72.8337479  45.4619026
  46.4390421  18.6022449  11.9767749  46.4394617  19.4067383  12.4954486
  46.0907030  18.8664448  11.1252522  19.3135476  16.4511454  39.7409248
  19.7079933  15.8792961  40.3994370  19.5586145  16.0570514  38.9037490
  40.4687977   3.1177375  19.4452739  40.9689617   3.4967780  18.7225044
  40.1384211   2.2887361  19.0990949  47.2035170   5.0641924   8.3300251
  47.6854420   4.6564499   7.6104939  47.8134918   5.0460589   9.0674746
  76.0007191  40.7846642  12.6740146  75.6069946  40.8776236  13.5415208
  76.9436502  40.7771826  12.8385007  34.0442395  12.3452091  45.1982784
  33.1120491  12.5433362  45.2877331  34.2962337  11.9890261  46.0502577
  79.0798998  63.7742043   8.1738728  78.7614250  63.9263487   7.2841215
  80.0117970  63.5843086   8.0655086   5.9923732  74.2032623  42.2607899
   5.2627468  74.6003389  42.7364063   6.7739034  74.5950460  42.6505995
   1.6542619  53.3799934  61.6855001   1.8050435  54.1976404  61.2112093
   1.2776756  53.6541176  62.5217247  68.6382103  61.8145752  58.8426733
  68.1822920  61.6225433  59.6621227  69.3959141  62.3364687  59.1067696
  38.9878750  31.6192460  30.4364038  39.7608948  31.0573959  30.4911590
  39.3217325  32.4548054  30.1098847  61.6948032  60.5801439  27.7875090
  62.2570133  60.7596493  27.0338988  61.3739729  61.4406586  28.0573463
  77.1730280  52.2429562   6.7233270  76.7162180  53.0543232   6.9452375
  76.8797255  51.6147566   7.3833048  49.9990940  22.3305488  61.7667055
  49.5393801  21.7650819  62.3873091  50.9198713  22.0844007  61.8550825
  54.9115658   4.8773783  50.1946735  54.3183804   5.6080616  50.3692102
  54.3429995   4.1076994  50.1709890  61.6378880  61.5639544  45.9534836
  61.4042950  61.3555241  46.8580389  61.2994814  60.8282661  45.4431200
  33.7523317  15.1575279   4.7952834  34.2345691  15.1554585   5.6221288
  33.8805723  16.0392225   4.4454241  65.7794094  49.8554993  58.4739351
  65.2495384  49.0690947  58.6044264  65.3106546  50.5416918  58.9489508
  12.1751523  44.3757105  63.7043095  12.9763341  44.1594648  64.1813612
  11.7886531  43.5271072  63.4881639  12.4155152  64.3318605  61.4680004
  11.9640160  65.0640392  61.0481310  12.0283282  63.5519695  61.0703897
  14.4078934  22.6108694   1.3420357  14.4265473  23.2684302   2.0373753
  14.6830559  23.0844927   0.5570524  47.4529028  36.9806576   5.3240168
  47.4580383  36.9998384   4.3670225  48.1695318  37.5617146   5.5790699
  33.4556150  33.1357884  30.3219223  34.1356039  33.5597086  30.8455062
  33.9002228  32.8799558  29.5137715  35.8883381   5.3129160   4.9891415
  35.0071692   4.9662849   4.8490691  36.2738466   5.3480715   4.1137111
  75.1700687  75.2219296  35.7583046  75.1551056  74.2648506  35.7568455
  76.0763407  75.4469776  35.9686804  46.6192913  17.2617328   0.5064347
  47.0958090  16.5280497   0.8948517  45.7069969  16.9725037   0.4890879
  34.4060969  38.3449531   3.2878962  34.9219728  37.5422597   3.2118356
  34.5387006  38.6301231   4.1919571  49.1628647  60.5954123   3.2262883
  49.3253469  60.5541229   4.1686925  48.2144928  60.7011366   3.1511599
  17.5110757  14.9295318   8.3411950  16.5906787  14.8484659   8.0911356
  17.6151025  15.8515835   8.5762101  60.7457876  31.8813157  13.5038447
  60.9208488  32.4718142  12.7711129  60.3356504  32.4370193  14.1665757
  54.9875593  63.5391855  46.4924765  55.1897240  64.3887234  46.8844509
  54.7973585  62.9703808  47.2384739  63.4501314  25.7984853  44.7182894
  63.3751488  26.6037393  44.2062616  62.8446484  25.1890087  44.2961979
  71.0655975  61.9688940  56.8711710  71.1737251  62.4960709  56.0795784
  70.5527115  61.2123442  56.5868950  79.1001892  26.4892507  38.3772302
  78.4007263  27.1380663  38.4548020  79.1848612  26.1219835  39.2571044
  38.6533380  11.4107931  15.8980131  39.3244576  10.8303595  15.5389512
  37.8626561  11.1983180  15.4021227  22.1530342  30.0884390  21.9078541
  21.9982195  30.9752703  22.2331119  21.9848514  30.1455331  20.9672761
  21.3317013  16.2880445  14.2488885  22.1919799  15.9054565  14.0763175
  21.3745165  17.1603072  13.8570261  28.7276363   9.2737335  26.7427254
  28.3718109   9.7318864  27.5041175  28.2138610   8.4680766  26.6863012
  54.4970322  18.7802303  56.8054628  53.7192202  18.3344698  57.1409321
  54.2221355  19.6903026  56.6939688  21.7271781  33.6333776  61.6019297
  21.4788747  34.4634938  61.1951351  20.9090161  33.1396532  61.6574001
  70.9706354  48.4367800  52.9736185  70.5878353  48.6335421  52.1186447
  71.4000988  47.5896597  52.8545284  43.0675364  31.6063094   3.5964411
  43.8553143  31.2983370   4.0445381  43.3964682  32.0861149   2.8362948
  78.0257082  40.8834934  60.2068615  78.4042072  41.7625618  60.2212286
  77.4494457  40.8833075  59.4425631  69.7740030  58.1784391  12.5335884
  69.6574688  59.0706491  12.8601122  68.8884974  57.8160429  12.5056624
  28.9794970  14.4592929  22.9452276  29.5754504  15.0470626  22.4809003
  28.7972093  13.7590456  22.3186040  40.3355360  48.9921665  16.6299343
  41.2223387  48.9071989  16.9800675  40.3455639  48.4753132  15.8243334
  23.4236956   6.9865423   2.2062725  24.0485191   6.9773740   2.9313540
  23.4090519   7.8979850   1.9142291  61.4632702   7.2001880   1.8441816
  61.1120367   7.9054070   1.3005517  61.6080332   7.6060677   2.6988965
  38.5981989   4.3539003  20.9013844  39.0937042   4.0012988  20.1622081
  38.9103985   5.2542746  20.9913278  71.7391968  22.8154540   7.1661967
  71.1024714  23.4436703   6.8253767  72.3927116  23.3545828   7.6117164
   6.0735738  54.9305439  57.2712421   5.6996179  55.7975101  57.1138811
   5.3140891  54.3557215  57.3660707   8.5446990  22.8986573  63.5076475
   9.4569784  22.8154373  63.2300663   8.5967588  23.2095814  64.4114447
  77.9403210  43.9359140   6.3081676  78.0747604  44.5262671   5.5667925
  78.7832022  43.9251471   6.7616761  50.2295542  41.3927746   5.8563745
  50.3910017  42.3305988   5.7531577  49.3800974  41.3427925   6.2947232
   6.0515261   4.8715809  19.0970290   5.8473635   5.7035774  19.5240307
   6.6825581   4.4510818  19.6811616  73.7783909  73.1442595   6.7244792
  74.6386290  73.5617542   6.6807204  73.2587290  73.5961962   6.0596931
  68.6766291  65.1849365  61.8479919  69.3667936  65.5593252  62.3954773
  69.0789509  65.0940561  60.9842157  36.4018464  58.8071871  63.7552261
  36.4888835  59.7451115  63.5850573  35.5307150  58.7135315  64.1407013
  30.8729243   2.1864405  52.1136427  30.6974912   2.6394257  52.9384232
  31.2693548   2.8537557  51.5534973  78.6846828  70.6170845   3.8613966
  77.8074789  70.8597183   4.1578200  79.1260195  71.4528465   3.7099066
  75.3742456  45.0862312  31.3284326  76.0317898  44.4936180  30.9641862
  75.8532810  45.6097889  31.9708037  61.7804527  48.6450148  32.4722314
  61.0359716  48.2296371  32.0369864  62.0416880  48.0200624  33.1485605
  45.4548025  24.4553876  16.3714314  44.5646143  24.1130805  16.4528286
  46.0169601  23.6873126  16.4727604  60.9613466  20.3309369  23.6206913
  61.1683321  21.2641239  23.6712122  60.6092167  20.2111149  22.7387166
  19.4454515   4.7484633  40.2012253  20.0985479   4.8461783  40.8941507
  19.8172808   4.0916398  39.6125317  55.3752947  52.0094109  63.4626245
  55.5292845  52.4699926  64.2874765  54.5697021  52.3958874  63.1192732
   2.3489475  63.3586407  37.8123188   2.3743145  63.1043053  36.8898749
   1.4166412  63.3874369  38.0272770  25.3086066  11.2483501  62.2907209
  25.0547099  11.9737554  61.7201471  25.8425665  10.6814432  61.7341805
  68.6884165  50.3674746  53.6144924  68.3599758  50.7568312  52.8040886
  68.7249470  49.4286346  53.4315205  33.8816428   8.3052838  10.0432813
  34.0913033   8.1362957   9.1247404  34.5435047   7.8177255  10.5336440
  49.1249943  13.1910789  24.6523881  48.2137012  12.9939067  24.4358277
  49.1025162  13.4441066  25.5752659  26.4303899  32.3428988  16.4914966
  26.8429494  31.4955854  16.3239110  26.9748259  32.7446485  17.1685624
  23.2267857  36.3876224   1.9313182  23.4281898  37.3045921   1.7446651
  22.2705889  36.3530970   1.9582060  18.5760713  16.5059102  48.2310867
  19.0497673  16.1522186  48.9839125  17.7226305  16.7594206  48.5826588
  51.4813757  15.1252484   2.2816764  51.0634136  14.4659078   2.8355774
  52.4195528  14.9695110   2.3903255  32.2177792  11.0722303   1.4762241
  32.6461673  10.8458126   0.6507233  31.4357686  11.5583801   1.2147883
  23.9029694  21.6371536   5.2791750  23.2055116  21.2142134   4.7782713
  23.4804630  22.3931551   5.6868315  76.4800787   7.9713863  51.4108181
  77.3984909   8.2154852  51.5255356  76.4107418   7.7267313  50.4880142
  68.5491610  32.6281381  17.2736740  68.2781076  33.3016682  17.8974700
  68.7316084  33.1089067  16.4663291  44.6756935  23.7670827  24.1047406
  44.5405722  24.5191097  24.6813059  43.8878536  23.2350469  24.2164183
  50.0653238  22.5524716   0.1391790  49.7395486  21.6524319   0.1450679
  49.2899007  23.0867390  -0.0325921  45.2968979   4.0067768  23.6026406
  44.4030190   3.6679345  23.5536647  45.4312992   4.4499156  22.7649093
  32.2350383  74.1263485  11.4801013  32.2045040  74.4563198  10.5820930
  31.5440989  74.6073151  11.9356251  72.7795553  32.6165104   4.5181760
  72.0837498  33.2707429   4.5819664  73.4787941  32.9552436   5.0772423
  58.8538027  24.7863626  18.2864296  59.1167688  24.0455389  18.8325620
  58.9269686  25.5468822  18.8630497  33.7275219  20.0095320  46.6516304
  33.8047242  19.1343534  46.2717199  34.5969224  20.1938486  47.0071650
  33.6578155  36.6818881  26.1517048  32.9972029  36.6742659  26.8443561
  34.4937706  36.6745734  26.6179228  56.2258959  68.1057167  29.9461460
  55.5390263  67.6511192  30.4337740  55.9854412  67.9876232  29.0271950
  58.2655144  38.3696008  11.3635063  58.7824869  38.2394075  12.1585035
  58.0250216  39.2958856  11.3832080  19.5595169  12.6257837  50.2766180
  19.3026328  12.5942218  51.1981630  18.8156521  12.2478151  49.8075390
  51.3340187  67.0215607  58.2853127  50.4723787  66.7064428  58.0123425
  51.2954044  67.9688549  58.1535244   5.4750115  15.6000495  64.2337656
   5.3098458  16.5222359  64.4300413   6.3723958  15.4489875  64.5306063
  22.7927732  17.0281112  42.2902679  23.5244584  16.4125800  42.3348808
  22.1460176  16.6760910  42.9018402  44.2979670   6.0449106  17.0482254
  43.4539843   6.3484418  16.7138696  44.9301767   6.6828674  16.7172313
  72.5376177  18.2933533  19.4677711  72.7029562  19.0898621  18.9633238
  72.7536774  17.5801826  18.8669896  54.2921495  72.7753067  64.4483376
  54.9223661  73.1491184  63.8324499  53.4765434  73.2435989  64.2702293
  26.4451170  74.9437571  12.3642886  26.2765908  74.1012526  11.9423711
  27.3960757  75.0454712  12.3247170  19.0692389  38.7759781  14.8627853
  18.9783359  39.7284532  14.8903406  19.7248602  38.5785007  15.5316615
  74.5717144   6.4586902  24.4961905  73.7056923   6.7152393  24.8130870
  74.4253540   5.6264722  24.0464973  47.4584519  74.9188023  40.7033443
  46.8460977  75.5979494  40.4204798  47.2469127  74.1625396  40.1560354
   4.6172822  64.3263483  27.9282498   4.2381412  64.9587202  27.3178530
   5.5518168  64.5332003  27.9376698  33.4082770  14.1100144  54.0015984
  32.8436017  14.6867120  54.5161772  33.8923144  14.7010386  53.4248590
  45.3734684   9.0639096  50.5929184  44.6739864   9.3955618  50.0299215
  45.4952669   9.7476715  51.2516022  31.6673923  25.1847029   9.2007190
  30.7694101  25.4280114   8.9756352  32.1958470  25.9308982   8.9175904
  26.2226319  22.3713279   3.2544312  25.6417823  22.3797083   4.0152046
  25.8072281  22.9654479   2.6293755  45.8522558  22.9367232  27.4145627
  45.8693600  23.0316615  26.4622355  45.1651335  23.5375357  27.7028561
  39.4143844  60.2910662  18.0538952  38.6985564  60.8587646  18.3394551
  39.9778318  60.8609772  17.5304806  63.1454468  42.7793121  58.0180216
  63.3489609  42.2741222  58.8051653  62.2561264  42.5124121  57.7854013
  21.7414165   3.6064562  19.6636248  22.4256325   3.9906180  20.2118063
  22.1024370   3.6311850  18.7774622  50.3571510  24.5027328  27.9512882
  50.4300833  25.3860497  28.3127666  49.8494053  24.0186214  28.6024880
  53.8872099  57.2033834   5.7961762  54.2389297  56.3792467   6.1328083
  54.5749617  57.8460598   5.9699470  12.8856492  31.7671728   9.6980315
  12.9053330  31.2339759  10.4927289  12.2288609  32.4400306   9.8772615
   8.3965492  73.2566690  56.5267611   8.8094610  73.7294102  57.2494316
   8.2109660  73.9316988  55.8739805  46.9543409  41.1004686  14.3094218
  47.6199436  40.4992199  14.6436441  47.3916388  41.5716362  13.6001980
  39.3121934  39.0996385   4.5805398  39.1746688  38.1861615   4.8312965
  38.7482953  39.2260408   3.8174713  49.4766951  27.1796584   5.3186768
  48.6255836  26.8037939   5.5435503  49.8294926  27.4897313   6.1527157
  68.6679125  64.0404510  36.1514068  68.3135605  64.3047094  35.3023887
  69.5944595  63.8702726  35.9817576  55.8177233  10.4319465  27.2850823
  56.2302113  11.2197757  26.9309497  55.3638887  10.0425828  26.5376472
  55.7293177  19.9372661  40.1186943  54.7972298  19.7370529  40.2044821
  56.1514521  19.4066119  40.7943010   5.4549241  44.4246817  42.6592875
   6.2079114  44.9820709  42.8556538   5.7668293  43.8333464  41.9742584
  68.7741184  35.8455658  12.8791964  68.9229155  36.5066504  12.2031355
  69.3136978  35.1021409  12.6101077  61.4299536  70.6727362  40.9757090
  61.8042707  71.5512133  41.0419798  60.7351208  70.7570791  40.3227758
  55.7188559  37.7472639  11.5954471  55.7291746  37.4047446  12.4892068
  56.6429710  37.8362393  11.3623631  33.8092041  18.8774717  40.1615763
  34.2657638  19.1979051  40.9394646  33.6200762  17.9595041  40.3559923
  63.3315611  13.9364696  21.9583035  63.6450529  13.4453940  22.7177787
  63.1289434  14.8063445  22.3025322  59.6118689   4.2460799   9.0037215
  60.3045893   4.8938605   9.1331542  60.0161648   3.4120464   9.2428136
  74.8195601  30.9155941  19.1745818  75.7002449  31.2806940  19.0890002
  74.3599939  31.2120628  18.3890009  59.9605751  60.5260992  56.5957308
  59.7876549  59.7114992  57.0676994  59.1986799  61.0756683  56.7793655
  52.2150564  63.8127947  61.1258268  52.2925234  64.6325541  61.6139174
  52.8326559  63.9065886  60.4005671  17.8109920  62.2227621   9.3847698
  18.7314236  61.9600153   9.3867815  17.7946579  63.0418873   9.8797417
  69.9141836  21.6604495  30.7398367  69.5300102  21.3173676  29.9330306
  69.8068285  20.9532118  31.3758564  44.5333910  35.5417681   2.1827163
  45.4338646  35.3618646   1.9125104  44.0034246  35.3080702   1.4206445
  66.6265059  17.4375236   8.8970542  67.2533512  17.7286327   9.5592862
  67.0365620  17.6651883   8.0626357  28.8604856  12.9074407   2.7290851
  29.7668743  12.8503072   2.4267201  28.6246181  12.0065629   2.9504892
  60.8886766  14.3350267  14.3588805  59.9424171  14.4743407  14.3212450
  61.2644625  15.2044356  14.2205071  47.4365711  22.2792268  46.5619802
  48.2753420  22.3623347  46.1083460  46.8157578  22.7497053  46.0056782
   0.1994928  13.1853640  32.1417689   0.1310646  13.6944568  31.3340735
   0.0498059  13.8227427  32.8400350  14.7063661   3.2671326  40.1463509
  14.0747285   2.5646630  40.3006315  15.5098522   2.8146484  39.8896456
  12.9621482   6.3356358  29.4915819  13.5176635   6.6528410  30.2036309
  13.4390330   6.5669417  28.6945176  63.9847946  17.8552258  56.4170551
  64.4965982  17.1151519  56.0905886  64.4026041  18.6246204  56.0301447
  24.3376708  24.2034864   2.7752945  23.4030938  24.4102502   2.7682549
  24.7267413  24.8325992   2.1677805  15.3481078   3.2307458  27.7971792
  15.5131042   4.1678756  27.6932788  15.1690483   2.9192638  26.9099641
  67.8484201  27.6269889  26.5087104  67.7058363  26.7119980  26.2664461
  68.5873318  27.9056287  25.9677815  56.5895367  21.6018105  27.2265935
  55.8881378  22.0934963  26.7993784  56.1441755  21.0806775  27.8946543
  63.8218498  12.6700413   5.8738768  62.9567051  12.8740573   5.5187184
  64.0425968  13.4270430   6.4165097  71.6931248  46.4307117  57.7875328
  71.2487125  47.0403957  57.1984529  71.9729900  45.7115316  57.2212410
  19.4636393  20.7152128  49.9900341  19.2895174  20.3576565  49.1193628
  20.3148484  21.1450005  49.9066210  10.9408164  21.6309023  45.1069736
  11.1769950  22.0717025  44.2907953  10.3164732  22.2226596  45.5267954
  61.6956615  63.3406353  54.0004253  61.7405558  63.9290524  53.2467794
  62.6101398  63.1622458  54.2198229  13.1206357  53.6886978   7.5295955
  12.6789618  53.9062548   6.7087281  13.6090183  54.4802141   7.7558911
  49.3138409  19.3609548  20.5651641  49.2044353  20.2632260  20.8654475
  49.5257044  19.4420409  19.6352339  13.8799167  48.0075312  60.2563334
  14.3100047  48.7093163  59.7677088  13.5087979  47.4386835  59.5818615
  47.8443289  26.6440940  24.3626189  47.5911760  25.8465719  24.8274875
  48.3135986  27.1632600  25.0156713  74.1026831  22.9843950  58.8285637
  74.1038847  22.7257204  59.7501469  75.0272894  22.9932404  58.5810757
  42.9724264  21.0935569  12.0261633  43.8831186  20.9513664  12.2843421
  42.7598858  21.9625974  12.3664999  13.2280016  20.1269722   9.6297735
  12.8533232  19.4120038  10.1442313  14.1529739  19.8978674   9.5393932
  58.3913708  33.6416411  11.1750293  58.5420704  33.1096172  10.3937018
  59.0957737  33.3930612  11.7735767  47.5295591  61.2252712  55.9759474
  46.6223860  61.5172482  55.8864021  47.7497244  61.4044619  56.8900871
  56.5992165  46.8397665  13.6413014  55.8950329  46.8148041  12.9934359
  56.2973213  46.2659216  14.3454278  55.6401157  44.4516087  15.8402789
  55.1940536  43.7131166  15.4256892  54.9364281  45.0591755  16.0681355
  47.9775333  41.9852257   8.0159354  47.9431725  41.0359573   7.8978747
  47.7627802  42.1197128   8.9389884  41.2522888  52.5043583  14.1374207
  40.8236980  52.8539610  14.9186504  41.3416243  53.2589293  13.5552943
  63.5395718  31.3779140  15.8264399  63.5215139  30.5864716  15.2883625
  64.2363119  31.2187791  16.4631963  51.0564184  63.4500217   8.5122490
  50.2725935  62.9399014   8.3082134  51.6788387  63.2188416   7.8227729
  32.6867914  69.9821043  53.3061647  32.9360032  69.1045284  53.0163622
  31.8232465  69.8671436  53.7027884   3.5115191  47.1515751  55.1746750
   3.7128365  48.0719233  55.3439713   3.0349851  46.8634939  55.9532356
  48.5908937  72.7260590   1.5751900  47.8996563  72.0725155   1.6815077
  49.1757441  72.3511553   0.9166865  13.4769869  16.1652112  11.0880804
  13.8391876  16.9796610  11.4369547  13.2622790  16.3691151  10.1778305
  31.5585303  47.5096416  14.9809921  31.3918614  47.5931549  14.0421212
  30.8686399  46.9254827  15.2956915  76.1321497   5.7588685  59.1969824
  75.6325245   6.5744269  59.1586161  76.0352278   5.4609376  60.1014614
  60.1785517   4.8741296  53.3648062  59.3467569   4.7705159  52.9026175
  59.9371767   5.2518600  54.2105532  28.4265804  47.7558851   8.1515574
  29.3242455  48.0100441   7.9374748  27.9182839  47.9967260   7.3770499
  66.5553522  49.0997267   1.4609551  67.1994162  48.7497616   0.8453770
  66.6602850  48.5644150   2.2475070  11.3161516  48.0479765  20.3025150
  11.7113054  48.9143610  20.2052474  10.8147228  47.9216242  19.4970119
   2.9724202  50.5430651  12.2570169   3.4975430  49.8603201  12.6745510
   3.0987635  50.4022074  11.3187051  30.5372286  22.5058866  64.6298218
  30.9890556  22.1543717  63.8626671  29.6079206  22.3755598  64.4410515
  32.6271605   9.8268461  63.0912256  32.4304605   9.5244366  62.2046089
  32.8602290   9.0311307  63.5694981  52.1124840  26.3117027   5.1159364
  52.4717236  27.0885897   4.6874219  51.1685038  26.4679480   5.1428425
   8.6868536  37.8791738   5.6019044   8.2201099  37.1001530   5.2994001
   8.6208248  37.8424931   6.5561199  36.0475183  35.0699019   4.9886620
  35.8606482  34.8967552   4.0659851  35.2456927  35.4707026   5.3243172
  58.5316420  60.1287031  20.0988889  58.2105970  59.4711685  20.7159901
  57.9492569  60.8781433  20.2229333  59.3434620  55.5206776  11.0573137
  59.7374487  55.5227470  11.9296670  59.3845558  54.6060228  10.7781160
  28.5829496  51.5090942   1.6464345  28.4438586  52.1385384   2.3540278
  27.8552437  51.6617155   1.0436237  47.0859814  14.8562694  46.3457632
  46.7084980  15.7213342  46.1863899  47.7788734  14.7729087  45.6906414
  51.1009455   0.8815501  57.7716494  51.7489767   1.5668006  57.6081991
  51.0267925   0.4181237  56.9373989  62.2201824  69.6021938  62.0520067
  61.6885662  68.8768435  62.3798513  62.6840639  69.9270725  62.8236914
  10.2218699   9.4239986  61.3686466  10.3900945   8.5606843  60.9909964
   9.2805177   9.5555699  61.2556171  37.4991345  53.1617689  21.1765313
  37.7027130  52.2676849  20.9019446  37.9002547  53.7153006  20.5065036
  68.1982279  70.5250025  23.6485553  68.3162546  70.9309053  24.5073581
  68.5058212  71.1850882  23.0273438  29.5187497  26.6030884  41.0513258
  28.8047862  26.1493707  41.4992428  30.2548122  26.5521145  41.6611195
  63.9822435  65.0324202  53.7762499  64.3093252  64.2125607  54.1464853
  64.7564363  65.4509306  53.3998203  18.8149643   0.4441073   7.5179768
  18.0663741   0.0870819   7.0400888  18.5996890   0.3034813   8.4399927
  29.6513271  12.3554122  56.2105083  29.0177464  11.8704426  55.6817245
  30.2943444  11.6981184  56.4764500  23.3907366  64.6983910  58.7938786
  22.8890562  63.9116907  59.0075350  23.8491750  64.9177599  59.6050167
  53.7125349  39.4936061  14.0122271  53.6214542  38.5966706  14.3338537
  54.6184397  39.5481014  13.7079227  43.1424093  42.0295429  11.1177266
  43.1233358  42.9258871  10.7824147  42.2224665  41.7674685  11.1532104
  25.1044106  13.9646971   7.1383929  25.1442051  14.8616421   6.8065244
  24.7511864  14.0523326   8.0237091  68.3782005  31.0674214  19.6884263
  69.0624380  31.4798117  20.2156711  68.5469675  31.3715887  18.7966692
   9.6418422  46.1056280  16.1657703   9.5825398  45.2441835  15.7526958
   8.7527263  46.4567041  16.1162734  21.3225579  69.4193745  54.9507189
  20.6329679  69.0934324  55.5290461  21.7721629  68.6311340  54.6461535
  78.3222961  20.6182885   2.2247477  77.8618240  19.8603678   1.8645373
  78.2328844  20.5243707   3.1731236  53.6238194  33.6780000   8.9586794
  53.1505251  33.0129027   9.4585502  54.3209457  33.9685798   9.5467323
   4.0247986  66.2974072  54.8843575   3.7787804  65.5209827  54.3814993
   3.8135743  67.0324326  54.3087196  66.3821125  75.0049829  63.2081366
  65.6855392  74.5913839  63.7179899  67.0698881  75.1894760  63.8477945
  36.1987114  72.3030567   7.2625160  37.1238303  72.2665834   7.0195025
  35.9978056  73.2381582   7.3007464   2.6489878  22.0480466  52.2242546
   2.6617423  21.2374139  51.7153883   3.5559016  22.3538971  52.2102928
  31.3472676  41.0846567   6.5885937  31.7307711  40.3078508   6.1814994
  31.5856433  41.8039560   6.0037690  12.6966155  58.0601740  12.1404290
  13.5178947  57.7085161  11.7968190  12.0242620  57.7169180  11.5519142
   5.4146457  34.7875118  48.8763666   6.2428367  34.6345258  48.4214783
   5.3616750  35.7392335  48.9638424  57.6199293  54.5380354   5.2254105
  56.8996525  54.9316454   5.7178545  57.4223566  53.6014652   5.2194715
  28.5752153   6.3718027  44.2835712  28.1145835   5.7005346  43.7801361
  29.2469692   6.7004567  43.6861086  73.9572287   5.9619033  54.9221563
  73.5433435   6.6213584  55.4789782  74.7922421   6.3540006  54.6667242
  75.0438452  68.3070660  15.3788257  75.7431412  68.7967968  15.8117032
  74.6603203  67.7722263  16.0738659  78.7580204   1.5466493  20.2553058
  78.7605667   2.0613049  19.4482398  77.9644632   1.0145190  20.1975346
   1.2473486  65.9508514  40.4699993   1.4790355  66.6149855  41.1192131
   2.0883816  65.6374979  40.1372766  13.2190073  74.9125624  21.6869020
  13.9732456  75.1477289  22.2273207  13.5950148  74.6871090  20.8360076
  63.3393383   5.7119113  14.5096326  63.1219578   6.5520251  14.1056681
  64.2703342   5.7814950  14.7208929  33.5101056  36.4302111   5.6710380
  32.8425527  37.1088386   5.7714003  33.0367446  35.6799030   5.3115928
  21.6018629  22.9496861   1.8536882  20.7719064  22.5378442   2.0940836
  22.2201610  22.2219419   1.7878971  67.3418999  53.5094452  17.5239515
  67.8321743  53.4516096  18.3440232  66.8333960  52.6991415  17.4912524
  39.4213414  66.4088154  11.2665820  39.2724252  65.9078074  12.0684838
  39.5379019  65.7445526  10.5873168  55.3482103  55.2469635   7.4036509
  55.5767584  54.6070719   8.0778414  55.7031631  56.0743952   7.7286088
  38.3065033  38.1182313  18.2277882  38.5285664  38.3837366  19.1202152
  39.1156769  37.7420211  17.8814709  11.0304916  27.9705954  48.7028217
  10.8558965  27.0420933  48.5490990  10.9720755  28.0711961  49.6529245
  41.2963200  15.4638565  35.2430940  40.6242847  15.9620202  34.7778678
  41.4958811  14.7300124  34.6618176  23.9099646   5.8170915  14.5727444
  23.4891319   6.6239464  14.2758989  24.6831870   5.7310832  14.0151072
  59.2797565  48.1672907  26.8825722  59.6070385  48.5285664  27.7063441
  58.9575481  48.9277744  26.3987589  68.5173035  15.5807269  19.5976365
  68.2557011  14.7466850  19.9877262  69.2173100  15.3503418  18.9867783
  38.2991338  72.8110313  20.1534605  37.6125717  72.9136610  19.4944239
  38.9338470  73.4971285  19.9469531  60.0136232  17.2418475   0.3413913
  60.9060621  16.9170845   0.4610173  59.7438574  16.8934667  -0.5083674
   8.1351608  56.6845465  10.0247467   8.1175148  55.7294369   9.9640226
   9.0432125  56.8938971  10.2434838  35.5099797  65.9542942  17.4277079
  34.7548127  66.5423870  17.4175739  36.2649035  66.5319109  17.3150909
  52.9619455  28.0657101   8.7812698  53.2114840  28.4310460   9.6300870
  53.7156105  28.2360601   8.2162893  71.8421936  64.6561337  50.6438017
  71.8299723  64.6648216  49.6867180  71.0284424  64.2161846  50.8897400
  62.0241594  24.5287108  55.1235819  62.8018475  25.0105000  54.8419571
  61.7375278  24.9797273  55.9177208   4.7614208   4.9458379  16.8229973
   5.4453516   4.7303048  17.4570453   4.8947793   5.8745164  16.6332519
  56.8549347  25.7094121  27.5927234  56.6184425  26.5789771  27.2699833
  57.5524998  25.4176354  27.0057821   3.6699215  20.0899744  25.0664067
   2.9865873  20.1151299  25.7362223   3.5177892  19.2681730  24.5997906
  32.4775624  16.8151081  32.8881168  31.9332671  16.8990088  32.1052146
  31.8879533  16.4588046  33.5526800   9.2056376  22.9319715  40.5321884
   8.9516664  23.2890892  41.3831854  10.1065993  22.6337051  40.6568336
  70.1862812  34.3261671  23.0189109  69.3182611  34.5471382  23.3564711
  70.2272987  34.7553277  22.1642923  73.1606102  55.1259899  25.8484936
  72.4142075  54.5742464  26.0823584  72.8330851  55.6864023  25.1450038
  17.4556220  40.0676394  57.0588589  17.1499598  39.2362761  56.6960430
  16.6742647  40.6200123  57.0833015  67.1027565  57.0517159  61.7113638
  67.5296021  57.2717237  60.8833361  66.9151068  57.8984165  62.1164751
  59.1985369  64.9473906   1.5791710  58.8493681  64.1417980   1.1979426
  60.0828791  64.7147703   1.8621194  32.5822830  35.4030442  14.0237737
  33.3622742  35.9203744  13.8232434  32.1517634  35.8831739  14.7311342
  62.9348135  54.9205589   2.7840951  63.2381630  55.0301838   1.8828779
  63.1470108  55.7506514   3.2108852  66.6651249  29.8888206  12.7562952
  65.7687521  29.5977640  12.9237151  66.9293022  29.4107628  11.9702268
  29.0368867  64.0108919  59.3633318  28.7899017  63.1898403  59.7888947
  29.2799425  64.5909929  60.0848866  47.6764202  53.9707613  19.4450092
  47.8254414  54.7590542  19.9671423  48.5511827  53.6977100  19.1684961
  67.9174662   4.1477373  27.8070283  67.0201159   3.8165477  27.8432155
  67.8303862   5.0909591  27.9448032  40.9190464  69.3225479   6.7692304
  40.8568954  69.3151569   5.8140785  41.3200760  70.1665783   6.9766307
  20.6070590  46.3447475   2.7681932  21.4553165  45.9965324   3.0428502
  20.8241487  47.0850897   2.2016296  31.2534571  18.6316347  63.8549089
  30.7338881  17.8306949  63.9240026  31.8202949  18.6166942  64.6260786
  47.7782488  32.3392153  12.1466792  47.6559210  33.1370187  12.6612461
  48.1881475  31.7231059  12.7538216  36.6578531  47.6119852  19.5585239
  36.5045118  46.6890574  19.7608018  35.9570861  48.0770016  20.0156021
  24.1640258  10.1699567  25.4484272  24.5035505   9.2928600  25.2705026
  23.2297921  10.0371206  25.6090260  45.0611115  38.3755302   1.6120668
  44.7323751  37.8549337   2.3449659  44.7392464  37.9222131   0.8328777
  71.7450142   2.1030752  42.6210642  71.0347891   2.7270755  42.7708530
  71.7818308   2.0059918  41.6695118  24.4719672  31.5059829  20.9370518
  23.8288069  32.0723343  21.3634586  24.4910383  31.8068433  20.0285625
  34.0316105  15.4031622  23.1409645  34.0156007  15.9578645  22.3610401
  34.2813969  14.5385790  22.8148746  73.2745075  58.7235117   5.9009773
  73.4309626  59.6620798   6.0050905  73.0020714  58.4282827   6.7697984
  48.7599039  64.7904682  17.5514972  48.5218096  64.0297651  18.0814731
  49.6866035  64.9350214  17.7427137   2.1104704  32.6182795  62.4336767
   2.9977596  32.2643924  62.3727274   1.8684477  32.5010753  63.3523273
  76.9775629  31.6271758   4.4086695  77.4831724  31.1085892   5.0344950
  76.1527061  31.1508465   4.3140429  43.7589264  52.6372528   7.9219997
  43.1175566  53.2058811   8.3480728  44.3798590  53.2404613   7.5135797
  38.3016419  41.9498110   7.4145287  37.3778796  41.9614077   7.1640116
  38.7346005  42.4960375   6.7584682  63.2316637  56.3993835  15.9101057
  63.5955715  57.1760178  16.3351262  63.9519215  56.0560560  15.3813481
  63.4243631  53.7457085   5.2085686  63.4368515  52.7966261   5.0847894
  63.0002308  54.0845108   4.4201815  44.7737503  50.8375263   9.6831822
  44.5627117  51.6281843   9.1866410  44.2719078  50.9227037  10.4938173
  37.7153111  20.6418753  62.1913767  37.0208311  20.3203845  62.7663326
  38.4964132  20.6567860  62.7444506  29.2421627  54.4170761   8.8196647
  28.7214398  53.7634277   9.2863804  29.1647553  55.2091885   9.3514526
  73.3891487  57.7774143  47.1338749  72.7833223  58.5036421  46.9862270
  73.8662767  57.6919413  46.3084793  34.2837596  20.5163598  19.3737161
  34.3682647  20.9746027  18.5375905  35.0395393  20.8075190  19.8838675
   7.4855417   1.2519045  60.7682896   6.8651825   1.4746177  61.4623928
   6.9772542   1.3244258  59.9604416  52.2264767  32.7399278   6.1651880
  52.3033857  33.4806633   6.7665422  52.2877026  31.9676495   6.7273915
  71.5588093  51.5006590  38.7673712  71.2444544  50.5974865  38.7262797
  72.0224285  51.6307735  37.9401112  40.4890013  51.0084581   0.9637726
  39.8378253  51.7022705   0.8597304  40.0547886  50.3522205   1.5087888
   6.9287527   3.0001408  64.3751383   6.6281325   2.7881789  63.4914351
   6.2281734   2.6879016  64.9477863  48.4297943  47.8845406  12.7486849
  47.8091574  48.4436893  12.2813594  49.2906141  48.2105923  12.4861646
  58.0033541  33.0258012  55.9799099  57.7781725  33.9310312  55.7652426
  58.9095688  32.9286027  55.6873941  26.7170072  58.2578945   4.3444330
  27.3465252  58.9544725   4.1580901  26.7875814  58.1175852   5.2886593
  62.2946930  36.9220972  17.2536707  61.3386679  36.9188261  17.2063577
  62.5436974  36.0060143  17.1311188  16.8084192  60.9402657  19.9899614
  16.3209140  60.9639406  19.1665471  16.8309188  61.8517828  20.2812767
  57.7364874  27.6707435  16.2251067  57.7920437  27.4727798  15.2902496
  58.3586502  27.0695424  16.6346228  61.0550785  40.0821638   0.6705858
  61.2217569  39.2492199   1.1117781  61.9248962  40.4120302   0.4451039
  65.1558161  56.6366863   1.0410794  65.2807093  57.5130844   0.6769940
  64.9728823  56.7864895   1.9686168  43.5700864  25.6565670   0.3180931
  42.8188152  25.0681500   0.2433441  44.0568418  25.5281452  -0.4960349
  35.5620766   7.4871308  46.4561892  36.4781690   7.7483106  46.5499640
  35.5758929   6.8001443  45.7897902  45.3203297  34.6521139  59.1789865
  45.5365181  35.4231620  58.6545944  45.4464722  33.9139485  58.5828066
  67.7338839  13.4941614  32.4939013  67.4896669  13.6007655  33.4132624
  67.8901672  12.5550044  32.3949456  70.7904530  74.5867682  64.4135523
  71.6803598  74.3722057  64.1338015  70.2527571  73.8733625  64.0697908
  38.2101965  61.6519642   8.0400729  38.8571000  62.3507357   7.9427844
  38.5630465  60.9256506   7.5260675  59.4704962  34.2592955   5.6450152
  59.1036987  34.5212793   6.4894438  60.4141617  34.3852282   5.7443446
  53.1293631  59.8146725  55.1377106  54.0602827  59.6548605  55.2928829
  53.1081152  60.6127405  54.6096277  21.5531230  68.7029982  37.4097133
  21.1101937  69.4931316  37.7191257  20.9988022  68.3803463  36.6991806
  61.9850206   9.1550088  24.9580455  61.1024618   9.1512185  25.3285933
  61.9006157   9.6504056  24.1433740  11.3550067  16.7475927  54.6059561
  12.2126353  16.8588054  54.1956711  10.9557974  17.6166463  54.5658350
  50.1514578   1.1736010  42.2854233  51.0506201   1.2228149  41.9608974
  50.0938225   0.3136229  42.7017736  38.2917571  14.7740984   7.6436538
  38.6790228  13.9140856   7.4804515  38.2507181  14.8411667   8.5976189
  28.4435272  26.4309573  19.2782867  28.5454321  26.7518377  18.3822489
  29.2780113  26.0062194  19.4769478  50.9035921   2.0379794   4.5268247
  50.3934765   1.5965998   5.2059400  51.5599966   2.5407723   5.0090748
  73.9206791  25.3332877  43.9066601  73.7756681  25.2830482  42.9618454
  74.0941668  26.2597466  44.0734243  77.4056244  66.6766977  52.5068569
  77.3519993  66.3596344  53.4084272  76.5507650  66.4700413  52.1290493
  30.6594133   6.0346729  19.9841321  30.1164460   6.5435368  20.5861926
  31.5118837   6.4695388  20.0045848  72.7855444  30.9598088  39.7163939
  72.7300835  30.6627774  38.8081384  71.9958735  31.4852214  39.8452067
   6.1556506   0.7119770  58.0291176   5.9799755   0.3894582  57.1451759
   5.3131306   0.6487358  58.4789991   4.6255887  50.1046276  58.4033775
   4.1624671  49.8418951  59.1988182   5.5433542  49.8993444  58.5817003
  75.9963989  26.4989805  30.4966617  75.3467798  26.1085463  29.9120355
  76.7585850  25.9242940  30.4256892  57.5187683  63.4783649  16.3854706
  57.5162506  63.8228989  17.2785103  58.3922958  63.1025457  16.2762046
  53.9249134  58.7377453  21.3083291  53.6662245  58.4105825  20.4467750
  53.2487297  59.3761969  21.5350175   0.5156245  73.2124758  59.8378086
  -0.1627343  73.8269663  60.1179266   0.1790626  72.3527193  60.0903416
  59.8156214  58.8254881  22.6808691  59.7320890  59.1962051  23.5594034
  59.9951220  59.5792818  22.1188998   6.6867703  37.2240853  19.2351973
   6.7066246  36.3230443  18.9127696   5.8794868  37.5900531  18.8738191
  28.0961990   1.0920174  28.5165501  28.5155606   0.2322284  28.4829330
  28.4448123   1.5584064  27.7568269  72.8656435  56.8684006  23.7879539
  73.1930065  57.5610256  23.2140756  72.1304941  57.2691870  24.2518067
  41.5672827   9.2007178  32.2109652  42.2298527   8.5871130  32.5283313
  41.0563850   9.4249588  32.9887390  63.8239527  19.2731905  35.6143212
  64.0801668  19.8681259  36.3190460  62.9048681  19.0732634  35.7919335
  48.4177732  10.0874507  49.8742056  48.0500269   9.2312181  50.0929737
  49.2324924   9.8875099  49.4132376   5.8407879   5.3574002  10.5508041
   6.1249691   4.9007371   9.7590142   6.3300073   6.1800838  10.5414569
  50.6975222  55.2100468  25.6304574  49.8888016  55.3284979  26.1286235
  50.4162836  55.2022648  24.7155380  72.2664452  54.5479870  18.1966114
  72.0469522  54.3387032  17.2887266  72.6886415  55.4057407  18.1493342
  77.7520609  56.5419245  25.7663226  78.1462002  56.4625263  24.8976541
  76.9495249  56.0229015  25.7135534  50.7146025   6.4084351  60.5468845
  49.7855043   6.5487599  60.3643656  51.0806608   7.2900599  60.6173992
  74.6445036  63.1653738  47.7379274  75.0638342  62.3514700  48.0171299
  75.3585148  63.6913395  47.3776770  13.1355655  21.8241000  46.6944265
  12.7041709  21.6739345  47.5356054  12.4369228  21.7303944  46.0468531
  42.9538965   6.1469036  64.5996428  42.5277996   6.8996555  65.0095701
  42.6977444   5.4015410  65.1428270  69.2592621   0.1030249   7.6670665
  69.0345049   1.0324267   7.6231450  69.0075922  -0.1627133   8.5515308
  53.5731936  42.4236012  15.1527977  53.2540035  42.9080105  14.3914211
  53.6453390  41.5190411  14.8481584  73.5095978  45.8545971  21.9489121
  74.0012455  45.4567766  22.6674175  73.3637333  45.1370811  21.3323712
  58.6794853  72.4264336  22.8591681  58.6462784  71.7381668  22.1947718
  57.7717018  72.5267220  23.1457138  11.0983634  31.0993958  23.0781198
  10.3104508  30.5558729  23.0751657  11.1010015  31.5126848  23.9414954
  77.5771952  62.0599413  17.6567328  77.0792198  61.2424755  17.6559877
  78.4473801  61.8105888  17.3455548  22.8554749  35.5160141   4.7144464
  22.2106910  35.9753633   4.1764098  22.4106050  34.7142339   4.9891663
  21.0581517  61.5299273  15.2974844  21.2396264  62.3906565  14.9200678
  20.5548096  61.0739374  14.6229851  46.8968439  36.1813593  64.7599840
  47.6628828  35.6382704  64.9456406  46.1538076  35.6582689  65.0608110
  55.9018612  52.4562550  31.1828279  56.4759254  51.7815065  30.8203387
  56.4472151  53.2422113  31.2159443  39.1007900  53.2828093   1.8676569
  39.5989943  53.2824898   2.6849842  38.8196349  54.1912985   1.7588899
  61.6760540  27.5764728  47.7366495  62.2962523  26.8527246  47.6484871
  61.8180752  27.9068851  48.6237144  66.2378931   2.1385057  10.1912439
  66.5706158   2.7466896  10.8512759  65.6284380   1.5761450  10.6693077
  68.5604286  60.4356050  56.5402842  68.2034254  60.8668280  57.3167038
  68.2228231  59.5411158  56.5865707  35.0994110  61.5056133  17.0833731
  35.5782628  62.0748043  16.4809132  34.7587276  60.8031940  16.5295005
  78.3420086  28.3067489  13.6395657  78.6106443  27.4808359  13.2371557
  77.7779293  28.0461121  14.3676567  76.3951254   9.2267835  11.9260716
  75.7210255   8.8479662  11.3618779  76.3678455   8.6954361  12.7217841
  69.6732664  48.6406231  29.2693615  68.8302422  48.1885529  29.2351055
  69.4942141  49.4447279  29.7567892   9.1676420  64.4190168  58.7885523
   9.9166352  63.8599110  58.9950466   9.5521152  65.2759695  58.6040401
  46.0255575  32.4405813   8.3847505  45.1221132  32.2575593   8.1268215
  45.9491348  33.1038499   9.0706545  79.5295871  46.4885378  57.9634953
  79.7267458  47.0555449  58.7090540  79.3883756  47.0922327  57.2342157
   0.1288455  57.5427771  46.1243200  -0.4249560  57.9838324  46.7685366
   1.0225058  57.7702665  46.3809395  18.3457065  15.8603311  61.9664192
  19.0259159  16.5181112  61.8219519  18.3722150  15.3121388  61.1821890
  54.4638920  65.3022480  12.0720387  55.0967836  64.8508978  11.5135038
  54.9818087  65.9570885  12.5402033  55.5680132  50.6172276   7.2436959
  54.7476959  50.9393406   6.8701303  55.4548168  50.7138062   8.1892592
  49.4193792  59.9378824  13.5337269  50.2787399  60.3233480  13.3629811
  49.1053534  60.3900719  14.3167639  70.9817553   3.1538847  56.3775063
  70.3734398   3.4781456  55.7134008  71.8121719   3.0522081  55.9124184
  56.4046717  73.4190416  17.2824311  56.6433191  74.3280458  17.1008134
  56.1333561  73.0685520  16.4340341  51.8330956  48.8489628  16.5381217
  50.9662342  49.2225075  16.3792336  52.0172691  49.0526533  17.4550843
  26.0137129  26.5978646  63.9680052  26.0219097  27.5516343  64.0485620
  25.6615043  26.4344168  63.0930948  43.3482933  74.5355511   5.0377077
  44.2759562  74.6902466   4.8595393  43.2115602  74.8868370   5.9175575
   7.8430337  44.3221712  18.8323629   8.2941198  44.4722319  19.6631658
   8.5217434  43.9820766  18.2493341  10.2611744  66.7927790  44.8712444
   9.3413204  66.5322828  44.8238945  10.4773796  67.0711851  43.9813089
  60.5736971  52.7302504  27.9668713  60.5854940  53.6854982  28.0267763
  59.7726965  52.5305271  27.4823689  41.6720200  48.5233307   8.0509663
  41.2877417  49.1439533   8.6701554  42.4285984  48.9841413   7.6883721
  75.3049231  63.4666157   5.8355319  76.1604166  63.3342648   5.4270667
  75.1564074  64.4105816   5.7798940  46.1977053  10.3906095  44.3366051
  46.8491983  10.4200578  43.6359453  46.6263342  10.8144224  45.0801754
  19.0913117  53.0594921  48.7387705  18.3782637  53.6376429  48.4675980
  19.7514486  53.1551123  48.0522537  68.5259390  63.9912224   0.8637226
  68.6896229  63.3826160   0.1432787  69.2070484  64.6577072   0.7736702
  23.8441491   0.9417634  28.2281804  24.2695189   0.6796449  27.4117327
  23.0230665   0.4498947  28.2391143  53.4067774  46.2244511  16.1028659
  53.0754328  47.1202517  16.1660433  52.9582357  45.8562994  15.3416133
  79.4200897  19.6853149  50.3149843  79.9244118  20.0199580  49.5734310
  78.6495829  20.2517843  50.3557682  43.6654234  16.7619550  21.9877148
  43.0382776  16.0608757  21.8104863  44.1379642  16.4692616  22.7669883
  54.0506172  27.5661397  60.9857273  53.4071732  28.0806708  60.4984188
  54.0159130  26.6975832  60.5849361  12.9641879  47.6152325  12.8729630
  12.3353529  47.5248432  13.5889447  13.7772954  47.2488976  13.2206511
  13.4690714  60.4120111   2.2319838  13.9420438  59.8078442   2.8042725
  13.9255631  60.3538084   1.3926631  35.6354141  56.2369442   2.9287079
  35.0125003  55.6311035   3.3301693  35.2491546  56.4495039   2.0790881
  52.9155207   8.4443265  60.8003092  52.3805904   8.8778776  61.4652252
  53.6441565   8.0631608  61.2902451  18.1104267  19.0935051  41.9542408
  17.3306000  18.5607052  41.7985964  18.7349701  18.8039887  41.2891436
  72.2479582  35.0148845  13.9454997  72.2354984  35.4762673  13.1069279
  72.0955133  35.6989026  14.5975065  79.0008116  31.9966984   2.4501924
  78.1842899  31.6750479   2.8323767  79.6252775  31.9861102   3.1755617
   3.2877368  25.9092832  62.1701050   2.6449126  25.3251624  62.5723648
   3.4836432  25.5043244  61.3252020  21.7905164  30.2357483  16.0708499
  21.9169068  31.1748242  15.9352124  20.9182644  30.0581741  15.7188916
  72.8807974  64.1597748   1.7711973  72.9956579  64.6138239   2.6059884
  72.7631760  63.2409859   2.0124881  52.8359127   2.7023038  35.0145817
  51.9016504   2.8748685  34.8979163  53.1006527   2.2613055  34.2073250
  48.8394260  65.8046532   4.0300620  49.5554876  66.1868143   3.5226732
  48.7232685  64.9299240   3.6591390  56.9708872  56.8924570  46.0004759
  56.7175150  56.9012356  45.0774622  56.7757940  56.0024881  46.2939501
  72.8722763  69.5220518  41.8636370  73.6167622  69.0076303  42.1756315
  72.1133423  68.9568567  42.0078897  72.6041079  71.7853022   8.6834806
  72.2589207  72.4706078   9.2556995  72.8751278  72.2488976   7.8911036
  35.8800340  41.3637543   0.5059475  36.6332030  40.8127737   0.7189963
  35.2150726  40.7501221   0.1936752  57.9031324  37.3887992  59.7938967
  58.3980513  36.6187239  59.5141315  58.3210611  37.6579356  60.6119013
   0.2712514   2.5420108  33.6713624   0.3922160   3.4847230  33.7849116
   0.4347771   2.1732780  34.5394230  24.0046000  34.1395259  58.4374762
  23.3204889  33.6468029  57.9842091  23.5331130  34.8279285  58.9065552
  63.0034399  15.3392994  64.0805244  63.0293179  14.4281030  63.7884903
  63.6735868  15.3915298  64.7620010  69.8488855  49.2306232  50.7366610
  69.3963432  48.9492607  49.9415064  70.1498365  50.1177073  50.5398130
  56.2906075  59.1832638   4.5231175  56.4925432  58.2477570   4.5063540
  56.9703865  59.5847607   3.9818859   2.5201231  39.4569767   0.8670852
   3.2440335  38.8851795   0.6116722   1.9736487  39.5161100   0.0834415
  38.4186816  20.9133792  59.7017193  38.9144802  21.6962552  59.9415588
  37.7818823  20.8073139  60.4084539  17.0333993  45.3470850  11.2000012
  17.7477407  45.2915001  10.5652893  17.4013972  45.8420038  11.9320273
  54.0929794  28.5971427  14.2355013  53.8969612  29.1302848  15.0059342
  53.5483599  27.8168583  14.3393219  29.5492792  21.8765306  61.1018896
  29.5805216  22.3122430  60.2501822  30.4594779  21.6440511  61.2855291
  40.0146532  55.8201075   5.1757973  40.4917717  55.0042772   5.0240993
  40.6486464  56.5089703   4.9764010  47.8778744  16.2168074  33.5914803
  48.3262730  15.8580923  32.8256512  47.0277309  16.5041900  33.2584643
  34.5441723  14.6611547  63.8567400  34.1929841  13.8017273  64.0897274
  35.3450799  14.7410858  64.3747997   0.2350528  65.8467627  31.0410571
   0.8435642  66.5119982  30.7194853  -0.5064925  66.3459253  31.3833761
  56.1982203  29.6815991   8.3451086  57.0735168  29.4500542   8.6557233
  56.2702656  29.6638656   7.3907882  70.4311419   9.0042132  60.9881496
  70.6473637   8.0977875  60.7693481  70.4076958   9.4552642  60.1442099
  65.3018093  65.9207249   6.4828181  65.0569057  66.7333078   6.0401428
  66.2519073  65.8683157   6.3788801  58.5186958  62.4162388   1.0194589
  57.8626156  61.8300676   0.6423730  59.2963219  61.8683720   1.1261106
   7.5723153  30.1332808  61.9169092   8.2763577  30.7224703  62.1878576
   6.8968064  30.2436447  62.5860453  53.2935429  53.6697769  61.9250870
  52.4485445  54.1075993  62.0276928  53.9385176  54.3728018  62.0025158
  52.8832102  54.7681189  14.1073954  53.7949991  55.0394678  14.0013671
  52.4768925  54.9581337  13.2617998   2.8473651  39.3773246  10.9963429
   2.0426886  39.8573756  10.8006942   3.3849144  40.0001860  11.4855444
   5.1331216  22.8208542  52.9622126   5.7829022  22.3783946  53.5083294
   5.6488854  23.2691216  52.2919321  13.2835627  26.6954422  31.8383145
  13.0291402  27.4283361  31.2776303  14.1068065  26.3819408  31.4638543
  60.7844067  57.2517920   4.4726965  61.2353277  57.6623774   3.7349141
  60.7256222  57.9430389   5.1322025  38.3696818  36.1417007  60.3268766
  39.2146993  36.5085697  60.0669050  37.9012704  36.0114145  59.5023489
  71.6618729  46.4336824   8.0414504  71.6826296  45.6806517   7.4509025
  72.3253059  46.2376165   8.7029982  46.1954546  17.6321518  51.2423277
  45.3535461  17.9888892  51.5254545  46.6280985  18.3621049  50.7993650
  28.3399177  70.5880690   5.2226782  28.8451982  71.2846041   5.6419188
  28.9894700  69.9204969   5.0020880  47.6955366  41.5525150   2.9768005
  47.9923820  40.6967783   2.6672372  47.3389864  41.3814116   3.8484815
  26.7913628  21.5764856  56.6325235  26.9853806  21.8516207  57.5285625
  26.9063258  22.3691344  56.1083841  24.5911670  22.3079062  28.9687324
  24.5444512  22.0501494  28.0480719  23.9003134  21.8005753  29.3948412
  76.3474131  70.1485729  26.5073347  76.8036318  69.3661404  26.8169928
  76.1248827  69.9517202  25.5974102  68.1324863  62.2859812  14.9907017
  67.2361755  62.0211601  15.1974070  68.5242653  62.4887562  15.8401871
  67.9674864  45.0088644  21.1977553  68.4141779  44.5707703  20.4733419
  68.6733055  45.3979445  21.7141557  79.6021223  56.1896849  18.9572167
  79.6092463  56.4039898  19.8900902  78.9465952  55.4969692  18.8756025
  19.1804695  59.9995947   3.1116465  19.2718530  60.8980989   2.7945143
  19.7627258  59.4872236   2.5506806  30.0487304  17.5871611  17.2181273
  29.6926045  18.0372298  17.9841840  29.5245290  17.9103065  16.4853096
  28.1582284  26.0684800  61.2678194  28.5387182  25.6115127  60.5177212
  28.5811973  25.6720614  62.0295143  15.2499163  56.3316965  20.6070137
  15.3875268  56.8773031  19.8326695  14.3271422  56.0812044  20.5625987
  31.0992193  25.4678941  19.2032897  31.4139175  25.7064104  20.0752449
  31.8830609  25.4803872  18.6540473   5.0019085  56.9815731  19.7565460
   5.7523882  56.5700722  20.1851225   4.8019147  56.4055204  19.0187132
  58.7580919  27.6103711  59.2394257  59.2423487  26.8564391  59.5760489
  58.0209684  27.2283101  58.7630749  45.8260584  52.2679901  20.3352118
  46.4946318  52.9106569  20.0981045  45.2954912  52.7082062  20.9992456
  60.8539534  32.3320007  16.1500454  60.2542019  31.5984797  16.2859690
  61.6436005  31.9315076  15.7863212   9.6971941  48.1783724  18.0193472
   9.9340403  47.5481367  17.3389482   8.8176429  47.9171515  18.2920861
  20.3626633  68.1063938  40.6875849  19.9649060  68.8614607  41.1210489
  20.1482105  67.3648596  41.2535954  12.7847731  28.9630222  61.2135172
  12.7953911  28.9808941  62.1704912  12.3460090  29.7762108  60.9636307
  16.0352266  45.9006929  22.3459411  15.3070557  45.6232166  22.9018259
  16.7613590  45.3313398  22.6005054  23.6755514  74.3292761  25.9095144
  23.1141591  74.9850845  25.4960155  24.4185472  74.8290157  26.2478113
   2.3715664  25.3809500  31.8430734   3.2448444  25.0927877  32.1087408
   1.7748246  24.8842669  32.4029255  70.3560400  50.0827456  32.3012042
  69.7535610  50.3465891  31.6057634  71.2015772  49.9884176  31.8625712
   8.5174626  30.7229686  15.4129636   8.0870110  29.8715949  15.3348088
   7.8933835  31.3424921  15.0348806  62.5024033  57.0010853  24.9696636
  62.9289913  56.3738108  24.3858981  62.8448629  57.8525543  24.6977139
  78.5418940  13.9278829  19.0157390  78.2967997  14.7387648  19.4614196
  78.3592367  13.2388365  19.6545541  46.3108826  70.8423328  19.9208987
  45.8021688  71.0235786  19.1305888  45.7500553  71.1352396  20.6391644
  72.1498013  69.6014833   5.6228048  71.2204695  69.8140526   5.5368626
  72.5850153  70.4516029   5.6869632  69.8750544  60.8589172   4.1105315
  69.5974302  61.0572958   3.2162148  70.5206251  61.5349865   4.3164453
  16.8807340  19.0114379  12.7428818  17.4755740  19.5522892  12.2233844
  17.4578726  18.4712005  13.2825899  51.3467836   8.4537238  62.9765749
  50.6414604   7.8075767  63.0118275  51.1653852   9.0463465  63.7060404
   9.1817677   0.3639091  36.4570284   8.4145623   0.3377151  37.0288157
   8.9866197  -0.2682471  35.7652712  60.7653570  12.3851168  53.2590818
  60.9999895  13.1893194  52.7960062  61.4809132  11.7796242  53.0651855
  60.2454185  59.2445278  45.1248312  59.3587875  59.3120575  45.4791689
  60.7035637  58.6660004  45.7344532  61.4268780  40.5880833   8.6058629
  60.7487249  39.9220395   8.7186772  61.2675762  40.9466076   7.7327549
  22.9277730  25.9111691  56.4949274  22.4883318  25.2706099  55.9356356
  22.2452378  26.2147188  57.0934582  68.3479548  61.5910053  44.7614861
  67.5489998  62.1179533  44.7766209  69.0580273  62.2328234  44.7517967
  30.1384020   0.5422537  55.0430346  30.1592064  -0.2172713  54.4608688
  29.2752290   0.5046566  55.4550457  66.2694788  56.3140726  17.5295961
  67.1341705  56.3672256  17.9366791  66.1764717  55.3935575  17.2841704
  60.7373190  65.3354263  22.1927118  60.0362635  64.8650789  21.7415738
  61.3090467  65.6446600  21.4900494  11.1498868  36.2421060  31.6118407
  11.2989736  35.3491449  31.9226885  11.0224473  36.1489272  30.6677508
   6.4140326  61.0841227   9.3417412   7.1636420  61.2447119   8.7685663
   6.5125823  60.1720905   9.6150839  52.1810436  52.8033638  21.4806771
  51.7545700  53.3515930  20.8220434  52.4999809  53.4223461  22.1374655
  34.6048307  55.5354452  62.9595327  35.3055286  54.9178314  62.7502346
  34.0414929  55.5297756  62.1856785  79.4644213  13.8571322  44.8926497
  79.9155188  13.7566316  45.7308912  79.3112183  12.9606760  44.5941162
  72.5103903  67.1824980   6.7894083  72.2157621  67.3274088   7.6885355
  72.2299194  67.9658937   6.3162667  47.8764439   5.8832133  61.7605782
  48.0522346   6.2432456  62.6298904  47.2450638   6.4895791  61.3733959
  26.4068174  29.2827582  61.8331861  25.8255339  28.8821507  61.1867666
  25.8936310  30.0003266  62.2046232  37.2575402  10.8229423  31.2057281
  37.8284478  11.4441192  30.7535839  36.4050674  11.2574124  31.2332845
  29.7649384  63.6814499  54.6209335  29.0560794  63.9603853  54.0413237
  29.4774461  63.9452076  55.4950142  68.4160805  50.8502865  30.4811740
  67.5193834  50.6189060  30.2390409  68.5854626  51.6702175  30.0172210
   4.1671455  67.1235132  44.1790533   3.2644570  66.9737053  44.4600248
   4.3477935  68.0302429  44.4269228  24.8630309  71.7082357   6.3648391
  24.0097475  72.0365334   6.0813606  24.7649169  70.7560778   6.3662052
  72.6779461  72.6433992  33.1832933  72.6481152  72.2212791  32.3247170
  73.6104012  72.6920748  33.3939910  74.7274542  66.8247461  17.4983299
  74.0069056  66.1951303  17.4732351  75.5167627  66.2886000  17.4223351
  73.0977154  12.0029187  38.3095694  72.5856400  12.6775765  37.8636479
  74.0081739  12.2264171  38.1163120  52.7559042  23.4328341  26.8408370
  53.3716154  23.3893609  27.5724387  51.9122982  23.6276555  27.2490144
  70.8773184  57.8823757  60.4590130  71.4342451  57.3332071  59.9072123
  70.7409763  57.3644400  61.2523460  61.7208338  73.4928465   2.9553881
  62.4652290  72.8948545   2.8881681  62.0865965  74.3541813   2.7540118
  56.0458136  71.3886738  25.4634166  56.3461828  72.1253586  24.9311519
  55.3599072  71.7586756  26.0191703  73.2419395  52.4551153  58.7768412
  72.4044800  52.9128647  58.7036467  73.4002399  52.1037769  57.9006386
  68.7708330  13.3420026  24.7041535  68.3942509  13.8152015  23.9621949
  68.7127256  13.9573205  25.4350710  75.1044941  47.5345612  64.0141821
  75.0130653  48.1050444  63.2510185  74.2882919  47.0351362  64.0390491
  47.6998186  55.9408522  58.0907393  48.0045986  56.0997009  58.9841080
  47.9264355  56.7397928  57.6147413  25.4162908  43.3974457  12.8768766
  25.2112389  43.9399767  13.6383533  24.9706483  43.8293219  12.1480989
  48.1601667   2.4961941  15.1596296  47.3745203   3.0429384  15.1674938
  48.8795519   3.1083724  15.3144002  44.3759680  26.4636445  10.5542254
  45.0248671  25.7800627  10.7211804  43.6350536  26.0002971  10.1636004
  44.0897512  13.1967831  29.1378236  43.2685328  12.8069234  29.4375539
  44.7698164  12.7114320  29.6049190  55.9118509  45.1684856   2.1359619
  56.0840988  45.7688093   1.4105828  56.5363169  45.4266167   2.8139317
  46.8790245  61.9129515  52.0411158  46.3677835  62.2137022  52.7923918
  47.0280027  62.7026987  51.5211773  25.5284953  68.7926912  39.6835375
  24.6445465  68.4386873  39.7812319  25.5569983  69.1211462  38.7849045
  47.3739481  16.3637936  25.7973790  47.7878141  15.5011451  25.7694125
  47.9622936  16.8944108  26.3345265  52.0830822  17.8552365  63.8006020
  51.7100096  16.9781804  63.8890409  51.4731598  18.4235108  64.2710161
  35.5987740  19.9479449  42.3325300  35.5895185  20.2330351  43.2462454
  36.5035009  19.6779597  42.1750259  33.8850784  67.8878641  16.6593111
  34.0528417  68.8231850  16.5441346  33.3154297  67.6546574  15.9262729
  12.8245091  27.5057435  18.8692880  12.0922089  28.0874014  18.6652207
  12.4123716  26.7140222  19.2150486  38.2320690  73.1662846   5.2477419
  38.4149194  73.7481117   4.5099908  38.9531565  73.3197451   5.8582455
   3.2760188  55.4352427  15.7515240   3.3203208  55.8017111  14.8683643
   2.6345244  55.9815836  16.2056434  14.2974043  43.5003901  57.6732445
  13.3638072  43.3158112  57.5704861  14.7270012  42.6608801  57.5092363
  40.4809713  17.1086693  32.4620724  39.7186136  16.5874600  32.2103143
  40.2826691  17.4103868  33.3485675  69.7117805   1.4680043  48.5291576
  69.8094416   0.8988611  49.2925501  68.9369106   1.1328320  48.0780840
  68.3387423  54.0984440  29.5077229  67.8437233  53.4005260  29.0786481
  67.7281570  54.8344421  29.5493126  67.3866844  68.6294937  62.3126745
  66.9525671  69.2913294  62.8509569  66.6842461  68.0331421  62.0534945
  47.9937792  24.1897464  25.7141137  48.2497215  23.7795806  24.8879838
  48.6448193  23.8834119  26.3454151  42.5915432  23.3176708  14.0978384
  42.1732569  22.5297046  14.4447994  42.2205400  24.0330291  14.6144176
  53.3342028  21.0200429  55.8196735  52.9060745  21.1872911  54.9800539
  53.2781744  21.8533659  56.2872887  51.1858845   0.1557408  55.2166128
  51.8903971  -0.4880212  55.1426888  51.5035915   0.9155681  54.7288036
  14.5933199  73.7631083  64.2987728  14.0789175  74.0364170  63.5392189
  15.4951108  73.9895916  64.0713739  67.7757292  62.0196815  64.6447048
  67.2038584  62.6189967  64.1651002  67.2794085  61.7929026  65.4311346
  74.8556566  52.8508234   4.7312963  75.2703047  53.5774422   5.1963967
  74.3259573  52.4116516   5.3967166  79.8154306  55.9622669  52.6581621
  79.8239422  55.1510859  52.1500826  78.9607620  55.9659767  53.0891562
  41.8724489   9.6950138  38.7509704  41.1709785   9.2190856  39.1955590
  42.3714924   9.0164447  38.2962942  46.0175037  10.6268370  15.3132021
  45.5609703   9.8344344  15.5958760  46.7524624  10.3062356  14.7904325
  47.5054836  23.4340429   8.2100302  46.5780401  23.5835695   8.0263788
  47.8688955  24.3104649   8.3367115  68.2571650  37.0564580   7.1421421
  68.0976963  37.1033740   8.0847991  67.5722075  36.4750147   6.8120015
   4.1382909   6.0834932  63.2114267   3.2954007   6.5185142  63.0828762
   4.3873587   6.3042724  64.1088963  52.6648045  70.7557344   9.7600675
  52.0397472  70.0434160   9.6253896  52.2984123  71.4917660   9.2699194
  65.7797241  37.5405216   1.2116985  65.2519751  37.8453422   0.4735959
  66.5193701  37.0877910   0.8064869  45.3282881  11.6783929   4.7246680
  44.6594095  12.2437882   4.3384516  44.8722982  10.8561838   4.9043298
   8.6144996  38.3726478  55.6778955   7.8119659  38.3056927  55.1605082
   8.4653234  39.1211891  56.2555313  49.7280169  16.8241239  57.8214121
  49.0408230  17.4272454  57.5381422  49.2869139  15.9782445  57.8998375
  70.3604317  26.6217494  12.0071781  71.2424088  26.7978978  12.3347700
  69.7959375  27.2066426  12.5126290  53.0148745   3.3034825   5.9493738
  53.9455891   3.2423660   5.7342643  52.9769182   3.1524846   6.8938267
  79.1845798   1.9129400   5.0335836  79.2588902   2.0650919   4.0914795
  78.6703014   2.6531127   5.3559083  28.8080788  35.5313659  20.1468873
  28.2541943  36.2248755  20.5053401  28.2691479  35.1194215  19.4715452
  23.2947230  64.6523333  49.2143250  22.8675246  64.5741701  50.0673342
  23.5274744  63.7539673  48.9798021  55.7562971  51.6254330  54.6546030
  55.2363396  51.7848253  53.8669014  55.4145956  50.8027077  55.0047302
   5.7036561  29.9688625  44.4438267   6.1832130  29.1464090  44.5429564
   4.9745890  29.8967624  45.0598574  46.6111088  47.5056219   8.6420530
  47.3576164  46.9783545   8.3575404  46.5384960  48.1942368   7.9811668
   5.3339320  59.2467308  43.5241508   5.5184442  59.8476505  42.8022909
   4.3799290  59.1690922  43.5332680  45.8055782  28.3285403   4.2583272
  45.6678009  28.6722112   3.3756387  44.9313402  28.0780649   4.5569924
  79.1793203  13.8799238   8.1168550  79.3282843  13.9488459   7.1738327
  78.9305162  14.7643793   8.3853084   7.4196017  32.7874732  50.4715919
   6.8263960  32.0364857  50.4904604   7.7057958  32.8437805  49.5599174
  25.2119756   5.5562162   0.8748405  25.6371880   4.8880705   1.4124337
  24.5622516   5.9528083   1.4551903  62.5450230  26.9793987  24.0725636
  63.4386349  26.7326736  24.3109226  62.6534939  27.6764274  23.4255600
  57.3609066   5.3599495  41.1234760  57.2131968   5.5208951  40.1915407
  56.5419865   4.9723828  41.4323425  76.1702156  36.5806270  27.4483657
  76.7265129  37.2870731  27.1201825  76.5490198  36.3521385  28.2972074
  79.5915174  30.8728552   0.1146312  78.8560772  30.2684212   0.0144989
  79.4474840  31.2863946   0.9657905   3.4248415  22.4515247  29.9069667
   4.1560450  22.9427910  30.2814412   3.6086005  22.4271679  28.9678884
  75.7229614   1.5344626  -0.1559638  76.5197897   1.6189785   0.3676266
  75.0797796   1.1593251   0.4455553  18.3906507   3.3444452  46.3852024
  18.4328592   3.7815547  47.2357225  19.1335034   3.6989394  45.8965969
  78.5353613  21.3923931  17.3814535  79.4566488  21.3731909  17.1224415
  78.0576563  21.5022326  16.5592825  42.2770071  61.9262695  64.8061657
  41.8168592  62.5792551  64.2788076  42.8400898  62.4397564  65.3853893
  73.6097288  70.8365965  19.7175658  73.3225346  70.0740862  20.2198958
  73.1286478  70.7748175  18.8923526  72.1670532  54.5482683  22.3178172
  71.5607500  55.0607252  21.7830086  72.6390839  55.2001286  22.8359842
  35.0575948  12.5719571   7.8805709  35.4094529  12.1698320   8.6747521
  35.0425315  11.8617749   7.2389752  64.0590477  50.7240582  21.1561704
  64.5021200  51.3889933  20.6291223  63.2303095  51.1313248  21.4082837
  54.7977304  12.2928822  36.4419246  55.4082584  12.9459190  36.7840242
  55.2847624  11.4694858  36.4743829  71.6988182  66.6982126  22.5583315
  71.5485144  65.9505701  23.1368399  71.2713623  67.4322367  22.9996061
  58.5558939  59.1548204  59.0283108  59.1668940  59.4108248  59.7192287
  57.7946091  58.8122654  59.4966412  16.4449668  68.4846210  61.3966846
  15.8240461  67.7582312  61.4518595  17.2319031  68.1608582  61.8350220
   1.2574771  51.1602163  47.1115589   0.9792104  50.2970982  46.8052530
   1.4202857  51.6577387  46.3101864  40.2211905  33.6146235  39.0069389
  39.7445083  33.2862043  38.2446051  39.6158266  34.2294884  39.4213128
  40.4299021  24.6407676  33.6745548  40.1994610  25.4031205  34.2055416
  40.3871346  23.9032078  34.2831683   8.7567616  39.8907113  40.2773571
   8.1028175  39.8166633  39.5822954   9.0939736  40.7827425  40.1949024
  30.8842397  10.5262029  31.8764067  31.3644910  11.3473654  31.7701888
  31.3929057   9.8852760  31.3797116  28.7482142  48.5529757  14.0592873
  29.5703173  48.5176420  13.5702777  28.1469226  48.0030966  13.5569799
  61.9420910  49.4615173   8.4721082  61.9918203  49.4266510   7.5168365
  62.1044445  48.5611057   8.7534171   2.9486290  65.4296541   1.6764943
   2.3688169  66.1854410   1.5824860   3.8170820  65.8092260   1.8104647
  36.7410350  16.1267853  21.4190626  36.0313582  15.5632138  21.1108756
  36.9628906  16.6683996  20.6616545   0.5756888  19.5333445  12.8937411
   1.4717165  19.1998768  12.8472114   0.5708380  20.1001954  13.6650324
  49.1936684  25.6022787  11.8307889  49.4806719  25.4362535  10.9328485
  48.6620235  24.8392010  12.0572710  42.9895067  15.6275797  28.9158273
  42.4428320  15.4408979  28.1525922  43.4707737  14.8147154  29.0703177
  12.0964265  61.3930607  33.2943416  11.3809323  60.9362602  32.8520370
  11.7482710  62.2664404  33.4738660  69.2435455   4.1997364   5.6414098
  68.7752676   4.9889913   5.3693396  68.6656284   3.7877771   6.2836963
  52.2929573  68.9961243  44.1238356  52.1115208  68.1705379  44.5729685
  52.7240276  69.5384264  44.7843790  75.1163435  15.1967096  36.0055804
  75.8393764  15.3058577  35.3878903  74.3874979  14.8857272  35.4686403
  61.3446999  29.1825700   8.7801868  61.1451101  28.5324001   8.1066322
  61.7883301  28.6863637   9.4680846   8.3395088  41.6424131  52.6238060
   7.6624626  41.0269785  52.3425865   9.1537732  41.1416292  52.5746107
  72.8943443  28.1975937  30.7635260  73.4514618  27.6734686  31.3389802
  72.8241682  29.0443635  31.2043047  58.7596130  30.4236794  15.9013641
  58.2168674  31.1078453  15.5094683  58.1471252  29.7144127  16.0963845
  31.2394142  15.6942511  11.1672342  32.1861720  15.5542576  11.1503851
  31.0789847  16.1473024  11.9950247  51.0236359  22.1733761  11.9951367
  51.3462496  21.3915467  11.5469217  50.4135036  22.5709748  11.3739383
  56.7141247   7.9179460  50.4163599  57.4529886   7.6509494  49.8695326
  56.5862036   8.8439804  50.2106190  18.2408822  70.2841663  49.8034859
  17.5340319  70.8955002  50.0105333  17.7962029  69.4556952  49.6242523
  69.3298864  48.2259989  64.2806721  69.9723005  48.1193161  63.5791349
  68.9071465  49.0640116  64.0929222   2.5374919  74.2855024  63.4067249
   3.4447226  74.1268873  63.6675072   2.1911946  73.4165192  63.2037878
   3.8307288  69.9909163  32.7757144   3.5901383  69.0720606  32.6571608
   3.5495988  70.4184103  31.9667363  76.9117451  54.2833757  44.3366861
  77.6353979  54.5104122  44.9206495  76.2996387  53.7991858  44.8908615
  54.0959024  20.9907413  12.4288356  54.4217300  21.6173315  11.7827296
  53.5638428  20.3780365  11.9211590  17.2785461  50.4580355  59.1393661
  17.6277304  49.7939157  58.5450172  17.7882624  50.3523636  59.9426413
  43.4655666  21.4008117   1.5571333  44.2653418  20.9514832   1.8304364
  43.7654352  22.0717287   0.9437980  55.2988148  11.0802794  16.0668254
  55.7145834  11.3581347  15.2506351  55.6878662  11.6420257  16.7371345
  73.1640482  48.7349033  39.8690152  73.9831543  48.2557821  39.9944878
  73.3474970  49.3385077  39.1491246  54.4633150  -0.1293314   6.7627293
  53.8840151  -0.2568235   6.0114723  54.5575762   0.8205452   6.8340164
  77.0769405  54.3963814  60.0490093  77.9560757  54.7040701  59.8283815
  76.6740131  55.1325893  60.5093145  44.8963547  19.4582105  18.7474549
  44.0550041  19.0024960  18.7736523  45.4980803  18.8771176  19.2127395
  43.6551762  64.7272015  22.0462298  44.5973730  64.6586752  21.8919563
  43.3892250  65.5083227  21.5610957  48.3063269  18.0361915   3.6969364
  48.9000654  18.7059844   4.0361744  47.5236082  18.5206652   3.4345075
  61.0530901  53.2505894   9.6171749  61.4166689  53.9339638  10.1802373
  61.5411520  53.3306742   8.7976563  15.3232038  61.9949436  53.5870075
  14.9165154  61.2452698  53.1524658  16.0457850  61.6178417  54.0889072
  17.8632891  59.5873117  12.7056992  17.1345603  59.1950178  13.1866288
  17.5227332  60.4273701  12.3982036  60.4804993  15.3293073  59.2267370
  60.1082325  14.8600352  58.4801245  60.4224873  16.2529254  58.9822054
  67.1072245  51.0795736  41.3056087  66.4697170  51.2478304  41.9995165
  67.1874094  51.9154835  40.8461952  52.9121065  44.9764156   4.1549933
  53.5390997  45.6829548   4.3096164  53.4482908  44.1843843   4.1172117
   6.6576749  24.2897534   9.2846292   7.1046418  24.4576287   8.4550083
   5.7682860  24.0422511   9.0317225  73.1525278   9.5069647  24.1121292
  72.5614071  10.2597761  24.1212010  73.9269638   9.8161870  23.6421657
  14.5553517  10.3093636  63.9569759  14.8749948  11.1927378  63.7733650
  14.4137537  10.2978206  64.9035740  36.6516113   4.6002105  52.5597429
  35.9915233   5.2919281  52.6049519  37.0603871   4.7149307  51.7018509
  34.8832488  61.3071823   1.0403505  35.4172754  61.7546082   1.6967520
  34.2504048  60.8017111   1.5504852  61.5203285  21.8627095  12.6143146
  61.9580936  22.6685691  12.8885114  61.9986773  21.1656308  13.0631983
  48.6060905   9.8398030  59.7132826  49.5113087   9.5790422  59.8830318
  48.6808014  10.6470275  59.2043209  10.9083152   4.7836992  42.0151091
  10.9695816   5.6779242  41.6791916  10.1618493   4.4042617  41.5513754
  14.4059527  67.2023773  51.5997076  13.9841521  67.9348707  51.1505175
  15.1166630  67.6047754  52.0989084  13.0974853  74.5396757  62.2078276
  12.8800917  75.4203796  61.9023228  13.4487069  74.0978765  61.4347219
   6.8123585  58.7552738  59.8137236   6.0137826  58.7695265  59.2861795
   6.7352057  57.9618931  60.3436565  51.2990665  12.0670450  23.6253667
  50.5708504  12.5728822  23.9860106  51.9719315  12.0975912  24.3054795
  20.7902527  57.2951698  61.1837101  20.2100945  57.0239735  61.8951178
  21.2633944  56.4984846  60.9435892   0.8196866  43.6875010   1.5181836
   0.1687969  43.3643723   0.8951556   1.6586630  43.5618687   1.0748252
   4.2044067  56.9700289  63.6127424   3.5896420  56.3371992  63.9839888
   4.9392849  56.4386797  63.3063841  13.7095535  64.1528511  54.4945240
  14.1034341  63.3398342  54.8109007  13.2202375  63.8939142  53.7136555
  45.5961514  50.4453993  18.1859934  46.1764812  51.0524511  17.7267110
  45.6356955  50.7224798  19.1013598   0.4858136  67.5748301  53.7450266
   1.3749713  67.4636555  53.4084702  -0.0644914  67.6049471  52.9624128
  78.5844946   2.3462810   9.3281847  79.2897892   1.9476320   9.8379570
  78.3500576   1.6802213   8.6819363  24.9139810  33.8172340   8.0134875
  25.7312536  33.3539367   8.1969368  25.0113630  34.6596503   8.4574294
  10.1605499  24.8376656  13.6296761  10.8511603  24.7181678  12.9777491
  10.0686681  23.9784837  14.0414953  16.1388803  59.5831490  39.4059467
  16.7690563  59.6253824  40.1251984  16.1214828  58.6591339  39.1566968
  23.8919830  50.7247639  30.7386255  24.4423389  51.4817905  30.9392548
  23.1216073  50.8342409  31.2960911  14.1215265  64.3889427  42.1157408
  14.0006733  63.8049173  42.8644371  13.2592571  64.4297171  41.7021465
  73.7065363  25.5430245  24.8512149  73.5689783  24.6699619  25.2187347
  72.8263283  25.8573389  24.6446395  73.0181170  40.2639055   1.3772802
  73.2225752  40.2908516   0.4425605  73.7671804  40.6854057   1.7985551
  66.8280458  65.4030275   2.2757123  67.2099590  64.7676373   1.6701952
  67.5034142  65.5358839   2.9408887  44.3268299  12.0358980  59.1492653
  44.0451956  11.2985420  58.6077690  44.8794985  11.6406143  59.8234606
   4.2781791  14.3265378  62.0054674   4.4869143  14.9970841  61.3550568
   4.7959659  14.5682991  62.7733707  66.6294765  41.8791389  49.7035599
  66.3197899  42.3489332  50.4779100  66.5261984  40.9542131  49.9273348
   3.1383735  62.3970747   1.2753063   2.7929026  63.2667446   1.4766890
   3.7011153  62.1845865   2.0198879  26.8725419  19.7554195  13.4650278
  26.3039637  20.4180193  13.8573444  26.2891674  19.2369199  12.9108942
  19.8657823   9.1564918  37.8391314  20.3810453   9.3277079  38.6274314
  19.2341006   8.4887552  38.1062222  56.7475700  38.5843205   8.0680436
  56.6019392  38.8992929   7.1759588  56.8164253  37.6338363   7.9782063
   8.3173984  72.6343966   2.7714470   8.6353409  72.8493500   1.8945551
   7.3684371  72.7469873   2.7164200  72.8692436  10.1140690  14.4916940
  72.9393053  10.9489036  14.0286875  72.8727388   9.4544590  13.7980556
  73.0090570  11.8813479  12.0450079  72.2551394  12.3609090  11.7016995
  73.6367893  11.8728757  11.3224375  12.3217463  73.0722380  39.4035506
  12.2315180  72.2294760  39.8483443  13.0898762  73.4755039  39.8080134
  74.1661835   5.0687623   5.8256084  74.6785307   4.4502258   6.3463247
  73.3051825   4.6583810   5.7450175  40.0076389  23.9277601   4.4843185
  39.8138785  24.2425442   3.6013684  40.5100584  23.1246090   4.3473837
  76.4967299  26.4623952  23.9290953  75.5709600  26.2750292  24.0842652
  76.8176699  25.7005906  23.4465170  73.5374165  31.8769431  10.1261055
  73.7328720  32.4156713  10.8927882  73.0934143  31.1069393  10.4813302
  11.2086606  63.1955147  42.0121384  10.4475164  63.5238647  42.4907541
  10.9391630  63.2111931  41.0937929   8.5143363  16.6953933  58.4597874
   8.8067758  17.0194376  59.3116713   7.5928968  16.9497991  58.4102106
  73.2232285  17.0515859  21.9205880  74.0339470  17.5205016  22.1182799
  72.8448057  17.5283742  21.1818719  38.8215852  24.3933296  31.6385627
  39.3637133  24.5210624  30.8600926  39.4315004  24.4769621  32.3715305
  13.5331404  45.5065060  54.9866486  13.9868486  46.3446617  54.8978758
  12.6982331  45.6373215  54.5371485   8.0423874  23.1634855  23.9631939
   7.5983924  23.9669895  23.6921215   7.4424994  22.7578568  24.5891571
  20.8512306  53.4218979  11.7439246  20.8149242  54.1968203  12.3046470
  21.7858982  53.2743454  11.5994978  23.0363488  19.6962249  47.1172428
  22.5965476  20.1208687  47.8537798  22.6454854  20.0976419  46.3411474
  74.4423628  47.3773336  58.6624050  73.5893679  47.5109291  58.2491493
  74.2487097  46.8771172  59.4551897  71.7472649  65.7170486  61.8695784
  72.2445869  65.8040237  62.6828051  72.3262262  66.0730124  61.1955357
  65.7257462  45.5225420   5.4327810  66.5888262  45.5310678   5.8466089
  65.2392673  44.8484278   5.9072679  39.2754364   3.6935565  63.2967234
  39.4044542   4.6357501  63.4056187  39.8107266   3.2974613  63.9843321
  53.4615850  24.4235706  32.5461960  54.3813801  24.4898319  32.2896457
  53.4084225  24.9029064  33.3730245  47.3739862  28.8857126  16.6005623
  47.8095245  28.5274839  17.3740041  47.2848272  29.8202944  16.7872155
   3.9059499  17.4641836  23.6538148   4.0213868  16.8198621  24.3522120
   4.7950193  17.6557803  23.3553576  12.9750752  41.4070797   8.4591401
  13.7007797  41.7392874   7.9307222  12.3665488  41.0328865   7.8220320
  14.2008710  12.2319603  42.7569056  15.0447297  11.8089128  42.5982714
  14.0692079  12.7968001  41.9954252  57.4861717  24.4957519  10.7108891
  57.9983091  23.7882471  11.1025369  56.9419861  24.8224878  11.4273620
  42.6369905  18.0881906  19.3222547  41.9946337  18.7675607  19.1171515
  42.5559139  17.9593778  20.2672768  73.4997749  37.6426935  29.0651560
  72.8408861  37.2060370  29.6049976  73.2017231  37.5057244  28.1659126
   2.9981053  13.2346058  31.4283037   3.5455513  12.4494410  31.4355564
   2.3775390  13.1005323  32.1446514  57.3564577   6.4797270   7.2386312
  58.0513334   6.5191782   6.5814990  57.5620270   5.7025576   7.7582288
  33.7080002  48.7614489  63.8590050  32.8855371  48.5069227  64.2773438
  33.8810349  49.6435690  64.1878700  43.4697008  66.2811089  12.9738760
  44.0915060  65.5535841  12.9565108  42.7444744  65.9635496  13.5118663
  68.8153648  71.2687254  31.8093848  69.2296934  72.1178961  31.6561604
  68.2316780  71.4177656  32.5532484  17.7838922  54.8728180  40.5002928
  18.6277521  54.6340084  40.8838320  17.2895360  54.0534115  40.4800129
  76.4746284  52.0444870  42.4051666  76.7123699  52.8124142  42.9247761
  77.1625328  51.9813108  41.7425728  78.8371706  50.2316856  59.7334719
  78.5863209  50.8154154  60.4494095  78.0129623  49.8413181  59.4427395
  46.6626549   3.4059498  29.8262978  45.8503914   3.6412641  29.3778729
  47.3263359   3.4081623  29.1365457   0.6637111  17.7182257   3.0324870
   0.1752044  16.9534612   3.3369991   0.5565904  18.3643723   3.7305218
  13.0778480  54.3252611  57.1426010  14.0059531  54.5368862  57.0422745
  12.9097605  53.6618328  56.4733934   0.3403941  42.2196579  13.1762815
   0.3427399  42.9365015  13.8106024   0.7056597  41.4753532  13.6546373
  54.5770168  35.0826311  13.1962013  54.3705988  34.3201184  12.6556492
  55.5209970  35.0234747  13.3433008  70.2306080  47.5538206  16.9486845
  70.8560181  47.5267601  16.2245595  70.0151110  48.4815121  17.0444989
  59.5816135  12.4844813  59.6228218  60.4527140  12.6666617  59.9752808
  59.6041298  11.5544701  59.3974257  78.4045982  69.5422888  54.6702766
  77.5103855  69.2595673  54.4787359  78.9581060  68.8603544  54.2897129
  65.9861755  57.4347258  13.2012832  65.9117413  57.9568148  14.0001023
  65.7189131  58.0295706  12.5005984  42.3010445  54.2529774   1.0933236
  41.8649340  54.1745281   1.9417852  42.1613264  55.1641655   0.8355522
  78.7979555  36.8788433  13.0258536  79.7234774  36.7373729  12.8267777
  78.3372688  36.5982056  12.2351313  56.7026377  17.9595792  21.0772109
  56.5218306  18.1512010  20.1569819  57.5470734  18.3769679  21.2473464
  22.6335883  59.6259165   5.8251190  23.0676293  58.8923836   6.2607425
  23.3203411  60.2850676   5.7245046  16.1120474   2.4936645   4.9129787
  16.0838151   2.2738579   5.8441716  16.9610345   2.9191595   4.7929546
  30.5199885  35.8973646   7.8129154  30.2160788  35.1205444   7.3434263
  30.4578185  36.6047382   7.1710515   2.0685840  35.0205660  64.0372372
   1.2338486  35.4240274  64.2752886   1.9175088  34.6537471  63.1661129
  27.4938488  23.1323743  62.4988365  26.5855455  23.0281377  62.2153807
  28.0046988  22.6518893  61.8473768  61.1543179  69.0276384   1.0216723
  60.4735994  68.5710812   0.5272928  60.7020283  69.7697735   1.4228091
  43.1555462  55.0526333   6.2990874  42.8927088  54.3465519   5.7086658
  42.9675341  54.7150326   7.1748203  32.5113797  61.9585323  15.3424811
  33.2499909  62.5667906  15.3690505  32.8804278  61.1488962  14.9895930
  36.6173959   7.6649421  25.6279707  36.7186522   6.9470721  25.0029564
  37.1023941   7.3787993  26.4020061  29.8788524  37.7759576  62.4974251
  30.2847171  38.4970927  62.9785395  29.6161747  37.1534991  63.1754971
  34.0873694  27.1780944  49.9148417  33.9778328  26.3952112  49.3750954
  34.9710655  27.4860239  49.7136211  77.6981115  70.3866148  49.9515104
  77.4357367  71.0936594  49.3620396  77.2812510  69.6051073  49.5885992
  40.7577372  57.9419613  18.8922489  40.2584934  58.7331963  18.6899197
  40.7880211  57.9158735  19.8486137  73.6872387  27.8653288  56.3901758
  74.2639971  27.1682501  56.0776663  72.8053236  27.5035787  56.3030624
  47.8714561   3.6766687  58.8610744  47.9372120   4.5588064  58.4953690
  47.3708773   3.7891001  59.6691656  74.6701384  61.2814188   9.5732421
  75.3001785  60.9530830  10.2147055  73.8704491  60.7849598   9.7471702
  24.1484499  42.7080631  24.7584558  23.2391453  42.5105953  24.5339441
  24.6112871  41.8795300  24.6337724  17.6573777  42.2365713  13.3166671
  17.9885328  41.5026855  12.7989984  16.8802714  42.5326538  12.8426707
  20.5756688  13.9041936  47.7825403  20.7270980  14.2611003  48.6577082
  19.8379469  13.3043373  47.8928566  78.7861729  44.0272379  10.4453421
  79.6541452  43.6636639  10.2702141  78.9314318  44.6703482  11.1392713
  30.7370424  48.9572477  22.1123743  31.0586691  49.8586893  22.0984101
  31.0906839  48.5643816  21.3143611  23.7756395  71.0901213   1.9223028
  23.9295626  70.1836729   2.1885559  24.2500162  71.6133690   2.5683770
  51.2242031  25.4109311   0.8496302  50.8911371  25.9009290   1.6014266
  51.0035801  24.4993854   1.0410555  25.8286023   0.2275073  32.9679799
  25.6114888   0.6384699  32.1311975  25.0201464  -0.2082333  33.2377219
   7.4053442  34.0811467  52.8965950   7.2892261  33.6776710  52.0363855
   7.6627308  34.9830365  52.7053404  46.4066792  27.7043557   9.0701020
  45.7286263  27.3025537   9.6132660  46.5286493  28.5764313   9.4453883
  65.7802916  68.7411356  55.1596498  65.1194954  69.1892576  54.6316671
  66.5924644  68.8423538  54.6633053  50.1857710   0.9942029  36.3584590
  50.1996136   0.5105427  35.5325580  50.1968718   1.9149446  36.0970330
   7.8614563  13.6591089  42.9951906   7.9095995  12.7907586  43.3950472
   7.4582946  13.5071802  42.1404362  65.3757286  40.1175594  16.1646187
  65.1479912  40.6445980  15.3987229  64.5346689  39.8089671  16.5016925
  11.2313426  37.6333070  17.6199579  11.6607964  38.1933808  16.9733357
  10.2959037  37.7477598  17.4523711  36.2280798  14.0985346  44.9042463
  35.4526544  13.6247623  45.2050591  35.8872247  14.9283636  44.5704269
  45.2542162  21.3389707   9.5941877  44.6560383  20.6465936   9.8753077
  44.7064304  21.9368243   9.0855294  24.3325710  29.4352484  15.5713975
  24.0913582  28.5116220  15.6418657  23.5413098  29.9095845  15.8266330
   8.0641139  62.1010351  40.9447813   8.1219918  61.6583824  40.0980616
   8.6626315  61.6139174  41.5111113  70.6655407  40.6711149  42.7483130
  70.5862617  41.6235495  42.8013897  70.7383633  40.3857136  43.6590672
  25.3467441  34.5773697  19.6862173  25.5593848  35.3316474  20.2358365
  24.6792817  34.1014719  20.1804280  26.4248729   9.8796922  33.0056763
  26.6519666   9.0222692  33.3655190  27.0765400  10.0325048  32.3214173
  37.3552561   0.4064642  22.7486253  36.8739533   0.3898495  21.9213986
  38.2761526   0.3651739  22.4907970  11.5660799  25.3530669  48.4445953
  11.6118991  25.0459051  49.3500185  12.4790597  25.3987026  48.1606674
  58.2355070  53.2235718  44.6061897  58.8447618  53.8199472  45.0413609
  58.7751102  52.4763298  44.3479443  26.7597127  41.7669630   3.7647986
  27.2780204  41.6577244   4.5620799  27.2030663  41.2223053   3.1144014
   8.3260322  49.3418121  46.4329672   8.6639643  48.4709454  46.2240982
   7.5894356  49.4629383  45.8338118  69.6555185  28.7469769  28.9495659
  69.2071295  27.9324150  28.7222552  70.4450083  28.7448764  28.4083343
  45.3892136  68.5965347  13.6482310  44.8081541  67.8424025  13.5487986
  46.1211443  68.4142876  13.0589104  16.3584983  25.7333493  50.9775448
  15.5422378  26.0742235  50.6118155  16.8138921  26.5071774  51.3092613
  20.3386307  23.8463163   9.7571462  19.5905352  24.1991663   9.2753977
  20.2677178  22.8979445   9.6485317  28.4999561  61.9848871  61.2858486
  27.5560284  62.0063353  61.4432478  28.8790965  62.4329901  62.0419502
  55.7032394  22.1268272   4.4862387  56.3744259  21.6657066   4.9893406
  55.3483438  21.4626956   3.8953006  77.6217556   6.7470998   4.9604940
  77.3855877   7.6519233   4.7561634  76.8571329   6.3974738   5.4180390
  78.4042931  38.1654382  30.5002022  77.9922438  37.3787975  30.1429319
  77.6968908  38.8089967  30.5407739  29.3320227  62.9655743  63.6549091
  28.8912439  62.5828266  64.4134951  30.0185108  63.5172367  64.0299225
  79.3215179  52.8673553  10.6674731  79.8465776  53.4126186  11.2533343
  79.1201925  52.0865536  11.1832726  12.4989402  41.7811012  35.4538989
  13.4108615  41.9846916  35.2460957  12.0472038  42.6232672  35.3998542
  13.0046678  56.0027456  36.5122390  13.4589148  56.1769772  35.6878996
  12.3891926  56.7299604  36.6049004  54.8425293  60.5673933  58.3818579
  54.2056608  61.0423994  57.8480053  55.6694555  61.0258627  58.2327414
  12.7352476  60.5571556  59.7602415  12.0186353  60.2317762  59.2154217
  13.3533978  59.8276138  59.8036766  21.8641067  45.9982872  20.2282190
  22.3335981  45.1844501  20.0452542  22.3493719  46.3976145  20.9502220
  57.1730042  68.7639380  32.8194714  56.7229891  68.2955170  32.1164083
  56.4946079  69.3110991  33.2152343  50.3139400  25.8354998  33.1288767
  50.3771496  25.9968138  34.0702653  49.3951321  25.6083417  32.9859591
  23.2574534  54.2011595  42.2679567  23.9242935  53.6674452  42.7000475
  23.1089020  54.9314451  42.8686619  70.0590706  43.5827303  12.7645767
  70.6155872  43.3734798  12.0144188  69.8878288  44.5208168  12.6814842
  38.1480241  41.8113279  62.0641804  38.3913279  41.2545347  61.3245726
  38.8546753  41.6895962  62.6982594  39.1711950  70.4021120  21.3189936
  39.1076469  70.4532576  22.2727108  38.8435984  71.2472916  21.0114503
  63.1823874  58.4848499  57.2812414  62.3697424  58.8497162  57.6315451
  63.3057117  57.6676083  57.7640867  30.2745819  41.3489246  27.6880050
  30.9871459  40.7836342  27.9862165  29.9700522  41.7892170  28.4815001
  10.2986109  45.3932047  48.6887693   9.5411301  44.9598074  49.0819883
  10.2473021  45.1688814  47.7596426   2.6824191  17.9887629  26.9762325
   2.8990912  18.4760690  27.7711010   3.5276070  17.8249896  26.5578222
  60.9328604   0.9418473   5.3468871  61.0168409   1.8932158   5.4107434
  61.3375759   0.7214554   4.5079187  69.1381073  49.2347956  41.0748672
  68.5492706  49.9894190  41.0816860  69.7351646  49.3902636  41.8067026
  19.8098016  58.0313921  45.3079605  19.7827280  58.8437796  45.8134556
  20.6171083  57.6009607  45.5894136  75.9483099  33.7379670  26.3207746
  75.2441740  33.8223886  25.6778908  75.9969759  32.7991080  26.5007973
   4.6632722  16.9161928  60.8568716   5.4148281  17.4879193  61.0134745
   4.5808351  16.8846333  59.9037504  14.2591834  23.7155294  44.8361349
  14.0352952  23.1658554  45.5871105  13.8171613  23.3006310  44.0953875
  61.8675661  21.1024308  46.7085171  62.1912718  21.9970107  46.6028261
  60.9766388  21.1272955  46.3594341   0.1397998  53.8829374  35.0265455
   0.2914782  54.1402674  34.1171479   0.9087554  53.3627701  35.2597117
  60.4374266  72.9442930  57.0774364  59.7242832  72.9639959  57.7156115
  61.2329674  72.9060650  57.6083660  77.5244188  36.6837692  50.8968639
  78.0380201  37.3620129  50.4581928  78.1779194  36.0920382  51.2697220
  73.4565926  68.9894772  46.2022352  72.7852631  68.3537960  46.4501476
  73.6923838  69.4213247  47.0232964  66.4886761  37.0494986  57.1365595
  66.7552805  37.8008413  57.6663113  66.5151453  36.3083124  57.7416801
  55.9968185   7.6305073  23.6189628  55.5589390   8.4609324  23.8057399
  55.3928089   7.1662933  23.0393887   4.6218765  29.6061397  15.9240377
   4.0018442  29.6584058  16.6514027   4.0829396  29.3813419  15.1655889
  70.0562048  45.9182549  41.1375475  70.7752991  46.3731718  41.5759373
  69.9141073  46.4152670  40.3319263   9.7773457  59.2088747  33.3931923
   9.5349044  58.7006092  32.6191640   9.8582685  58.5586739  34.0909910
  50.6598759   0.2727273  60.4134703  50.1915550   1.0566522  60.7004690
  51.0078812   0.5035055  59.5521545   9.9143225  51.8522930  36.5477014
   9.0630847  52.1959686  36.8188334  10.1362598  51.2060690  37.2180510
  61.1322165   4.5069137  25.7879663  61.0941029   4.9480385  24.9393272
  61.1181736   3.5740733  25.5738544  31.4312458  12.0184386  45.3208971
  31.1306739  11.3236487  45.9066916  31.2961602  11.6654038  44.4414949
  46.4846134  61.2143421  21.3399959  46.7387247  60.9421349  22.2217894
  46.0095406  62.0350552  21.4702606   6.1419034  40.1612139  44.1116285
   5.5720168  40.8775187  43.8316822   6.2186128  40.2725267  45.0592327
  75.2375984  40.0296116  33.3284950  74.6068573  39.6869850  32.6952457
  75.0957918  39.5042992  34.1160035   3.0515596  45.8025265  14.0022457
   3.9629567  46.0581446  14.1445363   2.5604916  46.6217899  14.0646446
  66.6052341   6.4444482  54.2244911  65.7351875   6.6576809  54.5618057
  66.5021276   6.4538908  53.2729053  45.9783936  56.1893177  23.5549021
  46.5467310  56.5193558  24.2508173  45.7565069  56.9644928  23.0390477
  73.5700417  43.2649279  20.6654429  73.0003500  42.7507019  21.2375045
  72.9678535  43.7605095  20.1104665  75.5583906  36.1367536  18.6948705
  75.7442427  35.2857924  19.0918016  75.9731627  36.7700100  19.2806911
   3.3401483  17.9752648   9.1629893   3.2938662  17.4155915   8.3878398
   3.3553612  17.3638403   9.8993045   3.1441018  64.5296431  10.0375414
   3.5628942  65.2409792  10.5221534   3.8033435  64.2527676   9.4011682
  12.5673962  52.5594330  35.7689047  13.2850492  51.9436693  35.6204438
  11.8461907  52.0150661  36.0847449  38.7716746   6.8034083  41.6995239
  39.4425654   6.1510062  41.9007874  38.4674931   7.1059889  42.5551796
   3.1622696  57.4870062  30.7398415   2.9135901  57.1294212  31.5922070
   2.8361189  58.3868265  30.7532072  34.0849590  16.4288366  59.2244530
  33.3323908  17.0197499  59.2508316  34.6752453  16.7624712  59.9000883
  22.5762773  51.0715771   9.3097895  22.8360915  51.8834019   8.8742834
  23.1000233  51.0512257  10.1107323   0.4706162  38.6719918  46.8453455
   0.9681811  39.2841268  47.3875141  -0.0751751  39.2309642  46.2922668
  50.2276552  42.8650773   0.7835386  49.2784012  42.8790498   0.6612585
  50.3611649  43.2197208   1.6625354  12.6103461  46.1403084  39.5862699
  12.5820434  46.3872385  38.6618996  12.8996432  46.9334650  40.0373125
  14.4757891  43.8593912  14.8488355  14.9365354  43.4853697  14.0978014
  14.4148016  44.7939873  14.6512437  79.6833897  65.4640961  12.5295591
  79.3456602  64.9363279  11.8059373  79.1894722  65.1668501  13.2937050
  13.9913023  60.0404930  35.1413846  14.0423787  59.1804886  34.7242332
  13.2467699  60.4681063  34.7182393  76.0625792  51.1149597  39.4888639
  75.7855844  50.7152510  40.3133297  77.0102644  50.9824657  39.4649506
  76.0293245  39.4308209  52.8666258  76.3763952  39.7987604  53.6792707
  75.4641581  38.7125587  53.1510878  42.2274828   3.6987230  25.2654672
  41.5906239   3.4956092  24.5803475  42.9950047   3.1718701  25.0428319
  78.7922955  22.8884578  26.1535025  78.0595446  23.1398773  26.7157269
  78.6116123  21.9786835  25.9170794  49.8123598   8.0133224  13.3105123
  49.3835926   8.8469994  13.5038304  49.8319578   7.9700911  12.3544896
  65.0081921  66.7267656  49.5989466  64.4162846  66.9922829  50.3027773
  65.3396082  65.8720493  49.8743677  64.0246677  69.6812439  38.9625740
  64.0507555  69.9896622  39.8683500  63.2598877  69.1067171  38.9271188
  10.1039791  55.1866245  55.6542110  10.0736439  55.9483433  56.2330818
   9.4291699  54.5996189  55.9952259  10.3500199  36.0587835  49.4539881
  11.2487888  36.1702418  49.1441107  10.3568494  35.2178550  49.9111795
   7.7417344  48.0816984  54.2240763   7.9089165  47.4881554  54.9561882
   7.4050272  47.5160122  53.5291958  44.6517372  20.9141755  35.9459996
  43.7994385  20.7968426  36.3655782  45.2433205  20.3494787  36.4433742
  14.2337584  44.2705870   5.9405851  14.4101286  45.1220465   5.5404067
  14.4353282  44.3954325   6.8679547   2.5369942  35.0078678   4.1441867
   1.9996376  35.7786465   4.3268859   2.0797610  34.2884493   4.5796263
  69.0258169  59.6014071  26.0036755  68.8610840  59.2833662  26.8913388
  69.1826963  60.5395842  26.1106563  36.7335892   3.6402482  34.3307066
  36.9799042   2.7650142  34.0314984  35.8001471   3.5710150  34.5310187
   7.7394402  53.3972883  31.7867303   6.8900478  52.9921818  31.9618082
   8.3106387  53.0648232  32.4791384   4.4225845  31.1325526  29.2931652
   4.2779434  30.9762287  30.2263713   5.3409201  30.9028149  29.1513467
  58.2259321  44.4859123  53.8853550  57.2898340  44.6533155  53.9945745
  58.2797289  43.5532379  53.6768961  73.4157276  43.0631304  25.8369851
  73.4646130  43.9887619  25.5981421  73.5105371  43.0562067  26.7894530
  78.0353117  61.7056131  12.5528169  77.1546698  61.3913918  12.3479557
  78.2506371  62.3002291  11.8342769  74.1765785  50.0628042  37.5958109
  74.0386581  50.7577610  36.9521928  74.8174238  50.4261255  38.2069945
   7.6666236  60.7579947  17.4657059   7.3468012  60.5902815  16.5792418
   7.0517212  60.2940702  18.0339479  77.8411150  29.0304279  21.6452217
  77.9161072  28.3792043  22.3427272  77.0449209  28.7856722  21.1736250
  13.9400482   3.0912721  24.8457456  13.0403745   3.0561367  25.1706839
  13.9377820   3.8081232  24.2114353  29.3556428  68.3404589   8.5347849
  28.9524055  67.4892187   8.7051457  28.6344743  68.9657593   8.6065066
  75.6318474  35.7622552  23.1914449  75.1858759  36.3993216  23.7495565
  75.0273466  35.0216770  23.1429672   5.0627977  55.9683323  38.1689167
   5.4294437  56.0975742  37.2942185   5.5477124  56.5786266  38.7244582
  75.2761889  65.9882355  38.4916568  74.8756838  65.3670835  37.8833818
  74.5405293  66.3424492  38.9912271   8.7875509  38.0857778   0.4962664
   8.3629662  37.2832036   0.1932302   8.1260908  38.7670159   0.3753632
   1.5800481  40.8584833  60.0073385   2.3810831  40.4811478  60.3709221
   0.9476019  40.8144712  60.7244921   6.1816961  66.3309574  30.2138686
   6.5294975  66.9745445  30.8311701   5.2314287  66.4002323  30.3056550
  37.5150895   7.4404740  43.8982296  36.9099879   6.7005175  43.8477421
  37.7966166   7.4576777  44.8129272  72.7052069  39.8413801  49.7186184
  72.9243374  40.4428387  50.4302788  71.7482853  39.8351049  49.6964169
   5.0801504  56.0766268  42.0789576   4.7592726  56.3741302  42.9302883
   4.5205563  55.3318357  41.8590164   8.6799425  65.0073338  42.8138065
   9.3117172  65.6683350  42.5306559   7.8308028  65.4443789  42.7491188
  57.9855490  21.8354988  63.6293221  58.6164093  21.4392447  63.0282974
  57.2877789  21.1849093  63.7072945  46.6867495  53.5787344   6.9843334
  46.7576838  52.6308870   7.0974141  46.6784573  53.7068224   6.0357791
   6.3487345  43.8099575  13.3071589   7.2206783  43.9546013  12.9397011
   6.4535499  43.0511045  13.8810813  29.4871521  30.8914447  13.2292938
  30.2066040  30.5614686  13.7675643  28.7131500  30.4336214  13.5572422
  16.6756427  40.2067375   1.9652398  16.9563866  39.6902657   1.2098110
  16.7541981  39.6075559   2.7075639   1.7936081  47.4465990  26.4404297
   1.0134947  47.7411747  26.9104075   2.3851289  47.1390295  27.1272588
  50.8162928  31.3152194  61.0518551  50.0187206  31.0177374  61.4895916
  50.7666969  32.2704887  61.0869360  78.2149029  32.4312139  56.6035700
  77.7580547  32.0085120  57.3307896  79.0127373  31.9148374  56.4893770
  59.3685007   7.5863874  32.0011330  58.7790871   7.5518620  32.7545452
  59.4511843   6.6752177  31.7197680  39.2783380   3.7372035   4.5493338
  39.6094990   2.8871194   4.8390266  39.3258286   4.2909688   5.3286415
  31.6805673  54.7176313  16.8952608  30.7730961  54.9135637  17.1283746
  31.6377020  54.4363785  15.9813190  71.4523029  42.2309923  17.2415435
  70.7307959  42.2367430  16.6125536  71.7530012  41.3223171  17.2527993
   2.6232493  56.9752932  48.8932085   2.9895270  57.8349257  49.1008282
   2.1012530  56.7453623  49.6618938  79.7021046  44.1751432  55.6086874
  79.6065350  43.5402536  54.8987532  79.3057785  44.9770164  55.2678633
  27.1649075  53.2766056   3.2944232  28.0412197  53.4311628   3.6471501
  26.9020581  54.1207409   2.9275817  26.4477134  62.8683662  17.7773535
  26.2897372  63.7464142  18.1242156  25.6939125  62.3560810  18.0698895
  23.9019608  68.7642956  22.9300404  23.0301452  68.6033440  23.2909608
  24.5026875  68.4499502  23.6057258  70.0019264  20.4974961  28.0731893
  69.2657661  19.9067044  28.2321358  70.6408548  19.9626601  27.6020765
  75.4990959  69.6864462  39.0981007  76.2040567  69.2389154  39.5660520
  75.8320284  70.5721903  38.9537168  78.0106211  52.7037668   4.2649263
  77.7322388  51.9876623   3.6940280  77.8063059  52.3986292   5.1488829
   5.1297730   7.7635610  25.5762267   4.3151477   8.1487536  25.2533579
   5.7141519   7.7688175  24.8181319  12.7732944  39.2327642  63.0423689
  12.6646018  38.3308887  62.7406406  11.9100833  39.6298075  62.9263735
  51.2510204  10.5913043  55.7850647  51.9321823   9.9399400  55.6178093
  51.3937521  11.2636089  55.1188326  16.7711902  37.8155923  34.7899747
  17.1456206  37.9781556  33.9241767  17.0493793  38.5654402  35.3158736
   2.8510487  13.2088745  15.2581465   2.4434115  12.5320566  15.7985008
   2.1861136  13.4265709  14.6049237  25.1337600  53.2286024  44.3624783
  25.5726123  52.3912144  44.2127514  25.8316636  53.8164282  44.6516609
   5.5087858  37.9000449  60.8919334   4.9331588  37.8666019  60.1278877
   5.4838699  37.0125341  61.2496138  18.4549034  26.3875341  45.8977747
  17.6175678  26.3490915  46.3599682  18.8961399  25.5713844  46.1332321
  60.7869720  66.2333202  36.8052077  60.1646519  66.5816498  36.1667585
  61.4451170  65.7820654  36.2765813   2.5814125  39.4997334  35.2828956
   3.5089365  39.2635226  35.2945065   2.5492960  40.3199959  34.7905827
  18.6308014  50.8197927  25.8673739  19.3103838  51.4840364  25.7525897
  19.0848875  49.9874163  25.7362485   7.9836184  43.3411741  25.2583742
   7.7869928  42.6737547  24.6010160   8.5476512  43.9665842  24.8034430
   7.1938533  47.1466732  15.7791698   6.7685831  46.2995529  15.6458914
   7.0197421  47.3605013  16.6957903  12.4953794   3.5057485  43.8335562
  13.3999658   3.7205589  43.6059332  11.9729710   3.8956583  43.1326342
  47.4320030  75.0824881   1.4317666  47.9713821  74.2926931   1.3927786
  46.5426683  74.7739840   1.2581401  20.9866738  64.1992998   1.5157516
  20.1204538  63.9172649   1.8096051  21.5601516  63.4595490   1.7160589
  76.4366770  46.1569262  11.2078035  75.5913162  46.3999319  11.5853584
  76.6585445  45.3275871  11.6311312  18.8843751  53.2915258  56.6647434
  19.8360550  53.3781576  56.7198277  18.7372100  52.3578644  56.5136003
  71.9992352  47.0047235  48.6702299  71.1633253  46.9115496  49.1271830
  72.5411129  47.5227642  49.2654037  55.2537012  38.0964446   3.0424005
  54.4139910  38.2817650   2.6219553  55.5750990  37.3110366   2.5996053
   2.6200408  67.6714420  36.4937782   2.5019369  67.3464394  35.6012225
   1.9939777  67.1699667  37.0160794  17.6194668   0.2510308  58.4171152
  17.8567624  -0.2065520  59.2236805  16.6623974   0.2658111  58.4228325
  20.1833797  72.4958467  27.8135133  19.5185781  71.9978380  27.3378468
  20.2104855  72.0916653  28.6807704  58.9942980   1.2172924  29.1062546
  59.4335079   0.5076357  28.6375141  58.0971193   0.9059401  29.2260790
  62.7868700  61.0087156  59.3031025  63.6405230  60.9653950  58.8722563
  62.4140930  61.8412209  59.0129185  76.4252138  50.5570555  54.0372753
  76.2681770  50.7945013  54.9511623  76.1325026  49.6480274  53.9722967
  36.8501830  15.7113397  58.5144806  36.3167262  14.9329996  58.3537197
  37.4478245  15.4514730  59.2155695   7.0522833  44.5639324   8.9429587
   6.4144677  45.1817703   8.5856098   7.1723670  43.9155340   8.2491356
  48.4578562  64.4294071  34.9163985  48.2426023  63.6258650  35.3899097
  47.6867533  64.6031570  34.3765426  26.8667626  70.3420353  25.4073977
  27.3920965  71.0500669  25.7801604  26.3111019  70.7725716  24.7576952
  32.6796627  34.4035149   9.4828719  31.9339132  34.7429991   8.9880610
  33.1230593  33.8136315   8.8732260   6.0733813  69.3423796  27.7781010
   6.5767038  68.7563038  27.2129393   6.7351311  69.8146009  28.2833982
  26.8479872  67.2066021  47.2062778  26.6496944  67.1350956  46.2725782
  27.3407769  68.0234575  47.2846031  56.1429834  61.6812563  50.6376648
  56.2253428  61.1879635  51.4538240  57.0108986  61.6287231  50.2374268
  65.5385685  54.5322895  47.9842377  65.0909376  54.2242575  48.7722588
  65.2887344  55.4534388  47.9114580  65.5216122  23.8079882   5.3508312
  65.4205942  24.7135448   5.0575840  66.4681625  23.6670947   5.3714675
   0.0846413  50.3958321  37.7210784  -0.6612213  49.7991228  37.7832174
   0.6964834  50.0847340  38.3882380  41.2718296  70.7297182  42.0364809
  40.6799889  69.9861288  41.9222879  41.0780859  71.0573673  42.9147387
   7.8419757  53.6341095  53.9816475   7.4522090  52.9367733  54.5089388
   7.0978844  54.1674566  53.7021732  36.3635516   7.7163970  63.2847691
  36.8033838   8.2345873  63.9587593  35.7614565   8.3308750  62.8650951
  76.6121292  51.4848995  20.0371528  75.6874847  51.2546682  19.9462426
  76.6776943  51.8727827  20.9097791  11.3180935  44.0362120  14.5898652
  12.2636175  43.9903593  14.7316909  11.0363865  43.1220341  14.5559108
  76.3292456  52.3897362  58.2975531  75.3946066  52.3137140  58.4896517
  76.6499186  53.0405903  58.9218855  14.3190849  40.2819633  25.5943680
  14.4803381  39.4998693  26.1221528  15.0358629  40.2948666  24.9601030
   4.9521911  73.2794476  64.4531488   4.8088890  72.6056576  63.7885427
   5.3223199  72.8060627  65.1982307  14.1223514  61.1534882  37.6983261
  14.9064982  60.6833124  37.9816556  14.1124260  61.0510731  36.7466712
  58.8539362  15.7933366  11.8654621  58.2545328  16.3171685  12.3970127
  59.5731020  16.3897634  11.6573620  16.1977553  50.7007360  20.9411931
  15.6435633  50.0301361  21.3404369  15.6320906  51.1265993  20.2970672
   9.7572690  42.0794821  45.6262541  10.1530790  42.8913403  45.3093100
   9.6995777  41.5222263  44.8501253   3.1878564  70.6427193  25.1278996
   2.4608015  70.5049992  24.5207286   3.6175138  69.7892475  25.1845789
  71.3119936   4.6272343  53.0576038  71.3974571   5.5254728  53.3771276
  70.4545355   4.3414667  53.3727837   0.2125192  41.9361210  42.8892088
   0.8712740  42.2042656  42.2486019   0.1410225  42.6814461  43.4855413
  57.6613140  17.9796970   9.0552634  57.5720119  18.8936794   9.3252498
  58.1328011  17.5620210   9.7760117   5.7362413  50.0114679  19.3366802
   4.9961182  49.7124481  19.8649216   6.4391005  50.1571560  19.9699235
  32.4602103  39.1319799  28.4891915  32.1696472  38.2507992  28.2539797
  33.2163692  39.2934346  27.9249310  28.8634157  73.4446430  21.1533594
  28.8362622  72.6141930  20.6781268  28.6484981  73.2109785  22.0563769
  66.1139774  27.7039361  60.2397060  66.3057041  26.7720914  60.3452682
  65.1583099  27.7501464  60.2115440  69.1421509  52.4325991  51.2263203
  69.6315145  52.7698326  51.9766760  68.7853003  53.2132435  50.8026695
  71.4410925  33.7779713  60.5516911  71.2195253  32.9689956  60.0905037
  72.3780346  33.8945079  60.3942442  13.6622679  69.3064070  33.3300161
  13.4825468  70.1994801  33.6238790  14.2632389  69.4132519  32.5926900
   0.5362994  38.3210897  64.2453718   0.5227222  38.5082984  65.1839876
   0.2972924  37.3963714  64.1820955  21.9488645  27.5389194   8.1759566
  22.6824093  27.8100324   7.6240140  22.2251272  26.7008448   8.5468239
  47.8087759  17.9110134  54.4950819  48.6508989  17.4561810  54.4813251
  47.2966194  17.4467874  55.1572180  60.5795383  19.9714625  30.0821996
  60.6664944  19.2012930  30.6439042  59.7319984  19.8594475  29.6516657
  20.2124310  63.3240414  20.2355671  20.8682275  64.0184879  20.2980685
  20.0372672  63.2437038  19.2979658   5.9792590  71.9437838  39.5085859
   5.9369814  72.2020531  40.4293156   6.2298149  72.7438402  39.0466738
  40.6746149  11.8772459  37.3370671  40.9051800  11.2645113  38.0353713
  41.2407541  11.6308451  36.6056252  75.1897287  69.0597677  24.3735790
  74.9780226  68.9587498  23.4455657  75.5957556  68.2282734  24.6185064
   0.0163836  17.8511572  62.8486681   0.2168487  18.0222249  61.9284630
   0.8717836  17.8070855  63.2759666   4.7268352  61.4392519  49.1824102
   4.0006015  62.0590353  49.1139698   5.5117506  61.9782352  49.0842342
  30.6309009   2.8760651  44.4663286  30.9724212   3.7659970  44.3790531
  30.2678418   2.6732266  43.6041927   7.9219079  40.6730700   9.5647174
   7.5949758  40.9309244   8.7028253   8.5688376  41.3430357   9.7857577
  53.2416582   1.0206372  32.7542019  53.1969404   1.8388857  32.2595286
  53.0789995   0.3380057  32.1032119  78.1092024  73.7375641  35.8828497
  78.3609629  74.4653988  36.4512706  78.9130020  73.5091352  35.4159951
   8.0266416  54.7905874  50.8490372   8.1719345  54.2986250  50.0408983
   8.4292763  54.2539644  51.5317917  51.7398453  32.3767757  38.4977484
  50.8958244  32.4800897  38.9372802  52.0616817  31.5254664  38.7942696
  46.7980146   8.6525887  57.8015137  46.6584873   9.5204031  57.4224854
  47.4688673   8.7885094  58.4706306  78.9907837  56.1986113  41.7880535
  79.0699816  56.8735266  41.1139297  79.8342943  56.2116861  42.2403288
  66.5986443  25.1540995  22.5618982  67.4459219  24.7968125  22.2960067
  66.0201025  24.9755406  21.8205237  67.2388220  45.7309246  37.4653721
  67.7134371  44.9873352  37.8369164  67.6801491  46.5005207  37.8247881
   4.6045622   0.9845180  23.9192605   5.5430943   0.8746202  23.7665772
   4.4464532   1.9178130  23.7771559  15.8122349  18.2288468  62.9895592
  16.5633404  17.6761949  63.2055426  15.9603953  19.0369833  63.4806776
  63.9285755  50.8296824  62.8997183  63.6628199  50.8349085  63.8192701
  63.3269119  51.4397526  62.4730492   1.2464614  19.0197706  42.4704647
   0.3042953  19.0203822  42.6394463   1.3300401  19.3569338  41.5785170
   3.7680218  43.1830454  39.4936061   3.8589945  42.6963997  38.6743808
   3.7401074  44.1013241  39.2248678   0.5555717  40.2079153  32.6510191
   0.6205945  39.4657969  33.2520747  -0.3512899  40.1897240  32.3452377
   7.2301799  74.2289305  47.7580929   7.1291494  73.7979174  46.9094181
   8.0838287  74.6590710  47.7081585   9.3464065  73.2366753  45.3875637
  10.2746582  73.0244064  45.2899742   8.9083272  72.7074146  44.7210789
   1.5293576  66.1419439  44.6541071   1.6364044  65.4224777  45.2763128
   0.7155661  66.5698051  44.9203968  68.6532021  43.6170959  38.2699823
  69.5781755  43.3847046  38.1884503  68.1993198  42.7764034  38.3288383
  40.6449986   8.1074935  47.7553606  40.3863001   8.0574793  48.6755800
  41.1724663   8.9041734  47.6978064  32.4782491  61.4049101  61.6603994
  32.6238918  61.3682127  62.6057434  32.2793579  60.5017519  61.4134645
  40.5016375   0.3760546  53.8202381  41.3878632   0.4710311  53.4712172
  40.4809141  -0.5092644  54.1835690   9.0651935  72.0121002  36.6248941
   8.5921496  72.5051928  37.2952080   9.7121060  72.6301813  36.2847328
   6.3525003  66.3723040  56.4082336   6.4537162  66.5167093  57.3490524
   5.4115361  66.4545774  56.2531567  45.1982307  33.7284231  64.5953369
  46.0748434  33.3492684  64.6587563  44.8620605  33.4153891  63.7555552
  70.0835991  67.4639750  58.3597755  69.8443365  67.9511690  59.1482067
  69.9234676  68.0765295  57.6418829   5.9027588   7.9146922  38.5324001
   6.6865665   8.3901078  38.2569790   5.2423906   8.5956085  38.6608505
  19.9140728  68.7131977  46.2620831  19.2703938  69.0840721  46.8657064
  19.3895948  68.2680893  45.5964804   4.7389060   4.2941254   0.6010241
   5.3580821   3.9000404   1.2154751   4.7880912   5.2330542   0.7805383
  23.1619239  14.6437097  40.1618814  23.4163618  15.5145359  40.4670954
  23.1479263  14.7189438  39.2077446  34.6998739   6.0634321  53.5760069
  34.8139977   6.8808186  53.0911493  33.7512708   5.9472132  53.6296415
  73.3555126  41.8552637  41.8038893  73.0131817  42.4703836  41.1553001
  73.4249163  42.3693752  42.6083136  73.5679817  74.1151524  39.2579269
  73.3362818  73.1942892  39.1372609  73.5492325  74.2445803  40.2061510
  16.5690160  64.3928909  40.5722666  16.0539746  64.6828508  39.8193455
  15.9467971  64.3856525  41.2996054  56.5294504  57.4213123  18.9679646
  56.9258928  57.3727465  19.8378539  55.6118345  57.6367950  19.1346347
  79.3519497  48.0896044   6.3052058  78.8449764  48.7362623   6.7961609
  79.5692396  47.4160957   6.9497252  73.7810230   9.2795330  26.8759918
  73.9326143   8.3563823  27.0785832  73.8164949   9.3240112  25.9204841
  13.4471893  63.2641554  18.6461341  12.5494576  62.9666471  18.4984946
  13.4087241  63.7387609  19.4764972  34.8390341  63.8234663  63.2370806
  35.2022076  64.6775579  63.0028343  33.8964438  63.9748955  63.3065367
  78.9654255  35.4532456  19.6852648  78.6975861  35.0773740  20.5238438
  78.7668705  34.7718239  19.0430260  17.1431315  57.9442835  44.7030210
  18.0965900  57.8648567  44.7320080  16.9864154  58.8279819  44.3702316
  79.6132708  60.2235794  51.0690689  79.6197557  59.5626593  50.3767014
  79.3541861  59.7437811  51.8557739  42.2311974  18.1794024  12.7812445
  41.4446688  18.1578290  13.3263481  42.4888849  19.1011834  12.7689576
   6.9512707  67.0709515  47.4663687   6.2001526  67.6326704  47.6574802
   7.3470235  67.4577284  46.6853333  14.0230942  63.9001894  24.2638278
  13.0870593  63.9141846  24.4635201  14.1416895  63.1169224  23.7265515
  26.6581416  60.8113098  21.4436173  26.7541242  60.5722284  20.5217409
  25.7682490  60.5408239  21.6698027  34.5785904   6.1430299  33.9422941
  35.1225615   6.9303501  33.9636660  34.7643828   5.7465762  33.0910969
  11.1727107  22.5447083  62.4485826  11.4982867  23.4270883  62.2707129
  11.9168234  22.0898533  62.8430891  20.4307652  60.7449627   7.3530602
  20.6083369  61.6564083   7.1207446  20.8489776  60.2351046   6.6592485
  44.9933195  11.8156540  18.3866894  44.1099930  12.0567787  18.1077194
  45.5401039  11.9787574  17.6181471   9.7839773  64.3619823  49.9476242
  10.6440055  64.5737886  49.5846891   9.9459922  63.6199570  50.5301857
  30.4149723   9.7705638  46.6083288  31.2111473   9.2439634  46.6792393
  29.7019029   9.1452485  46.7377281  67.7170515  69.6885490  13.4791398
  67.9292393  70.1159430  14.3089259  68.5326242  69.2640257  13.2129562
  10.8872163  72.2190619  34.2959666  10.6654191  71.7292833  33.5040379
  11.8372869  72.1318197  34.3733335  78.4302568  44.9099874  37.2795296
  78.5894871  44.2695427  36.5861988  77.5184488  45.1741266  37.1567965
  79.7750636  53.2218552  23.6114550  79.1753195  52.9997587  22.8992677
  79.6236520  54.1535568  23.7703156  73.6208200  52.8090668  52.8881598
  73.5655975  52.3061562  53.7007236  73.8562918  53.6932468  53.1692553
  18.0956876  65.8853102  51.8833256  19.0408540  66.0089064  51.9705963
  17.7199173  66.7308187  52.1285629   5.0327063  54.8687124  17.9743874
   4.5450544  54.9239397  17.1525741   4.7491691  54.0426350  18.3660901
  57.6004457  64.8536539  46.4278889  57.5592756  63.8977528  46.4559746
  57.4665499  65.0721645  45.5056334  38.8537049  48.7903357   6.2411690
  39.1553640  48.4642220   7.0890397  39.5592213  49.3628263   5.9399545
  27.4596167   9.2032379  42.4940348  27.4758458   9.8278475  43.2191753
  26.9583344   8.4599280  42.8293514  61.4839172  27.8094459  18.1867075
  61.9034958  26.9658756  18.0176640  61.4913368  28.2547021  17.3394036
  10.3872871  45.3192663  41.4692688  11.1657476  45.6833982  41.0478020
  10.7305813  44.6900988  42.1037197  53.9641142   9.5826119  24.6044278
  53.3331633   8.8821447  24.7701955  53.4920740  10.3865016  24.8216081
  56.5780973  52.2630405  23.7777352  55.7065821  52.5023603  24.0930367
  57.1114635  53.0425072  23.9332485   4.2839482  49.4748831  46.2440586
   4.2402384  50.4072905  46.0320663   4.6244067  49.4482708  47.1382666
  59.3903351  57.7027321  18.4008324  59.6658564  58.5806704  18.6645424
  58.5945845  57.5392628  18.9070868  30.4825974  73.8213110  53.9181042
  29.9054909  73.1290388  53.5957098  30.4609084  73.7270689  54.8704052
  34.5111108  48.9082098  13.3559608  34.4152164  48.2517576  14.0459621
  35.4419446  48.8879347  13.1337738  77.5162506  35.4400015  58.3863688
  76.9025230  34.8514938  57.9467916  78.3805084  35.0907302  58.1688690
  10.9905910  67.5687408   5.9966284  11.4810371  67.4392557   5.1848847
  11.5887773  67.2811794   6.6863471  20.0461555  64.4789553  43.4833956
  20.0158930  63.7328672  44.0822840  20.1646662  65.2388573  44.0532541
  10.0910389  57.4827194  43.5784149   9.9292290  57.3664045  44.5146370
  11.0315752  57.3360395  43.4778690  18.8467646  73.4401178  54.7618580
  19.0517390  72.6820135  55.3091240  19.4080830  74.1380644  55.0995350
  20.1512051  63.3110380  13.3383560  20.3882885  62.8571463  12.5296474
  19.7000730  64.1027403  13.0452454  27.5178862  19.7613239   6.1597776
  28.1986666  19.4797790   6.7709261  27.9941225  20.2084732   5.4601431
  29.3867421  61.9339991   6.9816774  30.2655864  61.6747141   7.2585124
  29.2952466  61.5685606   6.1017257  62.7441788   4.4055936  33.1884766
  61.9543123   4.8341009  33.5182095  63.2385206   4.1762534  33.9754081
  59.3256283  71.3856363  50.3113699  58.5379553  71.6612148  50.7802582
  59.3520689  70.4355955  50.4251909  29.9206066  55.6790209  62.0858765
  29.0619564  55.3283739  61.8492365  30.3649139  55.8101273  61.2482452
  66.0645342  55.8876514  51.3916111  65.1530123  55.7667589  51.6576052
  66.1549044  56.8326426  51.2688971   4.3954235  52.4797106   7.8749067
   3.6990333  51.8999147   7.5665033   3.9569855  53.3147192   8.0384952
  15.0362277  52.0759916  39.8165870  14.4690740  52.5772953  40.4024744
  14.4584584  51.4191961  39.4279623  33.8763809  66.1328793  59.9231291
  33.9061809  65.1978016  59.7207117  33.1284952  66.2264967  60.5131626
   8.4405059  45.7870960  34.4840407   7.5806367  45.6686926  34.8875713
   8.2603204  45.8315802  33.5450077  15.7178092   1.4555308  23.9392686
  15.7784796   1.6430767  23.0025840  15.1082540   2.1122381  24.2760324
  19.0807581  66.3792706  17.1535015  19.5101464  65.5347538  17.0169294
  18.1686616  66.1568117  17.3401153   1.2784448  64.2483473  27.2904658
   1.2403063  64.1913605  28.2452059   2.1386205  63.8949871  27.0636058
  21.0020471  53.1188297  25.6955624  21.3175631  52.3647261  25.1975513
  21.0132384  52.8257895  26.6067338  69.1835785  24.0378046   8.0805004
  68.4693003  23.8724494   8.6958873  69.9791527  23.8838434   8.5899991
  46.7935228  22.1202779  24.3556261  46.0952473  22.7471256  24.1666818
  46.3355207  21.3011956  24.5442200   9.4602150  64.1001511  27.7347398
  10.3147876  64.2555428  27.3325086   9.3233579  63.1566286  27.6494431
  28.2259059   1.4438976  58.2680655  28.1036282   0.8220703  57.5507021
  27.3686409   1.8555765  58.3769226   8.6298752  55.5640316  58.0825329
   8.7563062  56.4813375  57.8400612   7.7570009  55.3477287  57.7546072
  25.3894472  61.2053537  56.0216951  24.5141172  61.5926170  56.0291147
  25.9230351  61.8095350  56.5379143  22.4657583  62.7055645  34.0252852
  21.5234160  62.8232288  34.1451788  22.5398922  61.9683456  33.4192729
   0.9443344  46.8293095  38.1299782   0.3557438  46.1714554  37.7598119
   0.6063182  46.9839001  39.0120649  19.6328807  56.6842651  42.6576042
  19.9998748  57.1634102  43.4005451  19.5163476  55.7914257  42.9824018
  70.5936575  17.1677542   6.2787610  70.7708979  16.6383934   7.0563185
  69.7627068  17.6028919   6.4695662  55.4956150  30.1894665  11.1015022
  55.3574276  29.3478799  11.5360951  55.6266928  29.9646783  10.1803505
   6.7827153  68.1007290  21.0526419   6.8700862  68.2418442  20.1099420
   6.8303031  68.9784145  21.4316320  12.1809638  60.6587982  42.2268200
  11.2297916  60.6780672  42.1213055  12.4095058  61.5467787  42.5015736
  46.4109898   0.3097788  18.6906064  46.1270905   0.3550452  17.7775991
  47.0152712  -0.4320963  18.7170267  54.6682787   3.3194250  61.2300730
  53.9098024   3.9032772  61.2378502  54.9315596   3.2810324  60.3105974
   3.3915278  74.4703531  43.2983685   3.0227485  75.3298950  43.0948448
   2.7356386  73.8478851  42.9843998  60.6743670  12.6214886   0.2812679
  61.2143564  13.2588422   0.7486239  61.2997866  12.1033537  -0.2253029
  12.0449114  28.3996582   2.8476644  12.8395331  27.9365659   2.5824189
  12.2122014  29.3135953   2.6175225  47.2833252  21.8258071  34.0932298
  46.3560295  21.6799021  34.2805052  47.6271057  20.9552050  33.8929939
  72.6134205  70.3576517  52.0452833  72.9953337  71.2319517  52.1225452
  73.3146811  69.7651625  52.3162556  79.2594385  53.1849051  48.6705828
  79.8185587  52.6258659  48.1310511  78.3711195  52.8726435  48.4984875
  19.7742784  65.2569294  38.4639454  19.2648447  66.0494947  38.2949686
  19.7745681  65.1711082  39.4172907  25.1740003  49.4353342  60.3931332
  24.6128106  48.6875296  60.5982780  25.0923395  49.5432472  59.4455481
  35.2359509  10.0315249  49.9350595  34.6998525  10.7507336  50.2690744
  34.7679734   9.2401773  50.2015114  71.8154478  66.8986320  54.7789669
  71.1836147  66.3637829  55.2595520  72.0431232  67.6032925  55.3854752
  61.7274761  11.5224993  39.0457726  61.5015602  11.4711666  38.1170344
  61.4181709  10.6947005  39.4136190  56.9893312   6.3348246  30.8799767
  56.5190887   6.3506830  31.7135572  57.6823711   5.6871545  31.0082269
  76.7611122  72.0423889  37.7508640  77.1719408  72.4784613  38.4973836
  77.3640633  72.1943951  37.0231438  18.1552827  45.3763723   6.7678928
  17.3987806  45.8543110   6.4280248  17.8256810  44.4932270   6.9341856
  39.2221665  -0.0248783  50.9812164  38.9445114   0.0284549  51.8957043
  38.9439535   0.8067632  50.5975437  16.9484031  36.9707799  11.9383156
  17.8996170  37.0593119  11.9981945  16.7901909  36.0297942  12.0141101
  66.6228151  72.4275684  10.8152246  65.8597898  72.0978069  10.3405857
  67.3201513  71.8048477  10.6098604  61.7761278  67.7267361  41.9190216
  61.8416405  68.4360600  41.2796450  62.5183916  67.8652430  42.5073099
   2.3919758   3.9020506  62.6279688   3.2932636   4.2050397  62.7380133
   1.9997737   4.5317441  62.0230770   1.6309762  63.5918999  30.0316000
   1.0972141  64.1768456  30.5693436   2.5338137  63.8287830  30.2437377
  49.2847538   1.8366466  48.1599951  48.8358164   2.6428646  47.9056311
  48.6922407   1.4197083  48.7855530  33.8490033  12.7060008  42.5633907
  33.7377501  12.4531698  43.4798670  34.7961831  12.6964676  42.4255848
  50.8573961  18.3692789   1.9306174  51.2033510  17.5112343   2.1761939
  49.9192524  18.3098865   2.1111399  52.7948475  14.3430352  14.4824278
  52.5834703  13.5090089  14.0629625  53.7516022  14.3671978  14.4988096
  13.4133351  49.0614557  62.5927925  13.4800315  48.8467503  61.6623688
  12.6316857  48.5960627  62.8905630  32.0394182  37.1577477  64.4672489
  31.5258813  37.5969887  65.1451731  32.6869321  37.8090739  64.1975594
  53.7604380   2.3843031  56.7013454  54.0545893   2.3091714  55.7935667
  53.0248117   2.9956597  56.6649294  25.0839186   3.6310005  13.0094206
  25.1816392   3.2440829  13.8794649  24.1407681   3.6189091  12.8464711
  26.5398479  63.6408281  57.5947952  26.0059524  63.6042976  58.3884287
  27.4341393  63.4892035  57.9005527  62.3846340  17.9975784  53.3674526
  62.3590040  17.1538389  53.8187599  62.1698761  18.6383915  54.0452957
  62.6584053  54.8382902  40.3257704  63.4754038  55.0196791  40.7903576
  62.9274082  54.3409348  39.5534301  50.0339699  22.8291321   3.4110057
  50.5336905  22.3181105   2.7743226  49.4017696  23.3170414   2.8832754
  72.3647738  74.0131903  54.7238398  72.7941275  74.5857668  55.3594875
  71.6511536  74.5427799  54.3681479  75.0416517  62.9010868  44.3838549
  75.4472637  63.7669039  44.4293213  74.3548632  62.9927206  43.7234306
   4.4328487  31.2150240  11.9278800   3.6493129  30.9476948  11.4474225
   5.0588727  31.4614654  11.2470031  25.6440735  73.9423561  43.1774426
  25.0322676  73.6143970  42.5183725  26.1013699  73.1614542  43.4893751
  15.6696105  60.3973150  25.4908061  16.0736537  60.4657459  24.6257639
  15.3177190  59.5076609  25.5210948  37.9248881  71.3513279  10.3355289
  36.9784069  71.4933348  10.3201675  38.0602574  70.5796432   9.7856057
  10.4193389  54.1561794  62.5967741  11.2141871  53.6494112  62.7630091
  10.6138015  55.0271416  62.9429531  29.5236969  62.4573803  26.3000035
  28.5669303  62.4859381  26.3035727  29.7861362  63.1454420  26.9114995
   7.3844737  26.6435313   0.7963445   8.2334673  27.0824289   0.7433335
   7.5845927  25.7175422   0.6594993   8.1189615  52.5957394  17.5979829
   7.8681672  53.2932711  16.9923568   7.4616182  51.9132280  17.4626601
  74.7845030  72.0191622  28.0080175  75.3811169  71.7279720  27.3184562
  74.3634415  71.2163115  28.3152151  69.6049738  41.0866690  23.9407754
  68.7141180  40.9178734  23.6339974  70.0524664  41.4616871  23.1822610
  21.5127563  72.2867632  41.7052984  22.4490261  72.3531866  41.5176296
  21.2820888  73.1379700  42.0774126  37.9231787  72.7379465  31.7747664
  38.7733817  73.0916548  31.5134645  37.7142859  73.1941080  32.5899434
   7.8761458  71.3957596  14.3718386   7.0043600  71.7907429  14.3862855
   7.9791468  71.0754442  13.4757245  79.4065441  33.0518079   9.5156246
  79.5475328  33.9898348   9.3873209  79.1523420  32.9713535  10.4349399
  61.3361120  35.8859730  13.0037725  60.6257200  35.4723954  13.4942102
  61.5077496  36.7022610  13.4732866  44.8882484  74.7649384  17.5665808
  44.1856098  75.1186848  18.1119204  44.4435024  74.4408560  16.7833781
  65.6001282   9.8208702  26.5165806  66.4481306   9.4071883  26.6778016
  65.5247736  10.4869080  27.1999168  41.9674778  74.3821239  43.2326460
  42.1493387  75.0451946  43.8986015  41.6540289  74.8804045  42.4778652
   3.0929610  74.1477537  15.3052020   3.9372247  74.1893339  15.7543373
   2.6159123  73.4510136  15.7559907  69.5304537   8.8888031  33.9783144
  70.1466036   8.1564003  33.9914727  68.8960266   8.6804223  34.6641111
  11.0569465   2.7589396   4.2171296  10.9896076   3.6838943   4.4541028
  11.8748569   2.4674201   4.6199575  76.1489487  39.2236233  17.6633024
  76.7844915  38.6656237  18.1115806  76.6740799  39.9291968  17.2856379
  57.1585083  59.3215418  36.5890718  56.7817163  59.2589283  35.7113838
  58.0817127  59.0985870  36.4698529  55.6980801  11.1749148  60.1190090
  55.9375620  11.8388677  59.4724464  54.8085403  11.4086711  60.3841591
   2.9349890  43.0066967  42.1761417   3.8523930  43.1636667  42.3996639
   2.8783366  43.2075167  41.2419605  62.4338150  17.8166652   7.1152210
  63.0245543  17.5216997   7.8082234  61.6069889  17.3709917   7.2995198
  70.5265760  52.1577024  58.0445862  70.0411224  52.6435661  57.3778820
  70.2874947  51.2428522  57.8958416  63.8116503  48.2667685  45.3906775
  63.7786913  47.3128223  45.3190470  63.3462524  48.4621096  46.2039900
   9.7336942  64.1832876  39.4166565   8.8578677  63.8657045  39.1968799
  10.2918780  63.8529873  38.7126923   9.6794468  15.6560385  32.3729324
   8.9309937  16.0367477  32.8323984  10.3810179  16.2974393  32.4853325
  25.3487587   6.5580994  16.8845570  25.9228158   5.8074695  16.7320919
  24.6293640   6.4393204  16.2644005   1.2399886  28.5425591  45.8153629
   0.5190486  28.9236593  45.3141212   0.8192649  27.9077578  46.3952351
  65.5931711  72.7381992  22.1410203  65.1526642  73.5145760  22.4865961
  65.5166292  72.0884609  22.8397441  70.1109409  18.7737548  17.7343118
  70.0546408  18.5292912  18.6580539  69.3030453  19.2584360  17.5651503
  17.8161669  15.6241107  25.0602078  17.2088826  15.9672165  25.7157350
  17.6563704  16.1588502  24.2825508  25.6632614  25.6329489  20.6981564
  26.4582205  25.9486961  21.1277747  25.4031825  24.8664451  21.2090969
  28.2300520  22.1225572  19.2211175  28.9780211  22.4906325  18.7506986
  27.7687526  22.8846622  19.5713055  23.2087064  33.4732771  23.8920975
  22.4586248  33.8359928  24.3633199  22.9446054  33.4901404  22.9722071
  72.0787096  31.6350079  46.1912155  72.1712399  31.8625355  45.2660656
  71.7618084  32.4379683  46.6048098  14.2799258  31.1361313  39.3818092
  14.9494255  30.8612466  38.7553573  14.3790936  32.0865965  39.4366980
  46.1749458  15.6088507  19.7319329  45.3980303  15.6905806  19.1788018
  46.0598326  16.2776995  20.4069304   5.8949912  19.4974542  19.7170174
   5.4656720  18.7453854  19.3092060   6.6027927  19.7251344  19.1141832
  59.0507507  62.7710390   3.8778764  59.0224361  63.5984230   4.3583551
  58.6413050  62.9690409   3.0356303  74.8145247  54.4962883  33.0703163
  75.6650877  54.8767376  32.8511548  74.6636915  54.7546721  33.9795589
   3.8882583  27.5495887  34.2641211   3.1532708  28.1585336  34.1919136
   4.1847077  27.6383209  35.1699233  15.1945710  46.5196371  13.7925196
  15.7220888  46.5494299  14.5906866  15.7033980  47.0147705  13.1505156
  31.1428046  63.2150936  22.0874071  31.8410301  63.7714386  22.4326563
  30.4319406  63.3009529  22.7226496  23.7218380  47.6709080   7.3822045
  23.8335419  46.9350529   7.9840946  22.9559588  47.4372244   6.8577486
  66.1821842  38.2757354  39.6420383  66.7253447  37.6463413  39.1676235
  65.4343939  38.4298205  39.0647173   2.1854126  29.4561458  34.3978524
   1.2329552  29.3806410  34.3399239   2.3609480  29.5607686  35.3329849
  76.5789700  21.4858198  22.4138570  76.7977190  21.6746306  21.5013146
  75.6450224  21.6840649  22.4822283  61.2860966  44.0019321  45.8644485
  61.1134624  43.5733986  46.7027760  60.7399130  43.5288382  45.2366734
  61.7798567  38.0652142  36.8122792  61.9547319  38.9850950  36.6136122
  61.8850279  37.6149774  35.9741521   3.4124297  32.3402929  24.6222615
   3.3988258  31.5593576  24.0689206   4.1464490  32.8567982  24.2895889
  30.6553721  28.7912226  33.6229944  31.5118456  29.0273786  33.9792490
  30.1726675  28.4413457  34.3718696  28.7629557  46.0683823  64.3557405
  27.9976535  46.4969492  64.7389793  29.2724919  45.7697344  65.1090097
   4.2624202  48.2827139  21.4445496   4.8021710  47.5685310  21.1056662
   3.3656195  47.9529476  21.3876724  11.5437961  24.3047190  58.7577200
  10.7448435  24.6985435  58.4072828  11.4397609  23.3671284  58.5954475
  50.9620476  54.7259235  56.1598635  51.3020563  54.1455746  55.4788208
  51.2639189  55.5976152  55.9043932   7.0826119  49.8475313  33.4329748
   6.4213246  49.4352341  33.9888000   7.8341836  49.9777365  34.0112638
   6.1057377  18.1403089   9.8003393   5.2158749  18.2420647   9.4626671
   5.9964377  18.0809152  10.7494223  23.5165858  34.1648769  17.0965505
  24.2586899  34.7406697  17.2808802  23.8516450  33.2830000  17.2585881
  14.8311710  42.8732061  22.5248241  15.2858961  42.1921825  23.0204701
  14.8440266  43.6376190  23.1007910   2.5284818  11.9273317  24.6609163
   2.5762445  12.4936271  23.8906837   3.3495238  12.0865154  25.1265168
  23.5876393  59.0668631  25.9758282  22.8724694  59.1499519  25.3450680
  23.2606721  58.4476662  26.6284537  79.4502068  37.8723502   8.9501369
  79.7328806  38.6611891   8.4874701  78.8361025  38.1900263   9.6120936
   8.3739936  34.8634768  39.8476195   8.3468747  35.0516820  40.7857418
   9.2920047  34.9851346  39.6053672  79.6659303  45.9881449  47.9085207
  79.1378331  45.1904488  47.8764391  79.6846715  46.2258577  48.8355446
  68.3488035  15.4338753  14.5115411  68.2694244  15.1297903  13.6074042
  68.9917278  16.1418319  14.4705594  11.8884695  73.6979961  26.7315650
  12.6255143  73.9463663  27.2895169  11.1465108  73.6274385  27.3321891
   8.4062082   7.6166546   7.5971723   9.2875767   7.2495258   7.6652730
   8.3640271   7.9754341   6.7107576  74.1689920  53.3830357  41.8596554
  74.2620993  54.2446709  42.2660398  74.8633623  52.8556681  42.2545767
   3.3577892  30.5206680  22.5072908   2.5891608  30.0795364  22.8690147
   3.9842081  29.8154449  22.3445296  57.5084162  65.3901148  50.7160139
  56.6335726  65.1962042  50.3794336  58.0994654  65.1361465  50.0072145
  20.5682564  37.3703194  57.0959616  21.4293313  37.0489073  57.3633146
  20.0641799  37.4092507  57.9087496  48.8552666   6.3408625  15.1002800
  49.4473505   5.6157327  15.2999115  49.2844677   6.8106169  14.3851948
  74.1218472  21.3525963  45.0619793  73.2485199  21.7006302  45.2419806
  74.0452051  20.4137063  45.2318192  47.6023817   7.1297079  48.2176685
  46.7946339   7.6408041  48.2682753  48.1288338   7.5786531  47.5562096
  45.8060408   9.3772072  22.1892858  45.2928829   9.0839219  21.4363670
  45.1953983   9.9041820  22.7046967  10.8707619  17.5540066  33.9783263
  11.0822272  18.4837008  34.0630698  10.0908291  17.4353969  34.5204210
   1.4317766  41.5187454  54.7990513   1.4164487  41.1804914  55.6943607
   2.2169675  42.0649958  54.7628021  72.9151487  11.4935601  41.0453844
  73.0460405  10.5478597  41.1142969  73.0600405  11.6885698  40.1195288
  76.6609383   8.3817077  25.7441974  77.0651627   8.6244333  26.5772128
  76.2054110   7.5604564  25.9293246  16.5530014  44.0784883  62.5534534
  16.0316575  43.6775541  61.8579769  16.1991024  44.9638367  62.6379967
  10.5115175  32.1843934  13.2033670  10.7113743  31.3749146  13.6735106
  10.8307862  32.8801751  13.7779832  45.2148342  59.4802761   5.9026212
  46.0877132  59.7595358   6.1789078  44.8303127  60.2591276   5.5004197
  27.1862102  26.4110565  35.5800366  26.9952130  25.9380269  34.7701001
  27.9674482  26.9259715  35.3781390   7.6892942  35.3663635  42.3665857
   8.2668209  35.8699203  42.9402781   6.8657053  35.8541441  42.3679066
  62.9332590  39.4858527  17.0910609  62.0111132  39.6797061  16.9228518
  62.9951668  38.5335231  17.0171177  57.8760481   2.2142801  11.6795993
  58.0026579   2.5338718  10.7862556  58.0919552   2.9634833  12.2348571
  13.0373144  32.5119424  15.5120301  13.8232708  32.8313160  15.9553194
  12.3143244  32.9497719  15.9612775  77.6981258  60.0698280   0.8336791
  78.5693645  60.4656124   0.8105956  77.1515369  60.7195473   1.2756477
  65.4582167  38.3900118   8.0033720  65.7981682  38.0957317   8.8483959
  65.5182648  37.6189470   7.4393827  59.2193460  12.2892022  26.6263533
  59.7303104  12.7134812  25.9370542  59.0703773  12.9789627  27.2730899
  23.7231588  21.0172439  18.0364907  24.2306566  21.4871716  18.6981881
  22.8997946  21.5018153  17.9773700   9.3064106  18.7052810  28.0719376
   9.6332550  18.2622445  27.2889161   8.3916450  18.4312725  28.1379271
  18.1346500  65.8549166  30.1585221  18.8775885  65.7056665  30.7433271
  17.4500263  65.2724791  30.4875922  66.2015963  27.7428079  32.2601104
  66.9828844  27.3305774  31.8914795  65.4712772  27.2535944  31.8812490
  25.8020711  75.2999020  50.0501013  25.4032421  74.8647165  49.2965841
  25.9858060  74.5910168  50.6665087  71.3726759  40.6961346   3.6586273
  70.5390549  40.6098270   3.1961808  72.0361137  40.5223942   2.9908729
  72.4586344  38.7108159  38.8627529  72.2324800  38.8944626  39.7745419
  72.9216957  37.8736901  38.8947725  76.9498110  52.2475195  47.7736664
  76.2507153  51.6742134  48.0880213  77.2620487  51.8272829  46.9723320
   1.5067670  42.2722530  10.8313215   1.2278438  42.2680998  11.7469728
   2.4134994  42.5777483  10.8585334  14.2313492  45.1768494  24.2070103
  14.1338134  44.7680569  25.0670147  13.5887873  45.8863163  24.2047906
  13.1198120  50.6416845  23.9392114  12.4547410  51.1743736  23.5031390
  13.3470035  51.1384296  24.7252536  10.7882267   0.0526670  22.8653622
  10.3022486   0.4833368  22.1620965  10.2259165   0.1422504  23.6347866
  76.6907597  26.7499065  15.6106877  75.9999371  27.2966528  15.9849370
  76.2611246  25.9149933  15.4247749  76.4833450  15.6870127  33.2024574
  77.0138931  14.9826598  33.5748005  75.7588768  15.2370453  32.7678227
  55.5369473  60.2551937  42.9735374  55.6410885  61.1252594  42.5883436
  54.8787498  60.3736639  43.6583567  38.4895730  13.3006442  40.2266598
  38.6039162  13.2300770  39.2789364  37.7099538  13.8455462  40.3339291
  78.5045242  36.2772465  15.7794464  78.4553432  36.3348699  14.8252487
  79.1090965  35.5538082  15.9448624  44.9231625   5.4167038  19.5897341
  45.5221224   4.6734133  19.6604538  44.5528412   5.3430450  18.7101507
  12.2082043  30.5946779  33.9412403  12.0058620  30.9912205  34.7886157
  11.3879824  30.6465530  33.4505510  15.2054024  43.2852745  12.1042824
  14.3264568  43.1710052  11.7428553  15.4869807  44.1418600  11.7830276
  74.1227913  23.7762022   2.2448105  73.9299679  24.4409060   1.5835840
  73.3090925  23.6892033   2.7413562  17.2244465  31.9300580  19.3907499
  17.5724113  31.1595440  19.8395944  16.5498221  32.2665310  19.9805796
  67.7676439  66.1744213  56.1260605  68.5033512  66.7784500  56.0255051
  67.0413637  66.6042900  55.6744385  73.8579130  12.4385166  64.0019846
  73.4328604  12.6023710  64.8438358  73.1518936  12.5089395  63.3594799
  68.0433035  27.0432448   9.4907618  68.4503555  27.4926519   8.7501037
  68.6205292  27.2303414  10.2310562  37.8863215  11.3362765  35.0564289
  37.8657341  11.0498500  35.9695387  37.0333958  11.7470574  34.9149752
  67.8078079  52.6919079   2.5182754  67.1842766  53.2275152   3.0087507
  68.6459827  52.8380203   2.9568511  10.4579806  49.5274019  52.7507734
   9.9533600  49.8507547  53.4971189   9.9281722  48.8143253  52.3943186
  13.2208931  42.8164959  25.9771228  13.3076739  42.5869513  26.9023299
  13.8293850  42.2306061  25.5268955  28.4965372  40.5097246  17.5748897
  29.2663836  40.9106493  17.9784095  28.7992764  40.2241611  16.7128956
  78.2360315  58.0953884  15.3109324  78.3615208  59.0354061  15.4407144
  77.3134708  58.0077410  15.0712931  73.6775398  44.0305758  12.3903191
  74.5680952  43.7062407  12.2563267  73.7016773  44.4479799  13.2513797
  10.5856299  39.0271306  32.5931501  10.7887185  38.4192729  31.8821669
  10.3884888  39.8537326  32.1525884  75.6821728  16.7188883  52.3799467
  75.1678228  17.5232029  52.4488878  75.2270889  16.0944057  52.9448795
  14.4041085  11.4007068  33.7162709  15.3562725  11.4811957  33.6602592
  14.1196728  12.2111630  34.1387510  15.8310330  59.0295744  57.2553730
  15.4226899  58.4856701  56.5818357  16.1581862  58.4044456  57.9022264
  76.2437105  63.7917328  61.0913610  76.4326382  64.5569420  60.5482292
  76.9475651  63.7787008  61.7399406  36.1164880   9.8985821  18.4133506
  35.4671383   9.6732223  19.0795255  35.9314370  10.8127165  18.1980705
  15.3802752   6.6293621   3.9687729  15.6285131   7.5299311   3.7600034
  16.1705267   6.1171967   3.7972471  74.5388222   3.3989424  41.8835163
  73.6769295   2.9866093  41.9414091  75.0936890   2.8764328  42.4626064
  24.5029712  51.3838673   1.8179744  23.8734865  50.7041168   2.0586330
  25.2569604  51.2238455   2.3855349   0.2095140  25.8962488  21.7389178
   0.5183902  25.8575726  20.8337498  -0.4465278  25.2017355  21.7980099
  15.9731567  33.2622814  26.3183641  15.7181334  32.3632097  26.1113214
  15.8224738  33.3431363  27.2601652  65.3611374  53.5155344  31.5192270
  65.5291128  54.3263102  31.0389543  66.1988306  53.0525208  31.5079260
  28.1835365  65.6830883  64.3318605  27.5069380  66.3436937  64.4803524
  28.8802338  65.9112692  64.9473143  78.1140709  68.0990601   2.5782472
  78.3203840  67.5619459   3.3432168  78.1665754  69.0000868   2.8970289
  69.3682337  54.0014029  32.5357509  70.3182793  54.1018915  32.4761224
  69.0601778  54.0976429  31.6346002  58.4275627  57.0833540   9.0978062
  58.7360525  56.4937115   9.7858375  59.1134977  57.0528269   8.4308791
  69.9306822  35.3304577  56.2139177  70.8553600  35.3210640  56.4611340
  69.5083857  34.7464919  56.8439007  30.9639382  29.3843293  24.1393232
  31.1049986  28.7740254  23.4155393  31.7178369  29.9732161  24.1064501
  52.6748323   8.4695721  28.9784455  53.4163523   9.0741742  29.0073013
  52.6954460   8.1073701  28.0926585  12.4151111  55.5533457  53.4074116
  12.4301732  55.3649139  52.4690628  11.9251752  54.8254824  53.7900400
  79.3606186  24.8108649  43.6872387  80.2272129  24.8821664  43.2870293
  78.8306570  25.4628778  43.2287025  47.9187584  73.9095974  62.4607515
  47.0713663  73.9129448  62.9058933  47.9476023  74.7449827  61.9943523
  79.1794777  14.3286383   1.0713001  78.6793995  13.5226130   0.9429442
  79.4332457  14.5962858   0.1880122  78.6314964  17.8198504  57.5377178
  77.7609968  17.6049209  57.8727818  78.8423109  17.1019673  56.9406986
  38.6476135  12.7545834  12.3480260  38.1185079  12.2714150  12.9827130
  39.2609072  12.1052766  12.0037794  27.5728011  67.3567390  54.5605755
  28.1929564  67.0421934  53.9027786  27.2090578  66.5601635  54.9470806
  15.9865057  30.6460071  25.8381152  16.8613696  30.2606392  25.8864689
  15.4143870  29.9134183  25.6095839  35.1842856   5.3751898  20.0840974
  35.9342694   5.1230657  19.5454049  35.4813027   5.2440929  20.9845567
  69.6670151  32.6630664   9.6808267  69.6321440  32.3805785   8.7669253
  70.3225899  33.3604574   9.6911043  15.3519833   5.7604629  38.7612343
  15.8717430   5.5665767  37.9811788  14.8465204   4.9626011  38.9166546
  69.3627405  22.9180145  18.1577814  70.2067995  23.2400560  18.4741485
  69.1585445  22.1787119  18.7304652  68.7468863  29.6318769  31.4601660
  68.1956100  30.2118444  30.9348416  69.4253874  29.3330932  30.8546948
   8.5476071  17.6227367  35.5510259   8.5851794  18.4422624  36.0441756
   7.9130769  17.0861888  36.0261226  64.8425579  48.3648586   6.4063305
  64.7933960  47.4649620   6.0838395  65.7749844  48.5792065   6.3769644
  68.0659819  45.4491854   6.5200168  68.4400654  45.5617666   5.6461638
  68.8161516  45.2400684   7.0765686  25.5804253  74.1474628   5.1054370
  25.1699615  73.3897591   5.5221307  24.9900222  74.3748474   4.3871385
  72.7575064  37.1373987  49.8740244  72.9569721  38.0501938  49.6660662
  72.5314856  37.1475220  50.8041000  27.6264763  33.3699608  12.8625751
  27.7255368  33.8231230  12.0252812  28.2853127  32.6759863  12.8387403
  42.7095556  -0.1392120   8.3887607  43.5628939   0.2078316   8.6487871
  42.1925020   0.6358870   8.1694317   3.2003820  68.0292034  49.0781450
   3.9439803  68.4606409  49.4990396   3.4891239  67.1257114  48.9494467
  75.2955580  31.3242507  46.3706255  74.3499947  31.2161517  46.4728737
  75.3922749  31.8448520  45.5732203  27.3541522  15.3843021  24.8539066
  27.3551607  14.5859945  25.3820515  27.7711344  15.1278341  24.0313601
  43.5787916   1.3968636  24.3199468  43.9310408   1.6187347  23.4580159
  42.6589298   1.1886613  24.1564155  31.1334372  10.6971776  42.9536724
  30.6977391  10.0519931  42.3967743  31.7932868  11.0963392  42.3866606
   2.3557745  22.4054861  23.6799669   2.7354315  21.6227388  23.2807183
   1.5959236  22.0827317  24.1644120  68.0282545  25.8993030  44.9953985
  68.8966942  25.7069635  45.3490210  67.7456141  25.0774860  44.5941925
   8.9591241  26.9855952  24.8859358   8.1516063  26.4970255  25.0454617
   9.6501142  26.3241148  24.9207211   1.5456992  40.0110197  29.7597265
   0.8664652  40.2006960  29.1125059   1.1558384  40.2628183  30.5968881
  25.2353191  16.3188934  22.1371722  24.3260503  16.6145229  22.1826100
  25.5227637  16.2872410  23.0496454  65.8128834  15.0656211  17.7826512
  65.6786060  14.7183204  18.6644578  64.9289131  15.1952732  17.4391186
  66.9527054  69.3730688   4.6954694  66.7793989  70.2218103   4.2882463
  66.1038160  69.0944099   5.0389397  61.9571400  26.5895772   3.2669899
  61.6938448  26.2508845   2.4113065  61.2529182  26.3220263   3.8575113
  74.0164661  45.1949167  14.8728788  74.9208164  44.9252462  15.0330675
  73.7018204  45.4961920  15.7252061  40.4892254  17.1662498  28.9079142
  41.1536741  16.4862537  29.0190244  39.9781704  16.8803108  28.1507516
   6.7328686  30.4124188  22.6782179   6.3641727  29.6767950  23.1672502
   7.6630229  30.2024412  22.5948262  52.7478313  60.6699944  27.8178048
  53.5167789  60.6645393  27.2477889  52.0133018  60.4906273  27.2308445
   4.1610599  16.2818718  37.4996614   3.3755931  16.4099455  36.9678044
   3.9430636  16.6713178  38.3464456  38.6374497  67.0731115  33.1434298
  39.3817353  67.3238039  33.6906266  37.9598999  67.7165031  33.3512783
  57.3534203   0.6783112  49.6923828  58.1303453   0.9331577  50.1900482
  57.3744583   1.2348385  48.9138794  71.5457916  31.5520239  59.1024017
  72.3180771  31.7308879  58.5659218  71.0013676  30.9844398  58.5567951
  24.8937988  54.7944260  23.2729840  24.2500520  55.2670479  22.7453017
  25.3723192  54.2566824  22.6420474   5.7569665  44.0526724  31.9261980
   6.5521449  44.4097662  31.5307117   6.0564601  43.2875156  32.4171925
  12.6535022   3.9247563  60.3573751  12.5384307   4.7322947  59.8565054
  13.3900726   3.4834433  59.9343634  15.6836367  42.8970146  18.3648396
  16.0129523  43.7867308  18.2375872  15.1634836  42.9465723  19.1668487
  32.2782838  74.6417116   1.5699612  31.7708241  74.0704933   0.9933951
  32.6026427  75.3350316   0.9952194  11.7667818  41.5316677  47.7548933
  11.0349858  41.6587067  47.1510983  11.4450467  41.8614388  48.5939217
  16.0448563  20.6764150  64.5445919  16.6175997  21.3235402  64.1329813
  16.0699773  20.8927774  65.4766798  67.8736591  65.7990408  28.0515957
  68.5969257  66.4057159  28.2099104  68.0035830  65.0992346  28.6916113
  79.6824276  35.0114202  26.6990161  78.8433962  35.2009606  26.2790990
  79.9149976  34.1373444  26.3857508  65.4875040  70.7651424  44.8940134
  65.3794575  71.3609362  44.1526699  66.0852098  70.0897455  44.5733547
  16.3042879  64.4480324   6.5327042  17.1025586  64.0453243   6.1909097
  15.8356404  63.7288618   6.9562560  25.4145813  49.8549652  21.6612506
  25.9637809  49.1111803  21.4134789  25.1164937  50.2205563  20.8283520
  12.3859859  45.8867884  21.7732763  12.2497284  46.0640144  22.7040052
  11.9678020  46.6223192  21.3256741  32.2360659  71.9077635  51.6371107
  33.0937243  72.3048306  51.4854717  32.4033332  71.2117863  52.2726154
  16.1272764  39.9278259   4.9901310  17.0425546  40.1733589   5.1250815
  15.7111621  40.7252359   4.6626863  67.4062395  41.2809324  38.2865763
  67.7875948  40.4039574  38.2451987  66.4612293  41.1331463  38.2499194
  18.7299228  56.4407587   8.6858273  18.5810220  56.9387627   9.4896013
  18.1215847  55.7040548   8.7443489   5.0960481  35.9410024  30.6023312
   4.7233447  36.6596103  30.0915217   6.0410672  36.0900164  30.5712676
  17.5132036  25.7644153  18.2720637  16.6461790  26.1699772  18.2677877
  17.9351795  26.0928679  17.4781573   5.3665966  61.8366289  56.6605902
   5.9224379  62.1602392  57.3694944   4.5209908  61.6691303  57.0766735
  75.5540371  37.1640038  44.9375248  75.0376558  37.9583073  45.0741386
  76.2110806  37.4142385  44.2879820  13.9147651  34.8337650  39.2996716
  14.2097783  34.9612594  38.3980370  14.7193694  34.6837354  39.7959948
  14.1245937   8.0498248  42.0366573  13.9083171   7.1267366  42.1684313
  14.9363339   8.0356151  41.5295982  17.4078369  39.6504164  36.5842128
  17.9322851  39.8925114  37.3474789  16.6253054  39.2396379  36.9518209
  52.1052408   4.2565945  61.0705900  51.5316105   5.0088888  60.9248686
  51.5187025   3.5631418  61.3727951   8.2840228  54.0051270  10.8981836
   8.6475599  53.4855986  11.6152370   7.7284151  54.6538925  11.3301933
  16.6133857  61.3707018  35.1329851  17.1366870  60.7133055  35.5914807
  15.7367337  60.9891891  35.0865006  28.9857054  31.2806916   0.8487526
  29.4687796  30.5643845   0.4367134  28.6118054  31.7700887   0.1160052
  38.5597825   2.3232797  50.3186178  37.8179431   2.7635986  49.9038601
  39.2757058   2.9561833  50.2627754  28.7683487  54.9988794  32.2381020
  28.0798388  54.5064831  31.7911911  28.3011746  55.5399847  32.8746462
  49.3022108  67.5049877  31.5541005  49.7309589  68.2961655  31.8803501
  50.0008297  67.0158482  31.1194634  17.1572340  17.1879172  31.6360664
  16.9685221  16.3733053  32.1019292  17.0205200  17.8744054  32.2889662
  18.4190083  24.7091627  39.0913367  18.3562303  25.4248118  38.4587717
  17.9246974  23.9929986  38.6925936  74.6998835  18.4141588  61.9086599
  75.2248240  17.9386938  62.5525570  74.2344284  19.0756512  62.4205351
  15.4174387   4.3405953  62.4497080  14.5797408   3.8990071  62.5893307
  15.8732152   4.2600772  63.2875729  71.9569540  28.6380196  40.9798574
  72.3770666  28.0919337  40.3153849  72.1160078  29.5355892  40.6877947
  16.2491238  72.2060537  38.2109141  16.2256968  71.2499285  38.2497931
  16.4343715  72.4039650  37.2929025  66.1423731  38.7874126   3.5443407
  65.9553099  38.2156706   2.7997926  65.5594492  39.5369101   3.4231764
  14.7084391  29.0885401  55.1310635  14.6486139  28.1847334  55.4405594
  14.8421645  29.6054077  55.9255409   7.7818990  41.1709833  18.1825173
   7.1576560  41.4434862  18.8550448   8.6028719  41.5954304  18.4316695
  78.2238579  38.8572145  27.4955583  78.6067057  38.2436752  28.1226397
  78.4339142  39.7220683  27.8478885   1.8585652  58.5389280  61.4322662
   1.0374669  59.0090036  61.5773821   2.4774709  59.2163944  61.1598110
  30.1359844  65.0748730   0.8421832  30.2107048  64.2528391   1.3268521
  29.2586970  65.0488043   0.4601915   4.7594643  48.3899641  34.2999506
   4.6286440  47.4479198  34.1919446   4.4969413  48.7661076  33.4598136
  53.6085844  23.5997725  38.1743717  54.5496416  23.6869407  38.0225658
  53.5207224  22.7879238  38.6737871   0.6969722  67.8877068  27.0211244
  -0.1753044  68.1031370  27.3512077   0.5620170  67.7004051  26.0921812
  10.1583683  28.9714789  11.6972005  10.0002468  28.7099862  12.6043129
  10.3297973  29.9119663  11.7454588   8.2281691  42.0993328  37.4037147
   8.5183680  41.2254953  37.1421313   8.8606811  42.6929092  36.9989610
  38.1476235  66.0096836  49.2515516  37.8393364  66.3908815  50.0736713
  37.9055405  65.0854778  49.3104458  28.8543916  69.6677542  39.6255136
  28.9491200  68.7810755  39.9734473  29.4303823  70.2023172  40.1720572
  67.3652315  42.1067572  45.8144712  67.3254490  42.0169115  44.8623276
  66.8276358  41.3873291  46.1456013   5.5744475  41.1926746  50.7288074
   5.7971615  40.9025908  49.8442268   5.7309973  40.4252434  51.2790585
  10.3192341  21.2246823   3.1528234   9.8999536  20.3749466   3.0172276
  11.1915052  21.1249375   2.7714759  75.1179075  44.1705227   5.4443073
  74.8570013  43.3855152   4.9627268  76.0746574  44.1618061   5.4162306
  25.8814764  67.9905701  51.4459801  26.0785413  68.9260483  51.3982296
  25.3523827  67.8172159  50.6673670  23.4076858  32.1675801  26.1717081
  23.3439302  32.7431893  25.4095793  23.6044216  31.3055682  25.8050156
  17.2048092   3.0144414  13.3120179  18.0034089   2.4873981  13.3383882
  16.5076566   2.3840195  13.1309700  63.3193493  17.7188277  59.4390917
  62.9946232  16.8737411  59.7499228  63.6988592  17.5287294  58.5811472
  31.6650438  44.6938801   8.3587080  32.6168227  44.7884750   8.3213055
  31.4047599  44.5306921   7.4521464   9.7930825   4.5011830   7.0642722
  10.6851065   4.3458965   7.3747724   9.2806578   3.7853161   7.4400210
  14.6219790  49.7975874  51.4747524  15.2408898  49.6474791  50.7601547
  13.7679493  49.5789766  51.1018276  13.4548116   2.7831930   5.3972840
  13.4773028   1.8426991   5.5739105  14.2902160   2.9661965   4.9673530
  14.8892736  49.2090702  42.4930000  14.6889293  50.1450491  42.4992037
  15.6624007  49.1259146  43.0512047  66.4806700  68.7096739  47.9400730
  66.3341522  68.3656549  48.8212204  65.7266331  69.2758846  47.7755690
  66.4037609  31.4650989  21.4608574  67.0475769  31.2554955  20.7842493
  66.5606642  32.3873997  21.6632771   5.6638193  32.3828173  43.0036211
   5.8078271  33.1728148  43.5245800   5.3404206  31.7372036  43.6319733
   4.8466176  23.4441137  41.0882187   5.7610595  23.5728884  41.3400984
   4.5272717  24.3238902  40.8876085  30.1949024  67.0521641  16.8081796
  30.8637404  66.3875055  16.9728696  30.4735160  67.8062153  17.3278058
  39.5657539  33.9426374   4.2120221  39.9818468  33.4546089   4.9226028
  40.1973629  34.6264911   3.9892063  31.2584162  37.6541185  34.1102576
  30.6865501  38.0134964  33.4319878  31.0801387  38.1904817  34.8827624
   4.7509992  68.2408381  25.1777363   5.5652499  68.3799458  25.6613445
   5.0339979  68.0273485  24.2885995  72.5983906  47.7789927  46.0480595
  72.5184870  47.4057150  46.9258451  72.7145052  47.0210314  45.4751253
  32.1833706   9.9908215  17.8005111  31.4342308   9.6287459  17.3273098
  32.4149752   9.3138373  18.4363437  13.9102685  32.4408054  36.4812326
  14.6740460  32.0932364  36.0207200  14.1207838  33.3621836  36.6328120
  59.4958782   6.5445995  55.7452536  58.9260817   7.2574508  56.0340595
  58.9770317   5.7522076  55.8836174  62.0414114  17.8269184  22.0435548
  62.3792934  17.4105799  21.2506270  61.2794876  18.3245158  21.7467451
  11.4417922  56.6204357   5.1812851  10.6541920  56.2868738   5.6109977
  11.9002223  55.8362913   4.8793092  34.1938281   9.3980312  28.8241196
  34.5904541  10.0636411  28.2620859  34.9225521   8.8294470  29.0729260
  76.5162230  62.1280432  38.0124497  75.7784081  61.9530058  37.4283099
  77.1770144  61.4816236  37.7639937  20.3825736  27.5856972  64.0383005
  20.0076199  28.0844879  63.3124542  20.8690691  26.8775868  63.6162424
  74.9850273   2.8384283  31.0533834  74.1786957   2.8701016  31.5682197
  75.6581831   2.5703275  31.6788578  29.5899677  56.6910791  27.6781535
  30.3392386  56.8508196  28.2520056  29.9677801  56.2835836  26.8987703
   5.7091880  74.0026569   6.8821299   5.5450022  73.1778431   7.3392516
   5.9338540  74.6211481   7.5772732  17.0248246   7.6594782  28.5387325
  16.7049968   7.1103394  27.8229189  16.2320125   7.9568911  28.9850807
  25.1393509  33.4963489  13.9643109  25.3967214  33.3252072  14.8702371
  25.9635329  33.4986615  13.4775329  14.5285928  27.0413613   2.8231570
  15.4467332  26.9333816   2.5749853  14.2398798  26.1605668   3.0620635
  28.9067054  44.0235472  16.4174342  29.5041037  43.6939669  17.0887947
  28.6225295  43.2412148  15.9447563  48.5817623  26.8744707  57.2090816
  48.1914091  27.1206379  56.3704729  49.2124939  26.1893272  56.9877529
  16.5342915  43.5507393  25.9011984  16.8777156  43.0494785  26.6408110
  17.3057246  43.9630842  25.5124855  33.6227179  -0.1688940  54.8603868
  33.2716632  -0.4288120  54.0086651  33.9191675   0.7321972  54.7323895
  63.0003071  34.2681766  16.9196892  62.2300625  33.7043142  16.8488431
  63.7227726  33.6656570  17.0964479   9.7930217  70.8306837  16.1905146
  10.4246867  71.5134001  15.9643984   9.0667599  70.9651852  15.5816758
  21.2018108  21.8906951  39.5160294  20.9229422  21.0291481  39.8261905
  21.8703866  21.7032027  38.8571787  78.0839396  17.7318478  14.5142043
  78.5608864  18.2879126  13.8981307  77.1617746  17.9302764  14.3515205
  73.4353685  66.2317419  20.4002166  72.7094364  66.1764050  21.0216594
  73.0931473  65.8400631  19.5966589  70.1810694  49.2900991  58.0161572
  69.4463348  48.8819647  58.4742165  70.1354027  48.9368820  57.1276855
  78.1532574  52.7392149  32.3800492  78.0168343  52.1435499  31.6432977
  78.4985399  52.1821499  33.0776787  46.6843176   7.4562615  15.8827353
  46.3682032   7.6410615  14.9983430  47.6193619   7.2841644  15.7717836
  35.2778220  10.2739155  62.3632622  34.4154692  10.1381564  62.7558804
  35.5469131  11.1398602  62.6697922  43.4140730   9.5153630   8.8131475
  44.0412951   9.0362608   8.2715911  42.6184464   8.9839220   8.7851542
  73.1226921  60.2202368  49.4427395  72.5354671  60.9259510  49.1718817
  72.5888491  59.4280195  49.3824244   5.5331594  28.3770537  24.0059686
   4.6159559  28.1942773  24.2098379   5.9742892  27.5339818  24.1102052
   9.0192360  18.8403797  43.6154985   8.8801974  19.0372276  44.5418644
   8.1885970  19.0642226  43.1957769   2.2827031  17.4951625  32.3071599
   2.3286447  16.9175065  31.5452981   2.7003849  18.3064759  32.0181179
  79.0902090  59.0021038  41.3674259  78.2696915  59.2798233  41.7746830
  79.6347761  59.7892952  41.3648367   6.8683058  42.0119143  30.1175380
   5.9977394  41.6565657  29.9384522   7.0291370  42.6246881  29.3999934
  44.4030476  64.4265938  15.9851408  44.9375105  63.9672232  15.3374052
  44.9716663  65.1224804  16.3147509  64.8425579  49.1171122  41.1461163
  65.3771019  49.8787689  40.9216738  65.4264498  48.5570526  41.6576195
  11.7783558  58.5477829  36.4486837  11.6490877  58.9043951  37.3275185
  12.4534643  59.1047764  36.0611010  25.5674958  65.0927305  22.0631075
  25.3869772  64.6232796  21.2487006  26.3341641  65.6304121  21.8647385
  11.1229753  45.5046701  32.2264099  11.4658487  44.6690845  32.5433731
  10.1722229  45.3948784  32.2421479  28.3830261   4.3341607  36.0767317
  27.6597953   4.0318376  35.5273986  28.9996457   4.7329843  35.4627657
  25.7041621   3.3312657  48.6119366  26.6138554   3.2426813  48.3276033
  25.7035613   3.0142149  49.5150995  42.8476334  64.3258429  18.5269964
  42.9287624  63.3839178  18.6767411  43.2599592  64.4693279  17.6751578
  61.4867258  57.5599813  31.8121552  61.5783930  58.3639812  31.3008690
  60.7470417  57.7300644  32.3953962   4.1761154  59.6531343  13.9740717
   4.4983312  59.8212099  14.8595989   3.9041197  60.5121660  13.6510980
  79.6088648  29.4395733  48.6997461  79.0415239  30.1592112  48.4232044
  79.5148849  28.7820435  48.0105019  14.7110677  20.8881211  40.1102543
  14.4761932  21.3401890  39.2998815  15.3748906  21.4478922  40.5130291
  14.7168267  46.2274885  43.7382889  15.2684879  45.4876041  43.4843636
  15.0591385  46.9656181  43.2340908   1.2228189  44.1560221   6.7072380
   0.8662631  44.9492884   7.1070194   2.0945141  44.4111061   6.4050621
  20.4978037  64.7487354  31.6119623  20.9037399  64.8437357  32.4735999
  21.1828780  65.0056791  30.9948015  43.9338541  65.1169300  26.4768457
  43.1047344  65.2379465  26.0140896  43.8565111  65.6687355  27.2551513
  54.4122887  16.6263855  62.5837326  53.8389492  17.2826445  62.9797554
  54.3447733  16.7861247  61.6423702  14.1038513  14.5667732  61.9275141
  13.2289231  14.5791447  62.3155594  14.6951628  14.7166550  62.6651573
  19.0610850  50.2825594  46.2142324  19.2226613  50.7170153  45.3767490
  18.3109641  50.7477427  46.5845776  31.4625430  60.6679392  17.8388011
  31.7041087  61.2581682  17.1249998  32.2971702  60.3277874  18.1611717
  74.8238420  36.0138130  64.8676157  75.5937004  36.5815473  64.8326302
  74.0988970  36.6054606  65.0692081  61.5823698  65.8297968  28.3337402
  62.3287964  66.4259720  28.3942175  61.1834908  66.0305405  27.4870801
  30.7517719  42.4932718  18.0734909  31.3800383  43.0229902  17.5826597
  31.1946082  41.6544819  18.2021666  51.6927814  21.5522885  25.0701737
  52.3759556  20.8901358  24.9650121  52.0138311  22.1182752  25.7721829
   1.1094312  56.8421698  16.6304541   0.3836299  56.8441963  16.0064030
   0.7348847  56.4774084  17.4322617  16.1665475  36.9033933  23.7016225
  16.4581501  36.0027385  23.5601306  16.0045111  37.2437072  22.8217554
  18.7742794  12.3180258  29.8419905  18.8527668  12.8866339  30.6079912
  19.6721077  12.2165668  29.5260119  22.2417021  23.8387179  26.5292931
  22.0220542  22.9072142  26.5124416  22.7962875  23.9400721  27.3028541
  77.8975725   8.5692126  34.5571661  78.1717587   9.4859785  34.5815492
  78.1709528   8.2603461  33.6933994  16.3356304  40.9888411  23.9097500
  16.6455507  41.7403555  24.4151282  16.9986463  40.8673859  23.2301235
  74.0200186  19.6202254  36.1325002  74.3104410  18.7274301  35.9459376
  73.3898735  19.8168778  35.4393387  68.2183790  17.3007500  39.6719527
  69.0347815  17.2917008  39.1723204  67.8640795  18.1795061  39.5359659
   6.1629331  50.2738237  55.0818634   6.6049540  50.9541941  55.5897427
   6.8711746  49.7132778  54.7649765   6.3252616  30.9161258  53.8961935
   7.1529043  31.3376784  54.1275644   6.1673576  31.1798334  52.9896879
  76.9500113  67.6621866  49.6439838  76.7155457  66.7372465  49.7198105
  77.2774029  67.8982210  50.5119324  10.9092665  12.9992783  38.4795690
   9.9525857  12.9857993  38.4510589  11.1196160  13.6386263  39.1601729
  36.8587446   7.4587220  16.9420230  35.9809685   7.6416332  16.6069341
  37.0364189   8.1749159  17.5517201  21.5575862  23.0262089  63.0938959
  21.2047672  22.4968672  62.3786688  21.9014382  22.3869872  63.7179089
  63.9883614   6.6236633   4.6393478  64.4699526   7.4188602   4.8673004
  63.9734793   6.1124301   5.4484528  24.8183846  61.7631102  24.7919965
  24.2589974  61.0443449  25.0864458  24.9577498  61.5920448  23.8605738
  74.3405724  22.3308349  51.7348814  74.3813181  22.9009771  50.9670877
  73.4084272  22.2803330  51.9465065  69.4016600  68.5396290  55.8152580
  69.1176033  69.3953037  56.1367559  69.8788023  68.7332582  55.0083685
  76.4643002  47.9886246  55.8577299  75.5647707  47.8428793  55.5647516
  76.3873005  48.6450768  56.5501022  41.0231972  63.3878374   6.8169153
  40.3470850  63.6147881   6.1784840  41.8291092  63.7540245   6.4527047
  63.4882402  12.8582895  49.9183416  63.3389044  12.1663618  49.2740059
  64.2981958  13.2808721  49.6326351  17.8147209  29.9621701  12.7309453
  17.6765239  30.5149078  11.9617820  17.8684068  29.0730715  12.3804390
   0.8407273  45.8652592  63.4281015   0.1208054  45.8498049  62.7974653
   1.0160087  44.9428177  63.6141491  41.5218592  71.7908859   7.9558611
  40.9637070  72.5643206   8.0364835  42.3906422  72.1418238   7.7601773
  32.5041294  32.5196481   7.4829811  32.4581409  32.4716926   6.5280902
  31.7502093  32.0129681   7.7848274   6.0481757  51.3887358  12.6750839
   5.0964522  51.4284849  12.7692902   6.1999029  51.4826918  11.7346668
  32.8844523  47.3916006  27.5072241  32.9985046  48.2044172  27.0147324
  33.6865473  46.8963432  27.3411036  72.1455574  37.6921487  26.5875649
  71.5083313  38.3732772  26.3725305  71.6296911  36.8870974  26.6323948
  37.1629381  66.3190699  19.8461616  37.7726221  65.7533884  20.3199983
  36.3274956  65.8531904  19.8810935   4.0587199  65.6874752  48.3680010
   3.7557280  65.2710629  47.5611353   4.3206894  64.9583149  48.9300728
  27.0536375  46.0479212  17.5773931  27.5790715  45.4188490  17.0830035
  26.1501741  45.8540821  17.3275650  26.2290263  21.3160515  24.0031528
  26.4295053  20.8237028  23.2071424  27.0557666  21.3392758  24.4850183
  63.5377455  46.5311146  31.5309572  63.0094051  46.1535120  30.8277440
  63.1719637  47.4059010  31.6620660  40.1696205  13.4813535  27.6293731
  40.6842041  12.6743495  27.6428771  40.6970739  14.0931785  27.1158624
  76.6014433  28.7133527   6.7151982  75.9079695  29.3521976   6.5502691
  77.2600317  28.8964033   6.0451353   4.6579686  50.6861401  35.8248091
   5.4017687  50.6741333  36.4271784   4.6609965  49.8172951  35.4231524
  30.3971839  57.5748253   8.1318980  30.9399819  56.9711018   8.6389714
  30.1618934  58.2644081   8.7526572  44.9868870  62.5282049  41.1586332
  45.2501822  62.3581076  42.0630550  44.4572067  63.3238983  41.2089968
  56.9736195  31.3006973  46.9282150  57.8145599  30.9402728  46.6468811
  56.6220093  30.6457257  47.5312138  29.6406960  48.7087584   3.5066062
  29.2707968  48.7986469   2.6283547  29.1586757  49.3443155   4.0357146
  10.2151418  57.9174471  60.6482792  10.3716004  58.7487030  61.0963535
  10.0503540  58.1633377  59.7379971  30.0763655  51.3493633  13.3457601
  29.2295980  50.9196424  13.2251155  30.4962039  51.2966347  12.4871635
  21.4650726  45.0712633  25.5626869  20.8739305  45.0995016  26.3150072
  22.2901106  45.4269552  25.8928800  26.8113518  62.8007746  26.5888834
  26.3423896  63.5603046  26.9344592  26.2537551  62.4764061  25.8817029
   0.7669397  56.5461588   8.5048640   0.4412206  56.8600464   7.6612920
   0.4440404  57.1859694   9.1393822  28.0794525  42.2976828  29.4598198
  28.5561156  43.0997896  29.6734738  27.4742985  42.5565958  28.7648511
  49.0674543  10.2821243   1.5902452  48.3848858  10.6460500   2.1540582
  48.6953259  10.3192770   0.7091257  10.0724673  53.4274054  19.3205726
   9.4082880  53.4725475  18.6327791  10.0168192  54.2742825  19.7632170
  16.5512228  65.9897757   8.6765277  16.6399741  65.2256680   8.1068790
  16.7639005  66.7341709   8.1136149  69.8406792  69.9935102   4.5137313
  69.7662401  70.5142069   3.7140033  69.1391373  69.3460274   4.4441324
  22.8590155  56.2204933  21.8158698  22.0602632  56.3167477  22.3344874
  22.8070211  55.3341389  21.4582300  73.0917645  49.7688580  62.7654076
  74.0442610  49.8320770  62.6947498  72.7664661  50.1144981  61.9341755
   4.8647738  28.7282109  42.0660686   5.6029719  29.1225982  42.5305653
   4.2323148  28.5205984  42.7539110  65.5602598   1.8077570  51.6300392
  65.8495426   1.9416852  50.7274818  66.3689518   1.7999181  52.1420813
  77.0276356  46.5530205  26.2483716  77.5061560  46.4286518  25.4287457
  76.5885878  47.3971224  26.1436725  75.1778984  41.4248085   4.2038447
  74.9505520  41.6353893   3.2981947  75.9728384  40.8961391   4.1345105
  58.6300755  61.2220144  34.7880840  58.3006954  61.5116549  35.6388760
  58.5946083  62.0048332  34.2383862  34.1351032  61.9989014  21.9880199
  33.3222580  61.5482235  22.2169352  34.0788913  62.8396463  22.4421310
  63.0097914  49.2315531  42.9729748  63.6616516  49.0829849  42.2879696
  63.3529902  48.7654686  43.7353420  62.5908279  52.3192215  60.6627464
  61.9562817  52.9539680  60.3300619  62.7528238  51.7327023  59.9238348
  65.6557417   6.9097996  41.2544632  65.0219488   7.6140165  41.3909101
  65.1220942   6.1189073  41.1773634  35.6130075  74.6131611   2.9715642
  36.5011215  74.9491024   3.0925247  35.7220888  73.8433933   2.4131814
   1.4650981  48.9910984  51.2309217   1.4406043  49.6496105  50.5366659
   2.3114645  49.1243696  51.6576958  45.7545376   7.6893961  25.7351613
  46.5399265   7.5083816  26.2515211  46.0783529   7.8175342  24.8435593
  32.0813894  71.8235159  36.5565014  31.5085340  72.4606848  36.9832134
  31.5163207  71.0699987  36.3857865  52.4251795  11.9456244  12.9507017
  52.4677229  11.4942765  12.1076679  52.4944353  11.2462628  13.6005712
  39.7447801   6.8830240  21.0317159  40.3809500   7.5501192  21.2895989
  40.0918770   6.5240383  20.2150846  68.6547518  10.0485814   3.9601979
  68.8115215  10.0260568   4.9042037  67.7178478  10.2261961   3.8771695
  22.5408673  57.5863409  27.9584527  22.5778198  56.7165756  28.3564115
  22.3349333  58.1738567  28.6855364   0.4616659  63.2493401  53.5528135
   0.1860604  62.3725080  53.2855415   0.1114000  63.3511448  54.4377899
  78.7997246  56.3935184  29.6341276  77.9519606  56.7383242  29.9145651
  78.6127520  55.4980087  29.3524599  53.1092739   2.2871935   8.4885705
  52.6398659   3.0355263   8.8572019  53.7299395   2.0336294   9.1717309
  51.4441681  22.2066832  36.3194418  50.5802774  22.6013756  36.2005329
  51.7455244  22.5400400  37.1645975  63.6373711  11.5063906  23.5623908
  64.5057392  11.3757193  23.9432955  63.7333345  11.2363625  22.6490951
  18.7653327  71.1522293   2.4703284  18.7474382  71.4138412   1.5497464
  17.8682089  71.2877846   2.7753288  21.8100262  72.1634388  44.6571350
  22.0849252  73.0765343  44.5739365  21.4363837  72.1049690  45.5364513
  28.9822054  44.8008442  36.0668135  29.4098353  45.5477953  36.4856553
  29.6751523  44.1463375  35.9791875  13.0457342  49.1360235  17.8764319
  12.6820314  48.4949160  17.2657478  12.3493457  49.7833633  17.9870069
  64.8761702  10.7616794   9.2965591  65.0037003  10.2694821   8.4855664
  65.2602863  10.2075279   9.9759728  20.9390116   5.5952764  47.2026014
  20.0122452   5.7018179  47.4170399  21.3608027   6.3717443  47.5705957
  57.3031092  12.6046622  17.8712142  57.7910233  13.2078779  17.3105872
  57.8752375  12.4627435  18.6253762  49.9539661  12.0965767  16.7646098
  50.7797956  11.8180299  16.3688266  49.6251822  12.7779984  16.1782646
  40.4760504  22.1967196  20.9740233  41.2567520  22.6631546  21.2726378
  39.7685981  22.8361273  21.0570931   7.3125958  15.4838812  33.7229013
   6.6349947  16.1437738  33.8699698   6.9326061  14.8907065  33.0748391
  33.8605809  60.1326418   5.0744933  33.5127831  59.4004202   5.5835283
  34.5370817  60.5136204   5.6343484  46.2468195   4.0849334  26.2293196
  45.8695316   4.4619668  25.4345036  47.1276283   3.8135639  25.9709263
  29.3486214  43.6355066  10.0159478  30.2223897  43.8405514   9.6832061
  29.4052958  43.8025951  10.9567463  53.4430313  39.2169142  47.8157520
  53.7012768  39.9874592  47.3099804  54.2630386  38.7499762  47.9763508
  49.2687321  14.5459378  55.1414204  50.1066828  14.9110186  55.4256487
  49.5021915  13.9046192  54.4702768  15.9273648  62.8992796  27.4880219
  15.6043553  62.5355482  26.6636443  16.7378688  62.4199772  27.6600266
  65.3556728  30.5662990  44.3175745  66.0367537  29.9052858  44.4417667
  64.5575571  30.0614548  44.1614485  53.9503860  58.5230446  18.6741531
  53.9412117  57.6723385  18.2354653  53.8327408  59.1581106  17.9676950
  15.4716659  54.7644711  36.7570949  15.3533471  53.9435005  36.2793493
  14.5818913  55.0577593  36.9533443  78.9109230  56.9938135  36.0659790
  78.8446856  57.0497274  37.0192456  78.9243793  56.0546589  35.8814979
  22.2509909   4.4512770   0.9919124  22.2229743   5.1560253   1.6390422
  22.7660322   4.8100346   0.2692381  24.0914464  54.7762537   3.1734145
  24.6892786  54.9784184   2.4537198  23.2221794  54.9760437   2.8260103
  57.5021458   0.9592891   6.6575170  58.2820702   1.4570057   6.9029379
  56.8473244   1.6263649   6.4514881   1.3591576  73.9407063  34.7894120
   1.0089633  74.7623873  34.4452667   1.8162777  73.5455751  34.0470219
  68.1936216  26.5915322  49.8919058  68.4733248  26.6159725  50.8069992
  67.4119616  27.1433926  49.8655510   1.0475109  20.3775334  39.8637700
   0.3540658  21.0230494  40.0004292   1.8590930  20.8814454  39.9240994
  26.3507223  73.4867811   2.1081224  27.1788621  73.7666988   2.4980758
  25.7693672  74.2397642   2.2143133   0.5622120  72.7927780  29.6831369
   0.6168603  72.8824186  28.7317109  -0.3472389  73.0061340  29.8919654
  49.7122812  20.3478718   4.7244412  50.3346825  20.8328629   4.1825661
  49.2965412  21.0166669   5.2685940  19.1098809  55.1079035  18.8414049
  19.7295547  54.7434807  19.4734108  19.3497288  56.0322905  18.7764990
  48.8582182   3.9435893  25.0257015  48.7883377   4.5332527  24.2749381
  49.7698307   4.0211076  25.3071022  17.0318794  53.1471491  23.9264297
  17.3903167  53.0778694  23.0415821  16.6297972  52.2939253  24.0894532
  11.0134494  22.2160149  17.5460124  11.7503333  22.5586557  17.0402133
  10.4511285  22.9761672  17.6949954  37.9954505  56.6929483  16.2012684
  37.8126669  56.6234922  15.2642536  37.3924923  57.3675966  16.5135491
  67.5384140   5.8845776  49.3013906  67.6807690   5.0956023  48.7784290
  68.3553791   6.0010833  49.7863960  24.0519977  73.7965965  19.4238162
  23.1473255  73.6522007  19.1464174  23.9914346  74.4784498  20.0928736
  44.7951889  59.2777109  12.8948355  45.5142450  58.7572479  12.5366223
  44.3403196  59.6195412  12.1251118  21.9752860  56.2382650  44.9834585
  22.5396228  56.5525913  44.2770910  22.5639725  56.1308908  45.7305574
  48.0761957  64.7423363  13.1985724  47.5993538  65.5428553  12.9794300
  48.9287996  64.8482990  12.7765882  65.8418179  11.4126170  29.0838051
  65.3633356  12.1515298  29.4597006  66.7104101  11.7641914  28.8884354
  76.5867901  66.7415714  24.4951296  76.3978434  66.4565611  23.6010957
  75.9742451  66.2462807  25.0389171  18.4749949  68.0852032  37.7414680
  18.6708558  67.7013493  36.8867612  18.5162127  69.0301943  37.5947475
  52.2852039   5.1759976  36.8905616  52.5659657   4.2973766  37.1463490
  51.6795397   5.4445183  37.5814319   2.7953696  42.2624445   5.1513958
   2.5912264  41.4258146   5.5692565   2.9113400  42.0460844   4.2262083
  29.3121886  59.1241264  41.3904047  28.4581876  59.5473528  41.4786911
  29.9407101  59.8456621  41.4144897  24.0115380  18.4607708  30.7290101
  23.1523132  18.8809228  30.6911039  24.2679882  18.5225761  31.6491413
  76.1060953  15.6316757  14.2453194  75.5568790  14.8659921  14.0770257
  76.7707491  15.6056404  13.5569930  -0.2747409  11.0245132  25.1512265
   0.5775481  11.3032925  24.8163891  -0.1192142  10.8389580  26.0773015
  28.2420874  52.7831364  26.1631346  28.1673050  53.4193611  25.4519010
  27.7350473  52.0284843  25.8637261  29.8457098  54.4388676  22.9478312
  30.1147676  55.1437902  22.3588324  29.0386748  54.7586584  23.3511448
  47.9479885  29.1112852  26.2757826  47.9718971  29.7256899  27.0093822
  48.0633116  28.2512331  26.6798210  34.3802309  26.5695882  28.0939102
  34.8914051  25.7854915  28.2942271  33.4687948  26.2870097  28.1691670
  72.9673195  66.1585093  40.8353233  73.2727003  65.9577274  41.7200041
  72.4899912  65.3747559  40.5630684  70.1337290  37.7172685   9.8765463
  70.6091833  38.1423736   9.1627800  70.2226257  38.3192062  10.6154633
  32.4325228  39.4970226  31.2482405  32.2582722  39.4462538  30.3084040
  32.0442176  40.3288937  31.5192342   7.1353459  44.3935204  38.4948564
   7.0199180  43.9969683  37.6313448   7.5941259  43.7263680  39.0054059
  55.0354338  22.1001291  32.4026799  54.0881920  21.9644952  32.3789001
  55.3468704  21.4970803  33.0776405  67.3511839  36.4101624  38.1017327
  66.8221712  35.7857895  37.6052070  68.0630112  36.6470098  37.5072289
  34.5683789  54.1997051  21.1638951  34.4414425  55.0041485  20.6609058
  35.5183029  54.0880394  21.2013745  36.0236192   4.1261220  16.6054344
  36.7733216   3.5448423  16.7330766  36.3758850   4.8663467  16.1112607
  34.5458627  26.3732958  44.6338844  33.8388753  26.7281461  45.1728487
  34.4810104  26.8525958  43.8078737  27.9641390  57.6149464  22.7386999
  27.0759010  57.3777628  22.4722195  28.3810091  57.9240465  21.9343925
   7.3408157  31.5087891  39.4011140   7.6598895  31.1270595  40.2188587
   6.7843997  32.2368765  39.6777415  66.6001892   8.6598843  58.4759378
  66.8546629   9.5341706  58.1808186  65.8044386   8.4625119  57.9819107
  39.6911502  28.3368683  30.2011991  39.7016549  28.5774279  31.1276174
  40.2022600  29.0217996  29.7700763  51.6518211  74.5610571   3.5035273
  52.0062065  73.7444830   3.8554478  51.9510937  74.5799398   2.5945109
  10.9742618  71.0036087  10.1668513  10.7108963  71.1032534   9.2520058
  11.8273079  71.4347029  10.2188325  37.3881531  56.8907452  23.4594560
  37.5217509  56.0229683  23.8407016  37.9322720  57.4720955  23.9906812
   0.2741872  42.2828436  52.1962690  -0.4732934  41.7079067  52.0320797
   0.3369422  42.3275471  53.1503582   3.2574758   6.4934510  10.4895449
   4.2096940   6.3973784  10.5063462   2.9413414   5.6782907  10.0999236
  37.7577114  48.5261345  17.3210168  38.7037349  48.6710691  17.3048246
  37.6186800  47.9344130  18.0604541  66.1573076  49.2190790  26.8916965
  66.2601042  50.1160765  27.2096038  66.8112516  48.7164116  27.3774004
  77.5072908  74.2177057  14.2113698  77.5540829  74.1089964  13.2615149
  77.6711702  75.1499081  14.3541181  21.0466409  72.3765421  52.7552509
  20.1812649  72.3367357  52.3480988  21.0205889  71.7073202  53.4391308
  54.1816998  20.2519298  21.1063194  53.7458372  21.0203910  20.7379150
  53.4682894  19.6484017  21.3137579  27.3320889   3.1871930   7.8095549
  28.2092047   3.0828959   8.1783664  26.7934966   2.5594527   8.2913113
  27.2024393  44.9536705   2.0927437  27.2834349  45.5686140   2.8217971
  28.0612063  44.5346689   2.0362951  68.4608364  10.5033207  31.6303658
  69.3235016  10.3597462  32.0195007  67.8529930  10.4459560  32.3675656
  78.4830618  38.0925369  24.8789763  78.5242319  38.3893132  25.7880759
  78.4118176  37.1400070  24.9409699  75.1480436  33.1798291  36.8797517
  75.5923128  33.1518316  37.7271438  74.7136354  32.3298335  36.8088675
   3.5610878  47.1794844   8.5632044   3.5381338  46.2315035   8.4326655
   3.6566857  47.5403786   7.6818156  25.6187010  70.8641052  15.3921688
  25.3860688  70.5410480  16.2626565  25.8923149  71.7697001  15.5380070
  38.2923126  70.9353447  13.0694795  38.1519580  70.0006151  12.9184258
  38.4326458  71.3007069  12.1959519   6.3888931  50.7695770  44.3247080
   5.5576795  51.2420082  44.3707895   6.1465490  49.8844528  44.0525627
  40.6579542  71.0429096  10.7484531  39.7358704  71.2995052  10.7359648
  40.9358740  71.1036682   9.8345047  46.0194254  73.8490677  47.9020548
  45.8498812  73.7504101  46.9651651  45.1990461  74.1889095  48.2594299
   9.3522888   4.2110673  17.6421833   8.7291086   3.6922410  17.1335602
   9.0210706   4.1712487  18.5393679  58.6550713   1.7671967  21.9194794
  59.6045828   1.8398574  22.0163178  58.3445978   2.6726422  21.9168591
  64.3392277  21.4925146   8.6259598  64.3294334  20.9642243   9.4241101
  63.5566521  21.2184620   8.1477249  55.7809067   2.1043465  37.9219484
  56.7194748   2.2921157  37.9140139  55.6658173   1.4303580  37.2520781
  39.2246056   2.5908986  42.3263454  38.4248614   2.6776490  42.8451061
  38.9586687   2.8206924  41.4360046  31.4668751  65.4824734  11.5212345
  31.8120384  66.3079214  11.1810458  31.6665840  65.5069017  12.4570501
  51.3614702  63.9573431  34.9830627  51.3187170  63.2535601  35.6304359
  50.4565001  64.2562532  34.8941159  31.3520789  18.5082471  20.5182409
  30.6091881  19.0416634  20.2357340  31.8819380  18.3982301  19.7286999
  40.9113503  12.9264712  24.3889093  39.9739122  12.7952957  24.2466497
  41.3030052  12.0721328  24.2074060  41.2069559  65.7464933  54.5826769
  41.0110807  66.0952520  55.4522896  41.5280485  66.5009546  54.0887928
  69.1005945  26.5320754  15.3277051  69.8216343  26.9327784  15.8132601
  68.4057903  27.1902609  15.3441489  51.0563946   3.0281544  32.6288867
  51.4577627   3.8569683  32.3677301  50.3344536   3.2822862  33.2037330
  44.3928957  60.7526779  49.1819572  45.2689743  60.9379482  48.8437366
  43.9238548  60.3749466  48.4379482  77.3636627  39.3818092  22.8034830
  77.5555944  40.3016329  22.9860067  77.7106047  38.9099383  23.5605836
  51.8000507  64.4403219  17.8460741  52.1090126  63.5441160  17.9786837
  51.8200302  64.5625782  16.8969238  41.1008453  65.0656605  29.7643209
  41.0660362  64.6460629  30.6239486  41.4259911  64.3828869  29.1775203
  71.2928486  15.7505918  25.2979183  70.7386589  15.9059215  26.0627580
  72.1704912  15.6265354  25.6592870  26.3561606   4.4955572  52.3894453
  26.9440174   4.8606521  51.7281103  25.7801151   3.9083916  51.8999195
  54.6594572  12.3251736  41.1106062  54.6299124  12.9159021  41.8632030
  55.5415392  11.9540811  41.1318922   6.1207271  10.9215105  37.8469729
   5.6872606  11.6949487  37.4862361   6.2029362  11.1074281  38.7823391
  49.9749136  69.9284458  42.9939508  50.7624388  69.7740269  43.5156679
  50.2905512  70.3818607  42.2122717  65.7813549   8.3344609   5.7472634
  65.0569344   8.7010700   6.2542647  66.0375643   9.0387917   5.1518595
  32.1636534  71.2226391  33.7025714  33.0572295  71.0287809  33.4194279
  32.2518897  71.9937277  34.2628098  32.0388842  51.3560104   6.2528771
  32.0265198  50.6883001   5.5671364  31.1270952  51.4257479   6.5357369
  43.8113880  64.0135050  46.8006563  43.1004190  63.4413624  47.0894623
  43.8874197  63.8456011  45.8613729  44.1720772  69.8470068  44.4187689
  44.4999647  70.2835798  45.2049780  43.3182049  69.4994211  44.6762848
  71.3898087  29.1355681  43.5082579  71.6945457  28.7072849  42.7082968
  70.5815840  29.5785284  43.2498169  75.7353878   3.0471855  16.3347042
  76.2757874   3.7828436  16.0465908  74.9094248   3.4482267  16.6052282
  36.0743284  66.1108065  40.9197092  35.2607489  65.9224129  41.3875008
  36.2812161  67.0155859  41.1538172  51.9631481   4.7869337  12.6753128
  52.4131203   4.7781500  11.8305159  51.1626387   4.2839611  12.5255394
  24.4888282  50.9329939  58.1473494  23.6061263  51.2023354  57.8933239
  24.8728585  50.5824280  57.3436975  69.6688271  35.5526567  48.8719416
  70.6010389  35.7380652  48.7586308  69.6439123  34.6765184  49.2566442
  72.7082109  23.6600828  35.3177857  72.5126505  23.8065314  36.2432814
  73.5998726  23.9898515  35.2062988  78.0521917   4.3420172  46.4695740
  78.1861734   4.5442334  45.5436230  77.2158194   3.8771626  46.4946318
  38.4181571  71.1754465  24.3349218  37.4829960  71.3217545  24.4773984
  38.7044144  71.9338512  23.8258910  39.5813775  73.8072300  35.3415179
  39.3577862  74.0677929  36.2350202  39.2532396  74.5210218  34.7946596
  25.1329613  71.9928217  34.5037198  24.4148135  72.2848463  33.9422774
  25.7545304  72.7207088  34.4956017  57.4572468   8.4228575  17.1406221
  58.2570648   8.4817743  17.6631665  56.8642998   9.0609157  17.5375199
  78.9173889  43.8618183  59.2530870  79.2328739  44.7321606  59.0097713
  78.8056135  43.4057379  58.4189796  52.9739189  49.3044090  47.3653460
  53.6561823  48.6344385  47.4087667  52.1533060  48.8141823  47.4154043
  71.9254971  31.2431979  31.4472795  72.2564507  31.4812851  30.5812430
  72.5650835  31.6105032  32.0573974  45.3512287   0.8117297  29.8926425
  45.4238844   0.4721659  29.0006518  45.8290863   1.6408822  29.8729467
  49.4963074  61.0780334  42.2799492  49.0765142  60.7215214  41.4970684
  49.5758009  60.3293896  42.8710890  23.0191159  73.3550835  12.3339391
  22.7767563  72.4675131  12.5979638  23.0788946  73.8416290  13.1560910
  46.1036205  12.4318266  10.7268083  45.5067873  12.9584563  10.1951301
  46.8776703  12.9841948  10.8362269   4.2232510  63.7509203  30.5459261
   4.3146491  63.9905071  29.6237135   4.8785537  63.0665350  30.6816697
  40.4289579  70.3856516  26.1228967  39.7228074  70.6411076  25.5293274
  40.6717634  71.1967850  26.5693736  44.8743057  63.3851624  64.4796276
  44.2006731  63.9525938  64.1048288  44.9178791  63.6413574  65.4008770
  36.1318994  19.3693495   6.9621265  35.5341268  19.9379504   7.4475062
  36.3915658  18.6993313   7.5944871  78.0326509  14.9561298  12.3451436
  78.2063055  14.1710913  12.8645551  78.7112141  14.9515951  11.6700399
  11.0473585  62.5110054  18.1589282  10.5649269  62.8323317  17.3971927
  11.0545659  61.5596008  18.0540001  29.4071865   6.1766607  39.1253138
  29.6738195   5.2574790  39.1096926  29.5705867   6.4886034  38.2352424
  10.3329992  22.6277733   9.5310736  11.0705733  22.5227833  10.1320672
   9.6661639  22.0265961   9.8629576  59.4592094   3.6771381  41.9439697
  59.7009563   3.6865079  42.8700924  58.6602020   4.2023656  41.8996716
  28.0062008  69.1723537   1.2876299  27.4320745  69.7298813   1.8127751
  27.7003169  68.2822037   1.4616874  35.9228158  68.2714605   9.7238249
  35.4332137  68.8169813   9.1082555  35.7596803  67.3747587   9.4313490
  70.7230425  54.2002964  54.2976999  70.0218439  54.0484762  53.6640549
  71.1311913  55.0176287  54.0120173  52.2384214  73.8751650   9.6535611
  51.9102859  74.2282772   8.8265955  52.9613733  74.4555426   9.8917490
  22.1356869  17.3604405  19.5738745  22.2356725  16.4625394  19.8901141
  21.9631171  17.2666061  18.6370468  39.2409229   7.0584673  27.3139143
  39.1043639   7.3351204  28.2200313  39.4858217   6.1354613  27.3796177
  19.7033846  32.8575873   4.8025909  19.1276205  32.1007395   4.9117130
  20.5217075  32.4898577   4.4688892  71.7440748  51.3450193  64.5606184
  72.1998787  50.6839228  64.0396309  71.1762953  51.7939520  63.9342690
  50.0088263   1.7836294  17.4538410  49.9298286   2.6905748  17.7495456
  49.4398165   1.7316741  16.6858804  72.9917574  44.4796371  51.0794783
  72.7278471  43.9582825  51.8376160  72.2171211  44.4940901  50.5173683
  50.0663614   3.2339320  21.7236233  49.5111942   3.2780629  20.9451151
  49.9172449   4.0665585  22.1716499  27.2950315   8.7941122  21.8544221
  27.9312682   8.5716408  21.1747599  26.6944885   9.4062811  21.4291835
  16.9029462  42.7548265  36.7486525  16.6335487  43.5929203  36.3728070
  17.8409064  42.8555298  36.9108868  62.7976561  71.8655729  22.7753210
  62.9849720  72.2314835  21.9108844  63.6093426  71.9871378  23.2678819
  29.7809696  72.8541374  37.8208184  29.8507333  73.6441708  37.2848964
  29.1483045  73.0819273  38.5020494   7.4382162  57.1980619  24.4814754
   7.6492369  56.2958813  24.7218204   6.5936613  57.3660040  24.8995137
  61.8417645  32.6343107  34.6562910  61.9155598  33.3146095  33.9869785
  62.7416182  32.3415542  34.8004723  25.8650470  16.4041853  11.1359167
  25.9433722  17.2997618  10.8072221  26.3274860  15.8705640  10.4896736
  69.9280405   7.6859623  44.8132992  70.3399611   8.5230690  44.5992708
  70.6450129   7.0523608  44.7862053  55.9316921  61.5945530  64.0626526
  55.6535673  60.7074833  64.2906475  56.8448544  61.4973021  63.7926483
  19.4427061  56.1421251   2.1105263  18.9686966  55.3105545   2.1039727
  19.0736532  56.6223478   2.8517520  65.6443596  30.2292418  17.2588527
  65.0762892  29.5263958  17.5743401  66.1966610  30.4461789  18.0099416
   2.1195196  36.0491872  19.9079704   2.2323194  35.2306414  19.4247639
   1.1923023  36.0613632  20.1453567  70.3381300  69.1191053  32.4478745
  69.8335266  69.9149370  32.2797799  69.6783113  68.4543800  32.6453996
  43.8484859  63.3575773  44.0957117  43.2444525  62.6179504  44.0299702
  43.5840034  63.9463663  43.3888817  62.1915340  65.5301809  45.0836277
  62.8740311  66.1135435  44.7517824  62.1246290  65.7447386  46.0140657
  60.8781576   5.6929266  40.2774763  60.8404112   5.5558670  39.3308926
  60.4314280   4.9316204  40.6477213  49.4974184  71.6006041  26.5265369
  49.2097282  72.1917343  25.8308125  49.1040611  70.7572937  26.3021946
  53.6719084  23.1766915  29.4412804  52.9345846  23.2437301  30.0479865
  54.4238615  23.4924841  29.9423480  34.9599576  70.5646515  54.5778370
  34.1837454  70.3526926  54.0593767  35.2134418  69.7339153  54.9801493
  69.0459156  33.3294058  50.3086042  69.4278097  33.3566570  51.1858988
  69.0082026  32.3976493  50.0926352  64.5192099  45.3980589  14.3083334
  63.7734032  45.3769588  14.9079680  64.6729326  46.3294649  14.1499734
  61.3923693   1.5220927  22.8217101  62.1451950   2.0385385  23.1094050
  61.6984701   1.0699081  22.0355415  46.6417599   5.5438614  33.5214758
  46.4878893   4.6368524  33.2571101  45.9250069   5.7426178  34.1239619
  20.1300955   1.3049349  17.4663925  20.6081843   1.2865423  16.6373420
  19.2900014   1.7092025  17.2495019  21.4871001   5.9059924  11.2969840
  21.4803314   6.5662479  10.6039834  21.5912819   6.4081377  12.1052086
  60.6840515  27.0861268  30.7145309  59.8617125  26.6688776  30.9712195
  61.0794449  26.4743090  30.0935841  79.1809129  66.7890358   8.2146090
  79.4503226  65.8707285   8.1955785  79.8662800  67.2293425   8.7172323
   3.6711422  49.7849083  60.9272623   3.9649487  49.2931461  61.6941214
   3.6925316  50.7000780  61.2069750  71.1549330   8.7316221   0.6832150
  70.2618790   8.8095373   1.0187988  71.1153984   8.0026829   0.0640897
  30.6427574  22.5892806   4.3750873  31.0236907  23.0502152   3.6276513
  29.9152708  22.0904279   4.0034148  55.9860325  67.4476480  21.9355726
  56.5151215  67.8913546  21.2726831  56.5271807  67.4649668  22.7249336
  67.0786190  13.0248857  52.1752071  67.1066618  12.3231995  51.5247631
  66.9029522  13.8163340  51.6663074  63.2923985   8.2151961  18.8621199
  64.2409658   8.2455385  18.9867711  62.9553890   7.8444618  19.6777248
  42.7152395  31.5504575  25.4800415  42.6898050  32.5051904  25.5438399
  41.8067169  31.2775779  25.6079483  58.3596420   6.6966158   2.5239491
  58.2702637   7.5009030   2.0127112  57.5774193   6.6750431   3.0752128
  18.8130462  69.3928957  31.9017816  18.8358307  68.5899782  32.4223948
  19.7207057  69.5274782  31.6292524  25.6631827  72.3543596  37.3431492
  26.2627411  72.2161531  38.0764055  26.1025167  71.9499540  36.5950370
  43.7001228  67.0404625  28.4269452  43.8014507  66.8284035  29.3548441
  44.2570210  67.8076172  28.2943821  62.6997519  12.0206201  31.3575768
  61.8994331  11.5475869  31.5855384  63.2629967  11.9222879  32.1252465
  67.1439457  20.3390670  54.0019464  67.3860073  20.8067203  53.2026100
  66.8971634  19.4641614  53.7021637   6.5443081  14.8344517  51.8404102
   7.0472646  15.2108645  52.5626135   6.1482769  14.0453100  52.2100639
  48.9177704  10.7110107   4.7655123  48.8667631   9.7602224   4.6673682
  48.2712221  10.9171391   5.4405826  65.4388332  59.0826035  20.3182268
  64.7367954  59.3654776  20.9041977  66.1795950  59.6457767  20.5425954
  50.3492451  68.9931154  49.9008369  50.5948353  68.2328367  50.4279900
  49.4703722  68.7891054  49.5811558  15.5720091  21.5162182  35.4358578
  14.8297238  20.9609914  35.6745386  16.3239300  21.1086512  35.8656669
  25.6668854  17.0732856  15.1924729  26.2538671  16.7889225  15.8930612
  25.1908183  17.8153121  15.5652845  23.4651875   7.6926231  36.6250682
  23.5536218   8.4577483  37.1933937  24.0518522   7.8711134  35.8900857
  75.3511286  19.2260909  49.4110870  75.9026957  18.6308336  48.9034700
  74.5529556  18.7260807  49.5817852  65.7665157  31.7550969  24.1916156
  66.6184902  31.9679904  24.5724654  65.9611797  31.5240002  23.2833576
  49.9448156   9.1087902  39.8795557  50.2295780   9.0080541  40.7878447
  50.2042341   9.9997109  39.6446228  50.4185724  18.0683100  31.7487907
  51.3049746  17.7386069  31.8965006  50.0998640  17.5697494  30.9963965
  70.6504488  12.8524268  10.6300569  70.7963896  13.7954128  10.7056165
  69.7184420  12.7697229  10.4281723  50.9298801  72.2103357  21.3217187
  51.7071629  72.3411369  20.7786202  50.1980019  72.2507429  20.7061243
  53.8359928  52.0278835  40.7970142  53.5080004  52.9252338  40.8554125
  53.4637070  51.6893148  39.9827600  78.6750364   0.5503924   0.8395223
  78.9810085   0.9225933   0.0124316  78.4379053   1.3103601   1.3709825
   6.3258666  27.2037864   9.7113025   7.0289242  27.8500485   9.6458262
   6.7669195  26.3595915   9.6162295   1.9470997   6.3017869  13.3328032
   2.0469123   5.3620744  13.1804574   2.6550248   6.7027086  12.8284872
  69.8104715  69.4242716  28.6147785  70.0815487  70.3405809  28.6707091
  70.4464149  69.0220451  28.0231500  59.0754890  13.3008575   6.2222332
  58.5734892  12.7076149   6.7810637  58.6138010  14.1370118   6.2848938
  27.3918819  47.0386696  12.2376943  26.8163538  46.8930149  11.4868402
  27.4715137  46.1779976  12.6489496  18.1188083  71.5012789  26.2130857
  18.0633080  70.5958414  26.5185905  17.4323118  71.5727901  25.5498815
  38.2376122   7.8783524  10.4501104  37.5260115   7.2383237  10.4352510
  37.8790092   8.6456144  10.0040770   9.8984158   1.2090063  25.2486634
  10.0650144   0.7349659  26.0633779  10.1223421   2.1175781  25.4501224
   4.5107496   6.3720936   6.1635303   4.3915516   6.2121075   5.2273524
   3.6415765   6.6231209   6.4761883  34.8804545  12.7457237  31.0487890
  35.5095458  13.4636343  31.1200690  34.2613792  13.0353975  30.3786635
   0.7639934  12.5252557  47.1689177   0.5601007  11.5983689  47.2935724
   0.8879534  12.8645480  48.0553389  11.8636882  51.3892698   0.2936903
  11.6603410  50.7949018   1.0159128  12.7460229  51.1395550   0.0191726
  32.5431848  33.1970549  12.1735930  32.6602244  33.5603046  11.2957656
  32.4166894  33.9622736  12.7345490  70.2482891  71.6817951  44.9938202
  70.6524134  71.4648294  45.8339643  70.9321928  72.1470594  44.5121193
  22.6593720  74.5272218  38.9956379  22.1565806  74.8899736  39.7249150
  23.0508792  75.2907507  38.5714006  65.7841825  63.6378241  13.5041773
  64.8649549  63.9038944  13.5255575  66.1839390  64.0979433  14.2422283
  54.4582891  29.6420288   6.0203874  54.0000391  29.3065429   5.2498764
  55.3802204  29.6564317   5.7633549   1.7029971   4.7811502  16.9953942
   2.3514764   4.1783804  16.6315603   2.2216675   5.4467100  17.4473262
  68.7462330  37.2698545  15.5382001  68.7450933  36.6713405  14.7912002
  69.6732712  37.4178433  15.7251179  36.0639834   5.2176368  31.8665004
  36.2634277   5.2226615  32.8026795  36.9184327   5.2777106  31.4392543
  76.5666580  37.4429369  21.0844469  76.8373251  38.2374954  21.5444970
  76.4590931  36.7903852  21.7764258  66.5150309  74.0676832  19.9068594
  65.8576107  74.7309256  19.6967697  66.1718464  73.6283112  20.6849384
  25.9595132  20.6008935  42.2836590  25.9211326  20.9373140  43.1789684
  26.4228106  21.2793875  41.7925024  35.2369452  66.4310646  62.7218628
  34.5197821  66.5237713  62.0947170  35.0291014  67.0550394  63.4173393
  10.2751267  74.6731949  15.5279315  10.1599121  74.4395971  14.6068501
  10.6157768  73.8772106  15.9360945  56.4736080  10.6414735  56.3717461
  57.2598505  10.6287801  55.8259487  56.5380716  11.4588678  56.8656492
  33.5074568  11.7173719   3.9164892  33.2736015  11.2283695   3.1275529
  34.4398093  11.9076276   3.8127920  10.1738262  14.2798233  25.0867605
   9.5970809  14.8490322  24.5772552   9.7662735  14.2384791  25.9518766
  31.0083866  34.1522932  60.5678225  30.1555538  34.3696809  60.1914549
  30.9256697  33.2370973  60.8357859  37.2539759   7.2132587  22.2151661
  37.1158600   8.1499159  22.3559833  38.1295156   7.1550971  21.8327045
  23.1043744  20.6380248   1.5617353  23.7667656  20.6085634   0.8713728
  23.0532742  19.7378719   1.8832088   1.0073991  30.3823495  13.2658172
   0.3080998  29.9261022  12.7977896   0.5610484  30.8346438  13.9816606
  17.6715195  12.7892232  10.2166748  18.5524392  12.4270272  10.1216567
  17.6743484  13.5731649   9.6674412  39.8398399  54.1741133  15.7954085
  39.9249625  55.0880241  16.0669708  38.9003134  53.9969921  15.8417559
  26.0016513  32.1620917  27.4006844  25.1110077  32.2847009  27.0721245
  26.3977671  33.0319691  27.3493004  60.2715397  51.6060638  43.6353827
  60.5739069  51.2327719  42.8074598  61.0732603  51.7637253  44.1340017
  15.5023789  10.7504559  20.6780195  15.0601518  10.7536912  19.8291051
  15.7033205   9.8286909  20.8398938  25.0493741  40.1802397  24.2198634
  25.4933977  40.0594044  23.3805346  25.5118132  39.5969248  24.8216319
  12.6145099  58.8573690  64.5327304  12.8662418  59.7802850  64.4997461
  11.9929050  58.8044544  65.2587026  13.0531442  66.1776829  18.1682694
  13.1015372  65.2845287  18.5090971  12.2960758  66.1698580  17.5825918
  32.5676751   2.6515168  10.0838196  32.0600772   3.4584707   9.9977875
  33.1649756   2.6633960   9.3359405  23.6984682  35.6526566  13.1116724
  23.4306431  35.4149866  12.2239697  24.0254259  34.8363709  13.4898388
  31.6420650  20.5619931  26.8372464  31.9007397  19.8540020  26.2472725
  31.8318748  20.2254057  27.7129817  10.9541702  43.4929991  21.1676908
  10.1070654  43.9206171  21.2933588  11.5627670  44.2121935  20.9985685
  38.4647083  26.2281489  10.9622622  38.1851530  26.3834429  10.0600624
  37.8970385  26.7906666  11.4890981  28.1317496  27.3342490  10.5255687
  28.4421110  27.2536874   9.6236718  27.2851372  26.8876266  10.5283237
   4.8648545  10.1876724  10.1627290   4.9965018   9.4782954   9.5336932
   4.0952250   9.9218118  10.6659389   9.4601238   7.9131705  42.9688644
   9.9325264   7.8796858  43.8006973  10.0829589   7.5741982  42.3258972
  77.5968599  17.8250134  48.8023853  77.8761435  18.1966066  47.9656363
  78.2902575  18.0682039  49.4158077  49.2824411  57.1407938  14.0116489
  50.1395416  56.9191456  13.6476636  49.1751385  58.0727291  13.8213396
  69.4258070  53.4263515  42.1728897  69.9430799  52.6504612  41.9568872
  69.7773743  54.1137314  41.6070795  64.6915340   5.9753734  31.6602039
  65.3618908   6.5469998  32.0345068  64.1081810   5.7784927  32.3931193
  22.6966810  29.8771405  11.8995571  23.3324552  29.1620231  11.9246173
  21.9143510  29.5168352  12.3171341  74.2960167  33.2974029  12.5414014
  75.0121975  33.9294338  12.4793172  73.6005306  33.7678933  13.0009282
  36.7894650   3.7513125  48.8019133  36.2127709   4.2082971  48.1896877
  37.3180962   4.4450498  49.1962624  60.2948523   4.6748728  61.8315649
  60.5858326   3.7941074  61.5953112  60.4521370   5.1979750  61.0455227
  65.3441620   5.9305310  58.7130165  66.1384249   6.4603645  58.7812614
  64.6300364   6.5480024  58.8710690  68.0173922  71.1711121  57.1846151
  67.8236485  71.1261654  58.1209278  67.3634481  71.7754936  56.8334579
  68.4813309   9.7691405  15.5292559  69.1571522   9.9073386  16.1928844
  67.8947783   9.1193169  15.9164417  21.4953852  21.4995885  35.5102324
  22.3720384  21.8391490  35.6902623  21.3186312  20.8975148  36.2330723
  19.6025717  23.3092690  41.0768986  20.2097869  22.8921866  40.4656982
  19.1015077  23.9205909  40.5370331  30.8987117  58.6088514   3.4869716
  30.0879502  58.1862640   3.2035762  31.3112283  57.9700518   4.0683469
  48.3486176   6.3527066  57.9287100  48.8377047   6.3060135  57.1072197
  47.5260496   6.7820841  57.6936531  28.0633211  24.4186330  32.1352816
  27.7933860  24.3427014  31.2200761  28.5451150  25.2447796  32.1751380
  72.8698206   3.7732050  33.0101490  71.9784403   3.8072607  32.6630068
  73.1105757   4.6901557  33.1423259  68.1607342  59.9250746  42.4111605
  67.5375032  59.2426682  42.6604366  68.2528114  60.4639578  43.1968784
  68.7028790   5.9058619  21.5271664  69.2201233   6.7088318  21.4644694
  68.4480333   5.8564472  22.4484921  40.5460644  50.8553696   5.3776693
  41.4269209  50.5314159   5.5657518  40.6868219  51.6285133   4.8311624
  70.3785419  17.4395108  23.0718946  70.6021357  16.8766820  23.8131523
  70.9162426  18.2218730  23.1944561   9.5432776  17.2575629  25.5796957
  10.2502561  17.2611439  24.9344039   8.8807762  16.6765153  25.2059221
  28.5821033  23.8977432  14.6765149  27.8813863  24.4361567  14.3086314
  28.9682031  23.4571815  13.9195061  11.5245056  17.1797943  19.7633529
  12.2525847  17.7620304  19.9804556  10.9238040  17.7261806  19.2565477
  41.1734104  31.0824466  10.4023063  41.2858391  31.7962527   9.7745562
  41.3317394  31.4865994  11.2554324  66.5767908  38.4097815  44.5852280
  66.5151024  37.8252673  43.8297367  66.0679102  37.9729605  45.2682018
   4.6164015  39.6477032  27.4108648   5.0662446  40.4510450  27.1491098
   3.7000704  39.9069524  27.5076032  56.4699745  52.6070738  15.4757798
  56.7327833  53.0573750  14.6730387  55.5749464  52.9061556  15.6361270
  18.0122530  35.1706123   4.1448677  18.8034272  35.7001638   4.2441308
  18.3249044  34.2662120   4.1680813  25.3422022  10.3657115  20.2994370
  24.5387006  10.8694959  20.4291320  25.1839042   9.8640335  19.4997549
  30.2967405  16.8276250   1.9520210  30.4131341  16.4940619   2.8416389
  29.6100068  16.2760401   1.5773448  40.8377266  18.0279076  41.4837027
  40.6601429  17.2209156  41.9668770  41.7851973  18.0220592  41.3476753
   4.5787421  69.1924620  18.1961358   5.4091042  68.7746954  18.4246123
   4.1276687  68.5470343  17.6519036  14.0196466  21.6929722   6.0568935
  13.6009908  22.2991228   6.6680712  14.1041040  20.8765316   6.5493608
  71.8257046  35.1334071  31.9279575  72.7466679  34.9400067  32.1030569
  71.6356230  34.6734118  31.1103368  15.3391707   2.1357013  10.5830991
  15.4523814   2.0312527  11.5278244  15.9911716   1.5504603  10.1975870
  50.2384043  26.5361500  29.7839308  51.0058737  26.0925221  30.1450658
  49.5104027  26.2369466  30.3286529  75.6606531   7.3633045  35.4415059
  75.1241302   8.1509519  35.3521371  76.5202427   7.6198697  35.1075649
  23.8141727  14.1802061   9.5051575  24.2442441  13.5848129  10.1189804
  23.0102563  14.4452691   9.9520242  19.0986121  30.4493523  25.8133578
  19.3474984  31.2112427  26.3366246  19.4347835  29.7004795  26.3057089
  12.1867383  33.1664896  42.9543209  12.3574197  34.1032887  43.0518103
  11.3351381  33.1221652  42.5195312   8.4566057  12.9310656  31.3565636
   8.9283019  12.2734153  30.8454561   8.8502455  13.7639773  31.0966849
  36.1206961  22.9176307   9.5175821  36.0461426  21.9636297   9.5411003
  35.2223349  23.2251740   9.3967700   5.2954352  13.4499645  37.3546863
   4.4473642  13.8797569  37.2438455   5.8719438  14.1391945  37.6845837
  12.8705347  15.7538867   6.0130227  12.1745563  15.2182639   6.3937497
  12.6760542  15.7685018   5.0759017  56.9891214  22.5607157  44.4433880
  56.2306070  22.3555899  44.9900198  56.7454815  22.2528934  43.5703945
  62.9452467  74.4965124  13.6156642  63.2885647  75.3568029  13.3742774
  62.1754026  74.6875763  14.1514492  26.0268784  28.1532454  31.7614412
  25.3804159  28.5024118  31.1479235  26.8430805  28.1301260  31.2619305
   8.7361050  44.9915600  21.3304996   9.1737586  45.6323767  21.8908978
   7.9297870  44.7750425  21.7986917  42.6528597  19.0136230  27.7375531
  41.9146252  18.5579622  28.1420517  43.4274912  18.5913360  28.1088305
  22.7972841  65.1093292  22.4812150  22.3845601  65.6237125  21.7874551
  23.7245393  65.3418159  22.4324179   3.2507735  16.8491220  42.6523685
   2.9457414  16.0904217  43.1499243   2.4600953  17.3644316  42.4926329
  10.1419604   5.4452890  33.8006425   9.5681846   6.1159682  33.4302330
  10.4891026   4.9800816  33.0395198   6.4533860  51.4887953   0.1624200
   6.3871390  52.2634650  -0.3959086   5.5454785  51.2482429   0.3470037
   6.0542411  28.7625575  32.7477384   5.5272722  28.3846021  33.4517860
   6.9115257  28.3470464  32.8407073  73.7621069  51.1383963   1.1076962
  73.4498262  51.1481380   0.2029217  73.6501741  52.0398760   1.4094234
   1.0228028  34.9519515  29.4692349   0.8872554  35.3645992  28.6162519
   1.6784203  34.2739415  29.3058252  13.9991724  22.3243785  37.8285122
  13.8024974  21.5467858  37.3061156  13.2836175  22.9300570  37.6352143
  16.3431025  11.5095842  12.6303470  17.0126343  11.6226780  11.9556844
  15.7085478  12.2049427  12.4569964  51.8496323   6.3457090  55.0252295
  50.9034920   6.4776206  55.0856638  52.1777296   6.5610290  55.8982801
  38.0202055   7.6082683  57.9019022  37.4242759   8.0310798  57.2835732
  37.5531197   7.6291788  58.7371445  18.2458484  40.2891731  11.6598773
  18.7499249  39.4786191  11.7315626  17.4325430  40.0280285  11.2279403
  21.5036535  50.2589273  27.0330524  22.2764945  50.5915070  26.5766096
  21.2282062  50.9823704  27.5960708  50.2914238  46.9134903   2.1209861
  50.2426386  47.2529125   1.2273172  49.9176645  46.0341263   2.0639379
  20.6416869  49.5118141  12.2344327  20.5595779  48.9310694  12.9908872
  21.2373781  50.2020454  12.5259244   5.8878243  30.0443196  64.5057821
   5.8241689  29.0900755  64.5457506   5.1513696  30.3557396  65.0319767
  68.6610174  17.5200284  53.9895821  68.2146215  16.7210245  53.7093115
  68.4248209  17.6152623  54.9122810  10.2912068  15.0516522  43.4201860
  10.9521163  14.3803239  43.2506323   9.4609088  14.5753789  43.4216261
  54.4897747  51.9568443  11.1960673  53.9746141  51.2478256  10.8111870
  55.1568985  51.5117884  11.7186618  11.4098489   8.1773347   7.2381985
  12.0289969   8.9073253   7.2390991  11.9113541   7.4383432   6.8937933
  48.7063456  74.3586731   7.4384797  49.1698551  74.9189186   6.8159759
  47.9456329  74.8749352   7.7049839  13.1381691  18.4636867  58.5289526
  13.0012703  17.5930071  58.9023256  14.0891945  18.5483277  58.4609985
  47.2379112  63.9975452  30.3285360  46.9888544  64.5516539  31.0682440
  47.6032734  64.6057463  29.6860170  65.9564972   8.1118780  46.0222530
  66.1810637   9.0099698  46.2656307  65.0119495   8.1343770  45.8687687
  37.5249338  55.8353853  60.8765650  37.3672414  55.1917982  61.5673304
  38.0085158  55.3532124  60.2058268  76.9178629  19.9145925   6.5228260
  76.4157534  20.2918601   5.8004802  76.7723322  18.9714241   6.4487708
  59.1170549  72.5826979   2.2390167  59.9856758  72.9796171   2.3036800
  58.5163450  73.3266973   2.1960588  60.1024675   4.3753916  21.9129348
  60.8406019   4.8702714  22.2685790  59.7017145   4.9673393  21.2763619
  19.1129243  26.2433004  23.2939768  19.7310674  26.9637752  23.4166431
  18.2645488  26.6107607  23.5418916  61.6869116  64.2173672  51.3869905
  62.3367453  63.5528135  51.1582613  62.1583509  65.0474644  51.3169289
  72.6080608   5.1206768  60.5746078  72.2217083   5.3776884  61.4118147
  73.5499334   5.0950819  60.7432747  33.3583736   3.8807359  55.3730154
  32.6925230   4.4616553  55.0050354  33.8685536   4.4412005  55.9576750
  53.1198883   8.0173695  43.9765787  54.0304184   8.1013304  43.6935329
  52.9329300   8.8398671  44.4290972  22.0044804  21.3615060  60.5735397
  22.1184897  20.6859994  59.9050140  22.5782299  22.0747375  60.2936411
  74.1298246  17.5604105  59.2233849  73.4169436  18.0121362  59.6750212
  74.7344875  17.3090851  59.9215555  60.6367731   1.8143906   9.2791229
  60.1084661   1.0192690   9.3491662  61.4189005   1.5408351   8.7998772
  45.1318789   8.3489645  46.9499350  44.2231607   8.3956999  46.6528177
  45.2814770   9.1829842  47.3952055  55.1594830   2.6008844  44.4850922
  54.9706554   3.0615610  43.6675596  55.8796644   2.0096341  44.2660093
  50.5675459  72.3131895  56.6480017  49.8641634  72.9365158  56.8295145
  50.2847672  71.8570995  55.8553791  13.3464658  25.2744222  28.0640221
  12.6742280  24.6394205  28.3112121  13.7391365  24.9108267  27.2703958
  51.0437012  67.7779722  64.1717482  51.9440937  67.4713564  64.0644598
  50.8217907  68.1696320  63.3270025  40.5231619  19.1250718  23.3907509
  41.4674091  18.9985585  23.2978749  40.2450371  18.4265172  23.9831185
  16.6575289  15.1519644  12.2211111  16.4706230  14.2153370  12.1576512
  16.8001437  15.3049910  13.1551754  25.8300376  46.7159414  24.9212837
  25.5257154  45.9470034  24.4392562  26.6409993  46.4296865  25.3415537
  77.9657888  40.4837084  41.3329172  78.4901047  41.0302019  41.9182968
  77.8234148  41.0293055  40.5594349  21.1104774  62.1041012  56.8532181
  20.6698513  61.3318682  57.2078037  20.4439783  62.5359106  56.3188457
   3.5370213  43.8849020   0.5169223   3.9504305  44.3742847  -0.1942941
   3.9935675  44.1772413   1.3058048  59.3513680   1.1608377  56.9704103
  58.8584661   1.2904367  56.1601734  59.9622822   0.4521780  56.7683697
  67.3325729  47.7308941  13.7525654  66.7279387  47.9482174  13.0430448
  67.2715521  48.4723854  14.3548071  26.7169666  63.4018803  15.0943327
  27.1742582  62.6339674  14.7516537  26.6920805  63.2631207  16.0410953
  55.3690338  18.0448353   0.2401188  54.7728205  18.7897694   0.1637396
  55.4971075  17.9362023   1.1824709   0.9911916  29.1773844  23.2750511
   1.6601554  29.1311669  23.9581203   0.5892593  28.3086610  23.2742715
  68.9137691  14.3047475  64.5851851  68.3886713  13.6631536  65.0635751
  68.8327259  14.0442895  63.6676753  42.8891897   1.8422382  44.4847202
  42.7621746   1.7589633  43.5396481  43.1387711   0.9636699  44.7711754
   2.1650629   7.2705775   7.2626626   1.4322072   6.7466784   7.5862104
   2.1843082   8.0360144   7.8370911   8.3995408  19.6426988  13.5617137
   8.8137925  20.3641033  13.0882108   9.0514404  19.3759990  14.2098880
  64.2260551  14.9770999  59.7047329  64.2917013  14.2388904  59.0989494
  65.0206709  15.4871631  59.5477343  79.5977991  66.7236471  21.8777990
  80.0638815  67.1686840  21.1700273  78.7842782  66.4199829  21.4750576
  27.6470733  34.0770507   9.5101333  27.9363322  34.8751807   9.9523443
  28.0433106  34.1281414   8.6402953  43.4258509   7.3576248  53.5971737
  42.8924322   6.8212384  54.1836739  44.1758919   7.6217610  54.1299963
  21.1995697  15.6180429  50.0681925  21.6467738  15.1466763  50.7710838
  21.7996097  16.3265538  49.8353910  14.1251183  70.4547691  51.2289953
  13.4220493  69.8809433  50.9246111  13.9658082  70.5514669  52.1678782
   7.0952630  29.6710277  25.8560777   6.3438666  29.2630577  25.4257345
   7.6607132  28.9372754  26.0971260   9.6836537   9.7835469  36.2013865
  10.3303564   9.0808702  36.1361742  10.0995576  10.5322564  35.7739663
   0.1953196  34.0468168  16.3085890   1.0589553  34.0365696  16.7212152
  -0.1738342  33.1856084  16.5042377   1.5307800  17.5619888  22.6876736
   1.0428192  17.6309824  23.5082626   2.4182688  17.3241234  22.9560304
  17.3731768  73.7338972  63.8417339  17.8384554  72.9389238  64.1020536
  17.8932774  74.0909576  63.1218529  44.9724483  52.9818583   0.9661053
  44.1525173  52.5043201   1.0922033  45.4915190  52.4190092   0.3916479
  49.3278360  71.6724014  63.2200718  49.0026140  72.5579453  63.0579805
  48.5510492  71.1750793  63.4760141  75.8748627   7.0364028   7.1893018
  75.1762247   7.6681274   7.3597747  75.4280806   6.2841648   6.8010259
  70.5539227  14.9308336  28.0610013  70.0998211  14.6701813  28.8623047
  71.4304876  14.5567262  28.1499505  27.5512028  29.9946308  27.7935100
  26.9334626  30.6603837  27.4911833  27.4283767  29.2621088  27.1897244
  25.3996420  60.1826859  53.3981800  25.6108236  60.3672075  54.3133783
  24.4653559  59.9746180  53.4052181   3.7160408  15.4961145   4.5391521
   3.7145966  16.3428497   4.0927556   3.0576682  14.9793601   4.0746716
  56.3462639  12.5688279  30.2898979  56.0873270  13.2637763  30.8950639
  55.5987883  12.4745905  29.6994472  38.0318904  59.7249699  12.7319598
  37.8231382  60.3045225  11.9993126  37.4612713  60.0206184  13.4413373
  19.3166721  56.9164848  25.2744651  19.1311455  57.8330231  25.4788303
  20.1666522  56.9364500  24.8347282  16.8942475  45.5610752  15.8487284
  17.5651467  44.8797941  15.8042097  16.5381181  45.4890203  16.7342854
  10.3929794  39.1975713  19.9792874  10.8687878  39.9988174  19.7605526
  10.8250511  38.5147738  19.4661283  67.2262526  40.0902891   0.2983876
  67.0584488  40.4494810   1.1696250  68.1799936  40.0300026   0.2437909
  22.1588850   2.3103337  42.6313066  22.8521705   2.7922633  43.0822277
  22.1077514   2.7173698  41.7664719  65.5465078  23.1151438  38.7905192
  66.4009380  23.0857992  38.3600354  65.6921768  23.6419821  39.5763016
  20.6369877   7.0824701  23.3544278  21.3975859   7.6421970  23.1981373
  20.1517820   7.5264132  24.0499306  62.0681524  74.1832542  59.3128824
  62.1153641  73.3612394  59.8010349  61.4537716  74.7225523  59.8108053
   3.1052601  70.5245876  35.3854227   2.9469374  69.6179152  35.6483126
   3.5416135  70.4550505  34.5363092  12.7077878  14.7141349  23.7576556
  12.9893792  13.8089085  23.6253548  12.0102227  14.6549988  24.4104481
  79.4526490  46.1419487   8.3107728  79.8392056  45.7226372   9.0795279
  78.5259651  45.9053183   8.3494514  31.9241929  38.7582755   5.3449893
  32.2937346  38.5699630   4.4823140  31.0593247  38.3483934   5.3297371
  19.4389927  62.4396086  22.7852440  19.8499990  63.1192636  23.3194494
  19.5466614  62.7451372  21.8845272  25.4517078   5.0243258   7.5062633
  25.0319767   4.7748169   8.3295512  26.2289262   4.4679284   7.4554133
   2.7115211  38.5102463   8.4552491   2.2179939  37.6910663   8.4151626
   2.9183173  38.6201096   9.3833637  64.6587610  65.4251909  58.6928272
  65.5674076  65.1265335  58.6554289  64.4784260  65.7544374  57.8123140
  12.5196266  40.1903152  37.8353667  12.6708817  40.7886839  37.1037197
  13.3353317  39.6954513  37.9126310  59.8982525  22.4844670  55.5594921
  59.0425730  22.1430731  55.2996969  59.9671888  23.3261418  55.1088715
  40.3356457  68.0577755  56.9380808  40.1126146  68.8909674  57.3531485
  39.9295139  68.1050539  56.0726023  23.5817814  54.7706127  25.8084869
  22.6292706  54.6824741  25.8429432  23.8052487  54.5991182  24.8936725
  38.4370041  58.3837700  25.4828978  39.3753839  58.2280493  25.3759933
  38.3822107  59.0674400  26.1505985  20.0398517  38.6176372  29.6685052
  20.8212185  38.1334996  29.4014716  19.5272648  38.7070441  28.8650799
  15.9005582  57.7947855  32.1842837  15.7284451  56.9119024  31.8569899
  16.3247156  58.2430267  31.4525700  25.0965762  18.5405850  33.6420965
  25.9914446  18.3169019  33.3863425  25.1234508  19.4828379  33.8084388
  29.5237756  19.1585374  22.8757954  28.8990498  19.2544174  22.1569371
  30.2706265  18.7048376  22.4851489  19.0282321  23.9345694  25.0079346
  18.6660457  24.4329643  25.7405043  19.0609801  24.5610404  24.2849588
  28.4646678  29.6593451  17.4762452  28.1050014  28.8699174  17.0716774
  28.8783026  30.1316094  16.7536759  34.6455407  26.1816239  20.2659702
  35.4903173  25.7908106  20.4892373  34.3824935  25.7387424  19.4591916
  35.1612878  34.7225761  11.4106107  35.7847810  34.5510697  10.7048666
  34.4326687  34.1267157  11.2365603  12.3350382  72.3388100  22.3502111
  12.8735387  73.0268002  21.9591618  11.4826095  72.7515793  22.4888372
  41.4302397  19.9765921   0.4187471  41.2161446  20.6289291  -0.2482263
  42.2569895  20.2799678   0.7938156  16.2025964  34.5770097  40.8317184
  16.6790843  33.9575720  40.2790070  16.3296628  34.2501616  41.7223644
  66.0645676   4.4649306   6.1340910  65.2391529   4.3826571   6.6117442
  66.0525084   3.7405443   5.5085105  47.9742146  20.1771855   7.3479706
  47.1583033  19.8835504   6.9426352  48.2902861  20.8738589   6.7726630
  45.2030230  25.9273982  50.3513813  44.2987633  26.2391567  50.3145027
  45.3809309  25.6035972  49.4683552  38.9859748  69.3278313  49.7268152
  38.5723066  70.0649548  50.1759958  39.4859004  68.8810682  50.4099798
  11.8619895   7.3110771   3.4041524  11.1439717   6.7441881   3.6857894
  11.4428675   8.1490606   3.2083163   8.0030578  45.6509686  31.5517592
   7.9553270  46.6022539  31.4568162   8.3833861  45.3468037  30.7277060
  28.3750725  39.9386859  11.6119814  29.1102600  39.8354459  11.0077703
  27.6311398  39.5488453  11.1528325  49.9343777  59.8177385  17.7648723
  49.2047453  60.1003790  17.2135282  50.3819036  59.1494656  17.2458720
  43.0302095  28.7561417   0.8575336  43.0234718  27.8899932   0.4501326
  43.8342237  28.7703562   1.3767540  76.0814857  50.0603342  13.9198744
  75.5921888  50.1771259  13.1055164  75.4491949  49.6741390  14.5259178
  28.8547945  49.2346191  26.7606783  28.1232572  49.7022915  26.3577271
  29.2538404  48.7474680  26.0397911  30.1857305  64.6318340  27.7555084
  30.0025821  64.6733046  28.6941075  30.0422692  65.5254030  27.4437714
  77.2692788  47.8915918   0.3101394  78.1480754  48.0922104  -0.0118878
  76.6834987  48.3594120  -0.2850439  29.1696382  27.8701472  21.8314385
  28.7878823  27.7259588  20.9655857  29.5686841  27.0306706  22.0600748
  18.1605649  65.3107691  56.3471031  17.3895252  65.2063274  56.9046164
  18.5418701  64.4341135  56.2989998  15.7311940  22.1195579  32.3972416
  15.0864935  21.9506168  31.7101789  15.2131951  22.4255133  33.1417537
  55.3067255   6.3712102  57.4237776  54.3541098   6.3365829  57.3368645
  55.4694128   7.1381795  57.9728889  62.5168085   7.3840916  36.5254498
  63.2368517   7.8393722  36.9619012  61.9105530   8.0807191  36.2736702
  57.5559473  32.6039600  59.9591637  57.8324604  32.4008584  60.8527660
  57.4455786  31.7492962  59.5425081  19.4404876  53.9025736  16.4745283
  19.0795732  54.2279959  17.2991931  18.7118864  53.4404659  16.0600054
  79.3218756  62.5848866  56.2880659  78.9650011  63.4341574  56.5480900
  78.6103010  61.9658756  56.4515257  58.1404352  69.2480850  54.2086649
  58.3164787  68.3263826  54.0197182  58.8667583  69.5206022  54.7693920
  66.1043596  -0.1663828  60.6200743  66.2044239   0.5045337  61.2954187
  65.6442308   0.2775684  59.9077415  12.3440301   8.7992781  22.7319050
  12.0818794   8.1914687  23.4233356  11.7612958   9.5509046  22.8401184
  69.2787075  12.7127051  15.2996802  68.9228249  13.5677052  15.0576973
  69.0047026  12.1300554  14.5913899  58.0687284  52.1743631  62.8086710
  58.1102514  53.0318499  63.2320213  57.1684790  51.8811321  62.9493666
  55.9182024  23.7898588   7.7650905  56.2687922  24.6804976   7.7560586
  55.2653313  23.7823439   7.0651364  31.2961316  41.4303732  33.0693245
  31.7559385  41.2124062  33.8800645  30.9599757  42.3146963  33.2149410
  42.1607208  27.3930478  12.1900272  41.4577246  27.5178671  12.8275609
  41.7082644  27.1910477  11.3710570  43.3226061  70.2171040  59.8525429
  42.5272131  70.0780964  60.3666019  43.8779449  70.7595682  60.4125118
  55.5963516  73.9585018  62.5010872  55.0248718  73.8794470  61.7372847
  56.3558340  73.4158134  62.2891665  19.9557519  32.6742148  -0.1858700
  20.8422613  32.4992800   0.1299277  19.4326174  31.9485784   0.1547411
  11.3873470  44.2642260   8.2971746  11.8583441  44.7237444   8.9923275
  11.0160720  43.4942532   8.7279063  67.1208715  60.9154034  52.1302938
  66.8380070  61.7557716  51.7697430  67.5733566  61.1433268  52.9424143
  20.5988693  64.5855713  23.8569188  21.4174342  64.8379850  23.4297538
  20.6192255  65.0381994  24.7000933  13.0206621  60.9914923  49.7100067
  13.0182076  60.2918577  50.3632545  13.3289647  61.7625761  50.1860476
  53.1490660  14.0063345  59.2022610  53.7051868  14.6361339  59.6608591
  53.1406689  14.3105555  58.2947350  27.1536303  40.4584646  31.4637327
  27.4461579  40.9818602  30.7175994  26.2815523  40.1525354  31.2144923
  79.2371893  31.1876607  24.5467997  79.8428488  31.2224674  25.2872038
  79.5518446  30.4572749  24.0141058  63.4227896  28.0490160  20.2453470
  63.8154316  28.1637406  19.3799531  62.5959253  27.5977898  20.0752878
  23.9223623  16.3699472  55.3861523  23.0893898  16.7799473  55.6191492
  24.5568848  16.7572141  55.9891796  69.6783161  20.6211352  35.8353066
  68.7272167  20.7240891  35.8676100  69.9030447  20.2086759  36.6693377
  39.6935105  16.6384220  16.1151862  39.2360520  15.8666801  15.7814515
  39.6674967  16.5393531  17.0668900  45.9698772  61.0156059  18.5373604
  45.1241255  60.7633352  18.1668270  45.8636570  60.8946085  19.4809222
  25.8614445  43.2799244  21.4242744  25.7426739  43.0934715  20.4929519
  25.7346940  42.4349499  21.8557692  29.5564198  39.3551993  32.6946330
  30.2938104  39.9500275  32.8312564  28.8612461  39.9120712  32.3441195
  21.6849184  14.5850444  11.2472343  21.1427212  15.1883817  10.7390618
  22.0158720  15.1139152  11.9731796  34.1125274  54.8282719   7.6899576
  34.6308517  54.0442419   7.8712505  34.6951962  55.3869390   7.1755415
  34.5216250  21.9553065   4.0668195  35.2630663  22.5606728   4.0724811
  34.9105310  21.0986161   4.2430717  49.2770433   5.4083747  10.0749254
  49.5669031   4.8021436  10.7566142  49.5022249   6.2749195  10.4134905
  54.7693539   8.8662797  58.5623455  55.4004526   9.5436794  58.8053989
  54.1169930   8.8843578  59.2625809  42.6017380  70.2777386  48.2950115
  42.4615335  69.3579245  48.5197639  42.5700521  70.7368946  49.1342974
  15.6690884  62.2519636  17.2452664  15.3465307  61.6345835  16.5887403
  14.9234045  62.3924112  17.8287566  52.6300669   7.4967432  19.5021009
  52.1033716   7.3283124  18.7207878  52.6568413   8.4510297  19.5717633
  23.0049896  65.4765463  29.7060585  23.2657027  65.1596880  30.5708480
  23.5892725  66.2152958  29.5354819  33.8484669  36.8548036  34.7128367
  33.7506247  36.8229318  33.7611842  33.0893517  37.3534203  35.0150895
   7.6692361  39.1430092  21.0192704   8.4885502  39.3457294  20.5677605
   7.2330183  38.5085320  20.4505992  24.4987726  65.9634972  61.9892979
  24.6908903  66.8827152  61.8039083  24.6843314  65.8636189  62.9230118
  79.0786314  43.9773273  44.7504616  78.5752916  43.8002872  45.5451584
  79.9207163  44.3033886  45.0679684  20.0800157  51.4598942  30.7480860
  19.5668340  51.8453598  31.4582229  20.5191684  50.7101107  31.1495876
   8.8305277  55.6161261  30.5094790   9.5698124  55.1696253  30.0967693
   8.4513795  54.9606323  31.0949755  32.9756021  54.8499727  23.2914305
  33.4428263  54.8608160  22.4560785  32.1704721  54.3653917  23.1092691
  36.2962818  71.0553122  50.0619316  35.6958389  70.7505512  49.3816233
  35.8160877  70.9274244  50.8800364  53.0172205  72.4067497  51.8098974
  52.8388882  73.3464050  51.7714405  52.1543312  71.9966030  51.7512655
   3.4269854  50.3586435  32.7748823   3.7857762  51.0634470  33.3140993
   2.5636211  50.1856756  33.1502676  34.8753405  33.4375596  32.7464271
  35.3638244  33.8531947  33.4569621  35.2339649  32.5515413  32.6955032
  21.2794614  70.0840855  58.1236029  22.1369123  70.1638937  58.5415077
  21.0654807  69.1536045  58.1917429  22.5212646  14.7005272  52.3974466
  23.2082176  14.9887717  52.9984808  22.0168638  14.0604067  52.8994989
  30.6412315  45.8733177  27.7234292  30.9871173  45.2550077  27.0797801
  31.2286186  46.6272831  27.6709843  18.1774092  31.5465999  23.2931018
  17.8247488  30.7127714  22.9823112  18.4754932  31.3633895  24.1840649
  24.5832133  35.0356221  27.7717566  24.4687843  35.4924488  28.6050940
  24.0895963  35.5601478  27.1413255  51.4558840  57.6522636  16.9295514
  51.5692377  56.7347479  16.6814709  52.0924664  58.1256151  16.3938880
   8.0912399  45.2179575  11.6806996   7.6282871  45.0693321  10.8561885
   8.0567861  46.1661386  11.8071818  19.9353349  51.3534594  23.3434486
  19.7521544  51.8626165  22.5538683  19.1569209  50.8095360  23.4636474
  10.2106225  32.9925370   7.9436934   9.3592489  33.0837750   8.3715612
  10.8148682  33.4759212   8.5071284   5.8633924  28.1398487   6.2023211
   4.9778774  27.8572369   6.4308518   5.9426403  27.9472709   5.2680480
   6.8276030  28.7000418  19.6357596   5.9450811  28.3631921  19.4810975
   6.7450947  29.6473145  19.5257676  24.5940948  44.7699833  16.8709779
  24.4030046  45.6033564  17.3013318  24.1977167  44.8519278  16.0035670
  24.5356107  39.9822092  30.5897021  23.7050867  39.7654200  31.0133338
  24.2948103  40.2050877  29.6904969  14.1036248  24.5633221  48.3701468
  13.7990904  23.6661029  48.2341719  14.7017634  24.5029402  49.1150093
  44.5352793  44.7893429   0.1070016  43.6514902  44.9535704   0.4359084
  44.7408342  45.5598545  -0.4224244  68.0364895  37.7693582  20.1128960
  67.6066303  37.7219176  19.2589617  68.8153362  38.3042669  19.9595952
  29.6108580  44.0510225  32.5414252  29.3220973  44.3379164  31.6750860
  29.3125105  44.7410059  33.1339931  35.7315350  24.2233801  43.1615353
  35.4567695  24.8125505  43.8641167  36.3370132  23.6136746  43.5833025
  10.7834053  50.6862545  17.2887290  10.1712739  51.3052559  17.6866817
  10.4583371  49.8252535  17.5518584  33.8280845  48.0736256  10.4770672
  33.7550640  48.5373735  11.3112366  33.0117106  47.5789738  10.4057634
  52.6723146  35.5431628   3.3968249  53.2417536  36.2021470   3.7939513
  51.7890930  35.7972002   3.6644360  40.0826454  43.1869316  14.1748846
  40.1418734  42.5225210  13.4883809  39.9898767  42.6862431  14.9854040
  19.6969008  69.7700405  24.3060398  20.1115775  70.6263733  24.2012954
  19.0567994  69.8979187  25.0061464  29.5710063  35.3467011   2.2259872
  29.3292880  36.1890125   2.6111078  29.0199447  35.2726245   1.4468369
  35.2876091  30.0253916  37.8240681  35.6954288  29.1944098  38.0677581
  35.6077933  30.1988173  36.9388342  70.5190563  12.0924032  42.4035931
  70.6147909  11.3807726  43.0365610  71.3293982  12.0708156  41.8945599
  74.6031427  53.5862255   9.4908625  73.9812326  53.3319807  10.1726413
  74.8135042  52.7677774   9.0412778   3.1651959  53.5607672  24.0496564
   2.8476402  54.4143963  24.3441129   2.3705025  53.0517292  23.8897371
  27.9658723  46.3424492  33.6544108  28.2564116  45.7735014  34.3672347
  27.7105141  47.1571684  34.0871429  21.1037827  22.3821259  17.7261102
  21.1602163  23.2412696  17.3078775  20.7873583  22.5665712  18.6104679
  14.8243308  40.0660276  64.3942642  14.0604329  39.9430060  63.8307381
  15.0536859  40.9893179  64.2886305  11.8689060   6.9972777  55.9727240
  11.3969839   7.8284609  55.9211969  12.2669280   6.8938524  55.1083708
   4.2178085  27.3356104  30.4585361   3.3072084  27.0783567  30.6029654
   4.2292610  28.2785273  30.6228828   6.0439664   9.6296763  56.8644047
   6.7164922   9.0352798  57.1970177   6.2804949  10.4844666  57.2244358
  15.1452219  45.5815840  26.9889021  15.0422716  45.2301884  27.8732991
  15.6631398  44.9217510  26.5277982  19.5887327   2.7356535  63.8877344
  20.2194357   2.0264257  64.0120029  19.6394646   3.2456678  64.6961546
  13.1969142  27.6738739   6.1213237  12.3193693  27.8248358   5.7701021
  13.7375593  28.3507562   5.7141793   5.9843212  37.5837135  25.7792187
   5.8920509  37.6339912  24.8278046   5.4821330  38.3292031  26.1082840
  17.9843199  16.9791520  10.3406572  17.5861394  16.2532365  10.8210015
  18.0490005  17.6850986  10.9838426  33.9189243  60.2575636  19.2439282
  34.1925836  60.7841206  19.9949813  34.5689034  60.4487991  18.5677719
  42.0283079  60.8132505   6.5829074  41.5815401  61.6386509   6.7709070
  42.8467321  61.0746098   6.1608785  65.2955151  53.5442829  61.4378214
  65.1703358  54.4312096  61.1002922  64.4131660  53.1749725  61.4738560
  10.3519213  20.9332752  26.8507051  11.3065422  20.8631372  26.8540335
  10.0535107  20.1634026  27.3349357  71.1063528  36.8027902  61.4685583
  71.7470837  37.0617747  62.1308422  71.3423681  35.9021807  61.2462330
  20.9591484  43.4145260  22.1652579  21.0349822  43.6199379  21.2334394
  21.3194466  44.1818762  22.6097727  10.8894932  35.3634167  15.7275343
  11.0333467  36.0049152  16.4232481  10.7011831  34.5467544  16.1899602
  15.9355247  60.3284740   9.9492472  16.5305555  61.0137320   9.6449614
  15.2709222  60.7957602  10.4553902  17.5804853  51.0068560  49.9966955
  16.7239177  50.6823492  49.7188139  17.7639687  51.7361403  49.4044876
  27.2795892  29.7517538  14.7239292  27.4704218  28.8526297  14.9911201
  26.3243556  29.7896743  14.6757340  23.5101175  53.4617758  20.5960751
  24.3414164  53.1445026  20.9489393  23.6248732  53.4287882  19.6463513
   9.8392987  14.2364633   1.3161848   9.9673551  14.3461668   2.2584154
  10.4876113  14.8167479   0.9171949  36.8621492  73.0937243  14.5791793
  37.3451948  72.5368643  13.9686012  36.4441657  73.7518072  14.0237963
  55.8857059  59.4237423  55.7266951  56.3238907  60.2232599  56.0182238
  56.5302610  58.7310123  55.8712769  42.2300529  13.2063341  14.0188503
  43.1728888  13.1340885  14.1674125  41.8993568  13.6591864  14.7946060
  78.2997417  57.9591465  33.6397672  77.9169989  57.1729231  33.2504201
  78.5131454  57.7025795  34.5369101  24.5917058  28.7351274  22.0494032
  23.7628627  29.1398907  22.3051763  24.7540498  29.0606427  21.1640143
   5.7134956  34.0345645   0.4863765   6.0849494  33.9150000   1.3604236
   4.8103207  34.3088078   0.6454261  72.1054888  10.8697903  51.4952135
  73.0244064  11.0876870  51.6512394  71.8657637  11.3817251  50.7227612
  36.9398761  29.1063881   3.8948074  36.9740868  29.6982050   3.1432652
  37.8561068  28.9773726   4.1399732  78.5956383  51.1836815  25.4627848
  79.0177345  51.7082739  24.7824407  77.9237366  51.7598677  25.8271837
  32.4273992  13.7544858  57.7168846  32.5214505  13.7317216  58.6691809
  33.3243036  13.7040567  57.3863506   0.6654365  52.5896168  29.5135856
   0.8227915  53.3710861  28.9837027   0.1556628  52.0130062  28.9444780
   6.2504029  56.6157198  51.2143898   6.9711059  55.9876680  51.1656761
   5.7068288  56.3009691  51.9366693   2.2251174  12.5510645  34.2770720
   1.9395088  13.4430170  34.4747567   3.1686804  12.6275635  34.1354084
   5.8455211  21.0468245  15.2019715   5.3330088  21.2621093  14.4227326
   5.6259400  20.1339936  15.3884089  30.4863906  31.2816525   8.6093789
  29.7440171  31.0876012   8.0371398  30.2103853  30.9735155   9.4725734
  75.9394407  72.2267866   9.1938102  76.6006136  71.5528297   9.3514872
  75.4310942  71.8950939   8.4536773  67.8414059  35.4487324   4.1773546
  66.9494867  35.2747178   3.8766360  68.2200956  36.0035849   3.4954727
  31.3584518  66.4958525  23.0580688  31.0239124  65.8693933  23.6998391
  32.2563386  66.2099695  22.8898287  64.2796040   0.1922968  25.0114965
  65.0693512   0.6326058  25.3255916  63.6435938   0.3089023  25.7172799
  41.4434338  27.3659062  37.6733160  40.8968687  26.8937945  38.3014965
  42.1367741  27.7565503  38.2052064  58.7558365  28.5249686   9.5973408
  59.5896053  28.9672232   9.4377434  58.4977436  28.8095379  10.4740632
   1.4352205  68.3016157  19.6252477   1.2401913  69.0171432  19.0200889
   1.9056144  68.7195015  20.3465891   0.8716257  49.9305344  31.0167933
   1.6087839  49.4008255  30.7130909   1.1496168  50.8345795  30.8696175
  34.6202159  53.7873125   4.0692866  35.2725673  53.2349110   3.6385629
  34.5241213  53.4077835   4.9427599  29.0425587  44.8396254  30.1351452
  28.5008335  45.6108570  30.3023791  29.5896602  45.0882149  29.3900847
  39.3845296  31.1145258   7.3567146  39.4555712  32.0058012   7.6984948
  39.8758841  31.1330628   6.5354604  31.1115360  52.3088980  26.3598680
  30.1550341  52.3451138  26.3548493  31.3576150  52.3497295  25.4357409
  37.0531011  32.1137857  28.7479210  37.3595786  31.3485360  28.2614088
  37.6349425  32.1642494  29.5063066  24.3176079  42.5301886   3.0015296
  24.1458416  42.7683353   3.9125812  25.2130437  42.1919680   3.0071169
  19.6681571  17.4792683  59.0362597  19.6280026  18.1510258  59.7169638
  19.8487854  16.6678691  59.5108509  76.5544081  71.2204599  57.7734232
  76.4680862  72.0433998  58.2546234  76.9456768  71.4720726  56.9368649
  14.6508014  67.0436764  10.5346560  15.1772332  67.6070547  11.1018455
  15.2616274  66.7436600   9.8615193  36.3164282  35.9818149  18.0334425
  37.0613885  35.8880568  18.6271393  35.9961152  36.8702269  18.1895089
  21.5367484  59.4205761  20.4750872  20.9412050  59.4420242  19.7260201
  21.0648322  58.9219093  21.1420655  28.7958074  19.8981464  63.5495329
  29.5266843  19.8183072  64.1624594  29.2059135  20.1324606  62.7169800
  72.9949951  36.8299460   8.8473994  72.9497910  37.7858925   8.8662165
  73.1126451  36.6138935   7.9223526  34.4984174  71.0314703  60.9565258
  34.4402432  70.7550669  61.8711042  33.6314631  70.8472395  60.5950308
  61.5448475  71.3613272   5.9158409  60.7498264  71.1353254   6.3986421
  61.4278650  70.9538746   5.0576270   5.7358605  50.4587793  16.5510726
   5.5945700  50.0209951  17.3904836   5.2931839  51.3024282  16.6434348
  17.1411467  74.3279505  45.3281546  17.3612940  74.0772343  46.2253189
  16.2090206  74.1267586  45.2451181  74.5517921  74.3783283  10.0470686
  74.7324181  74.8200941   9.2173404  74.9394321  73.5091066   9.9449724
  25.1583028  13.9179039  14.0975690  24.6850300  14.6384609  13.6815846
  25.4350066  14.2698967  14.9435997  55.1479816  17.7314794   8.4783369
  55.1229811  18.1119907   7.6003748  56.0453415  17.8781199   8.7774676
   6.9735301   6.2810987  22.9010487   6.9600666   5.6915629  22.1470618
   6.5441662   7.0779443  22.5897336  52.5626230  50.3339863  24.3564701
  53.1781864  49.6725702  24.6724463  52.2140789  49.9679041  23.5436153
  31.3692164  60.3920126  26.4025688  30.6480455  59.8657942  26.0572648
  30.9896564  61.2606239  26.5355182  76.5270472  57.0049572  61.9373369
  77.1843910  56.5239477  62.4400854  76.9244862  57.8616619  61.7813349
  64.0418625  28.9374471  22.5886631  63.8444281  28.3893108  21.8291903
  64.2908716  29.7830200  22.2155213  77.2780037  43.9945602   3.0179390
  77.0342970  44.9156189   3.1100866  78.2349491  43.9966631   3.0398071
  26.4714932  68.0031395   5.1331443  25.6488299  68.2694292   5.5436897
  26.9998026  68.8011456   5.1157480   6.8057662  41.8671513  15.3285182
   5.9836596  41.4055300  15.4936862   7.2876000  41.8006611  16.1529243
  22.0131063   7.5729597  62.8701019  22.8623819   7.6309395  63.3078289
  21.4700770   8.2246095  63.3136129  68.8878345   5.9647816  31.4948606
  68.8922787   6.3837183  30.6342196  68.2588339   6.4741075  32.0059204
  32.2659516   4.2362940  49.4202280  32.9069972   4.4229937  48.7343454
  31.9278455   5.0955600  49.6723795  24.1674423  69.5716429  36.2469172
  24.2948842  70.3440046  35.6960535  23.2429171  69.6028137  36.4929128
  34.9215388  33.4014606  62.3741198  34.7357178  33.5260010  63.3048105
  35.3179169  34.2272925  62.0964146  23.6678720  61.3493347  63.5927534
  23.9437938  61.0823298  64.4695711  23.1633234  60.6055021  63.2635546
  10.7991016  70.8376360   7.5458556  10.1396525  70.2182245   7.2333086
  11.3758814  70.9730530   6.7940450  31.3222551  70.8464336  20.4174113
  31.7002559  70.0850821  19.9773014  30.3766203  70.7340193  20.3206134
  64.8256540  51.5646935   2.7798435  65.7813454  51.5565205   2.8329733
  64.5344877  51.4060354   3.6777762  39.1777587  27.2359276  22.4446654
  39.3238282  27.6824856  23.2786202  38.3876348  27.6434708  22.0899224
  48.4538889  60.8660603  11.2508154  47.7848053  61.5383434  11.3796222
  48.7761736  60.6769514  12.1320665  62.7348518  21.8000793  62.5151443
  61.8222380  21.7391896  62.2328949  62.9156494  20.9543037  62.9252768
  24.7557735   4.5539188  10.2714527  24.6728396   5.2952713  10.8712447
  25.1367688   3.8560718  10.8044493  35.4744148  35.8355117  13.8505018
  36.3634109  35.6199694  14.1323841  35.4175782  35.4964590  12.9571676
  21.9135070  31.6977668   3.7957880  22.3483133  31.4777565   4.6196634
  22.6225853  31.7380762   3.1540596  27.7771187  45.9831429   4.5710462
  28.5647416  46.5155220   4.4594485  27.3021936  46.4052010   5.2869701
  36.5090513  54.2425680  16.2879503  36.3390827  55.1790285  16.3898659
  35.8213425  53.8171911  16.8001425   2.4576582  33.9345574  56.5233898
   3.2359821  33.3795166  56.4746666   2.1076344  33.9349842  55.6324816
   1.0315333  10.9515095  13.9948535   1.9631517  10.7444751  14.0687156
   0.6488030  10.1846075  13.5686946   1.4332502   0.8360149   9.6485853
   1.5433212   0.9477444  10.5928481   2.2095138   0.3484748   9.3729919
  72.2230148  14.1068447   0.1352022  71.6365147  14.2685616   0.8741858
  72.5708437  14.9702466  -0.0879226  62.2346258  48.0121183  62.7203894
  62.5619841  48.8456440  63.0584717  61.7481756  48.2484484  61.9306135
  78.0425310   2.7402502  29.4627523  77.3774815   2.3489644  30.0291753
  78.8144588   2.1869841  29.5821428   6.9325894  60.4201365  14.7429597
   7.5788236  59.7161961  14.6874404   6.7012626  60.6052399  13.8327646
  37.3574066  63.4128857   1.5073882  37.3413968  62.6747561   0.8981746
  36.9993424  63.0592346   2.3216069  33.0307364  49.2789268  25.4467916
  33.9542174  49.3764973  25.2146387  32.6545215  50.1472235  25.3027153
  17.6999867   0.7007814  21.2437105  17.1640825   0.3362999  20.5393028
  18.0549574   1.5117040  20.8795238  25.9395814  57.1714830  55.4421759
  25.3171420  56.9872379  54.7387123  26.6153121  57.7092361  55.0293303
  68.4046602   6.0737491  15.1028776  69.1283941   5.9306341  14.4929945
  68.8286257   6.2065834  15.9507239  77.2247791  57.0015574   4.6900144
  77.4387550  57.1136332   3.7637931  77.9837751  57.3530722   5.1554137
  15.0886369  57.0578146  11.6099954  15.7858348  56.6607428  11.0879993
  15.4543757  57.1171236  12.4925756   6.0008848  38.7771702  23.1672812
   5.3858662  39.2086673  22.5741577   6.7888290  38.6444759  22.6402450
  70.1808071  74.9795294   9.7844177  69.3844461  74.7152519   9.3237704
  70.5148888  74.1693306  10.1693797  21.4721322  65.9956932  20.0781465
  22.0721555  66.6524458  20.4315281  20.7352352  66.5030003  19.7377717
   1.2581597   3.4435928   1.3700369   1.8552223   3.2472575   2.0919792
   1.4514516   2.7766228   0.7112338  34.8485994  39.3262267  27.1739006
  34.9019623  39.1597843  26.2327957  35.4692149  40.0387764  27.3266816
  77.8314638  48.1047916  64.0971470  76.9518042  47.7901459  64.3055391
  78.3593130  47.3095989  64.0245056  70.5787611   7.5746864  25.7702541
  70.9774685   7.6356673  24.9021840  71.2407827   7.9298902  26.3633776
  75.7825565  19.9069428  29.2944670  76.6907644  19.9276650  29.5960641
  75.8052683  19.3693030  28.5028505  47.5231791  60.9005547  16.0915947
  47.3847628  59.9833298  15.8554351  47.1445704  60.9822655  16.9669282
  13.9446318  14.8103404  55.1651716  14.6135211  14.8917854  55.8450127
  14.2366350  15.4000056  54.4700050  31.7058969  61.6909456   4.6938872
  31.5422535  61.2517405   5.5284846  32.4928045  61.2675905   4.3506956
  54.0255070  62.2479582  20.7492495  53.1921387  61.9618511  20.3752542
  54.3815374  62.8574038  20.1026821   3.7780616  44.8426771  18.0138636
   4.5515710  44.5156717  17.5545347   3.7491938  45.7753229  17.8004014
  34.3925142  37.7041149   0.4821599  34.3038344  38.2245135   1.2806281
  34.6354651  36.8312526   0.7909016  11.1037147  10.1547778  41.6095018
  10.5179334   9.7306842  42.2365904  11.0842729  11.0805845  41.8518591
  23.3627629  64.2136812   3.7874341  23.7047815  64.5926905   2.9777366
  23.2157373  64.9660444   4.3606418  16.9352853  37.9883409  31.8545222
  16.0415673  37.8233337  31.5540719  17.0759404  38.9202785  31.6873693
  54.5295191  70.6790543  60.7926559  54.3125296  70.1495552  60.0253344
  54.2490149  71.5641594  60.5599880   1.8845737  20.2512789  37.4154973
   2.1490937  20.1783562  38.3325267   0.9667061  19.9797952  37.4086666
  16.3431728  35.1846480  29.6865463  16.7817020  35.6882834  29.0007806
  15.4724693  35.5768371  29.7520971  46.9788122   2.1226664  12.7953768
  47.5318813   2.2638008  13.5637701  46.5587711   1.2774163  12.9545975
  46.7137384  72.2860861  50.2544546  46.8021107  72.6895332  49.3909407
  47.6037312  72.0219231  50.4876089  19.5078599  59.3965721  26.9755888
  20.2497649  58.8753510  27.2824049  19.8817861  59.9799395  26.3152146
  74.7205067   0.4934254  29.0309381  75.1779127  -0.3273474  29.2135334
  74.9917030   1.0808218  29.7363806  16.2392342  55.6132317  16.1446643
  15.5322480  55.6126976  16.7899561  16.3740754  54.6887541  15.9363508
  20.6833982  55.0730419  23.4932375  19.8112488  55.4299498  23.6611795
  20.6884384  54.2298365  23.9462399  52.6482773  49.3971634  19.0678358
  53.2984304  50.0995493  19.0539658  53.1417370  48.6191177  19.3274033
  42.9586172  56.9788551  10.1101065  42.6015520  57.8123283   9.8034149
  43.1591558  57.1296072  11.0338438  33.3370733  46.9792557  22.5183082
  32.6541615  46.4002132  22.8567934  32.8989840  47.8218460  22.3985267
  57.9808569  16.1789787   1.9551291  58.5347176  15.5603504   2.4313331
  58.5970974  16.7287230   1.4711250  13.1604838  20.8207536  63.2961082
  13.1142914  19.9275672  62.9550552  13.7889194  20.7699227  64.0163279
  24.8806500  49.4467783  10.7882249  24.9471259  48.5660839  10.4191911
  25.7853150  49.7561407  10.8341408   2.4426481  63.4217644   4.2306119
   2.3220725  64.3017578   3.8738185   3.2492074  63.1064320   3.8228631
  55.6194353   6.0123700  15.5368054  56.0636425   6.7901111  15.8744860
  56.1869907   5.2839750  15.7889032  10.3774548  56.8950844  35.1018190
  10.9130907  57.5301647  35.5772161  11.0032809  56.2444592  34.7836113
  19.8494852   3.1476516   7.2566628  19.2740512   2.3890474   7.1585482
  19.7044194   3.4436783   8.1553036  25.9558368  50.2908039   3.8882071
  25.3594542  50.3461313   4.6348643  26.7656565  50.6963778   4.1979370
  40.8571768  57.5427437  15.6928897  40.0447512  57.3089361  16.1418128
  41.3904762  57.9642057  16.3668275  75.5000257  14.3934655   3.2572082
  75.6289721  13.8377500   4.0258333  75.6723928  13.8166821   2.5130028
  54.4283199  52.9109478   8.6031300  54.4255114  52.5727415   9.4985843
  53.5503435  53.2720661   8.4807408  33.9095092   0.4597165  63.3732986
  33.0789804   0.7751122  63.7296391  33.8377881   0.6091018  62.4305487
   9.8113501   9.9161810  55.1573086   9.1221166  10.1112628  55.7922316
   9.6298695  10.4991353  54.4201088  51.9141483  65.2866459  31.4901161
  52.1477985  64.4867468  31.0191560  51.2961769  64.9974680  32.1614742
  55.4871941  70.8440113  22.1848631  55.8325768  71.2491322  22.9803610
  56.1446381  71.0325575  21.5152001  59.3187952  51.0094500   2.1746413
  58.6421728  51.2689209   1.5492757  59.6409988  51.8354654   2.5353575
  72.7927113  14.5464909  22.9348636  72.7362442  15.4876399  22.7696943
  72.8042603  14.4710398  23.8890147  61.7996025  65.0900984  18.7595332
  61.6544580  65.5595303  17.9380715  62.2132254  65.7345629  19.3338251
  53.4802198  59.5304394  60.4759789  53.7341738  59.9494934  59.6537066
  52.5243473  59.4940710  60.4410410  26.9961667  20.0163150  47.7376270
  27.5877810  19.4952309  48.2804871  26.4386249  20.4767156  48.3648539
  19.9115217  47.0027161  16.9086063  19.1694665  47.5995064  17.0056927
  19.7315407  46.2942410  17.5265872  35.2620769  26.0491848  31.8014669
  34.8648596  26.2026572  30.9442067  36.1788917  26.3002706  31.6890407
  25.9172606  72.7202559  10.0918806  25.0001740  72.8728628  10.3196836
  26.2789869  72.2606564  10.8496118  57.1568394  54.0788126  54.0330458
  56.3803339  54.6264362  53.9173794  56.8102503  53.2192993  54.2725182
  29.8902106  72.9276466   6.0856336  30.6565571  72.9717779   6.6574705
  29.3571758  73.6805820   6.3409543  68.0802488  45.6188869  64.9570036
  68.6196709  46.3313198  64.6139431  68.0087376  45.0009203  64.2295170
  37.8603029  32.5990582  12.0241988  37.6719522  33.2703638  11.3683748
  37.8840280  31.7803168  11.5288913  51.9432831  57.7279758  29.2011333
  51.3931751  57.0175505  29.5311594  52.1166992  58.2729673  29.9686885
  55.3397799  55.7537317  14.2591715  55.3695869  56.3182783  13.4867525
  56.2381840  55.4395199  14.3609965  65.2194738  57.1780348  38.8999486
  65.5510283  58.0330229  38.6255431  64.3352795  57.3557091  39.2206764
  45.7274342  39.6141171  12.2769785  46.1334276  39.7577929  13.1318235
  44.8408794  39.9624753  12.3712909  14.6861649  48.5153437  22.0708108
  14.1143715  48.9333677  22.7146602  14.9762893  47.7084637  22.4962592
  43.9101839  66.5328789  60.9727573  44.0566206  67.3573780  61.4364195
  43.7813044  65.8870649  61.6674185  65.9564543  66.3766623  52.7127361
  66.1918259  65.8653498  51.9385338  66.5525723  67.1253777  52.6956129
  20.8321357  58.5162067   9.0113318  19.9204850  58.2361794   9.0932375
  20.7799220  59.3949509   8.6354160  40.7271242  41.0626793   5.7123983
  40.1888895  40.3522539   5.3633618  40.4901075  41.1099148   6.6385859
  31.2277699  28.3125448   8.6207205  31.2695837  29.0678883   8.0342603
  30.5108213  27.7805972   8.2753909  30.9582353  48.2100248  12.4724507
  31.6922355  48.7980986  12.2945511  30.9075499  47.6492643  11.6983628
  36.3799739  65.5078936   8.5503185  36.5342188  65.3881884   7.6132435
  36.0100603  64.6741486   8.8405919   4.1339514  18.8884306  51.2014675
   4.9961004  18.5290551  50.9922314   4.0353701  18.7421191  52.1422672
  65.3605270   7.8660500  12.4846482  65.1748037   8.4842974  13.1914067
  66.3159227   7.8448534  12.4298668  31.1803293   1.5224747  38.0262828
  31.9748807   1.2096345  37.5937891  31.1005569   0.9739015  38.8066244
  36.9721484  17.5399840   8.5926849  37.7550387  17.9304755   8.9810514
  36.7240024  16.8445611   9.2018175  26.2792993  38.2242990  10.3665793
  25.7921147  37.4572802  10.0656390  26.7656660  38.5167098   9.5957518
  24.5804214  64.5378542   0.5639246  24.7148657  63.9348030   1.2950101
  24.4818473  63.9697647  -0.2001371  18.1306958  19.8938537  44.9407721
  17.9783595  18.9635158  44.7749472  17.3787510  20.3340411  44.5444822
  -0.1751143  24.0484858  15.4941726  -0.5197722  23.2515907  15.0911796
   0.7485240  24.0635324  15.2433765  50.3478909  28.3149862   7.6307029
  51.2951422  28.4206033   7.7189976  50.0163412  29.2066336   7.5245434
  59.7007084   1.2253131  50.9620142  60.3380299   0.7951196  50.3919363
  60.2234745   1.5792301  51.6815233   1.6860498  39.9492121   6.3877457
   1.1432506  40.6175375   6.8060017   2.1263032  39.5087981   7.1146882
  77.1012497  54.9464893  39.3800330  77.9900551  55.0313520  39.7250724
  77.2203875  54.6133661  38.4906149  30.4916763  70.3705120  12.0287108
  31.3494754  70.7624006  12.1925366  29.8658967  71.0464239  12.2890425
   5.1929641  27.2605944  63.3344507   4.8123324  27.5120544  64.1759491
   4.4461170  26.9698811  62.8110600  39.8865891  60.2956104  15.2119148
  40.4427528  59.5404959  15.4035211  39.1515136  59.9324703  14.7179270
  50.5073023  21.4726114  57.6809788  49.6471405  21.2674475  57.3145628
  51.0422850  21.7034650  56.9215488  70.5073166  64.4055843  55.3412342
  70.0005865  64.1119766  54.5840979  69.8587799  64.5105696  56.0373735
  13.4169734  64.8949051  11.9633269  13.9496994  65.6728029  11.7980599
  12.6367724  65.0196981  11.4230084  42.6732969  45.1107931  14.6201348
  41.8875933  44.6962500  14.2636919  42.5114250  45.1605844  15.5622339
  42.2565317  63.4200001  24.2176437  42.5452805  64.1868114  23.7228179
  41.4667034  63.7120962  24.6727157  18.9753556  40.6035995   5.2247894
  18.9315772  40.6000280   6.1809808  19.3972027  41.4348841   5.0074416
  13.9590466  18.4637249  12.6265132  13.7309766  18.5710692  13.5499275
  14.9096799  18.5725605  12.6003790  41.7774916  20.3654814  55.2545977
  41.1907911  20.3362298  56.0103512  42.3476648  19.6045148  55.3644276
  56.6728878  40.8072042  13.4521294  56.4374828  41.7349672  13.4604299
  57.0391512  40.6608295  12.5799739  17.1132755  24.2678499  27.1638036
  16.3685489  24.5214415  26.6185474  16.8910289  23.3923817  27.4806523
  32.6115108  48.3155394  19.8543561  32.6446939  47.3754644  19.6772003
  33.5278463  48.5723495  19.9573636  20.0657940  24.8061585  54.2309046
  20.6538057  25.4454088  53.8286257  20.5918026  24.0098095  54.3042231
   7.4320906  32.6443458  64.5348454   7.6636988  33.4638143  64.9719477
   7.2717232  32.0285082  65.2498722  35.6347752  53.8760376  24.9707007
  35.5679464  53.1760693  25.6201673  34.8101950  54.3556690  25.0497770
   3.3759162   9.6418601  64.2431784   4.1236392   9.4519597  64.8098183
   2.7007487   9.0233922  64.5222473  34.0607262  47.6477957  16.3942015
  33.1273055  47.4797630  16.2648880  34.0917373  48.4884644  16.8508673
  52.1870327   6.2149048   7.7033418  51.9128847   5.8393759   6.8666506
  53.0778933   6.5273118   7.5452381   4.0857765  22.2617769  17.2829545
   3.6886162  21.5587997  17.7970731   4.9390277  21.9151115  17.0221543
  40.2113342  61.7175865  29.3391562  40.2831936  61.8562412  28.3947825
  41.0314131  61.2873077  29.5811486  37.7182722  66.0481596   0.8684544
  38.1080818  66.3606310   1.6849354  37.7370524  65.0941133   0.9438172
  25.5447221  64.6743202  24.7737241  25.2137566  63.7773848  24.8206377
  25.7054806  64.8218584  23.8417268  56.9843817   2.4069393  19.5821333
  56.0987091   2.0800279  19.4241881  57.1830034   2.1369368  20.4787254
  17.6558995  14.4112432  33.2526970  18.1188929  15.2482665  33.2882237
  16.9394374  14.5070148  33.8801861   6.0834944  44.7940636  58.7117338
   5.2713203  44.8592949  59.2140770   6.0851264  45.5739307  58.1567192
  26.9674158  23.5367560  29.5590353  26.3060498  22.8448153  29.5656967
  26.9531918  23.8730550  28.6629725  46.2726879  11.4314342  27.8545499
  47.1624088  11.1729848  27.6140761  46.2554693  11.3705564  28.8096571
  44.3382645   1.8276428  10.0780845  43.5375643   1.9714037  10.5825031
  44.7144747   1.0291401  10.4483426  17.4261105  30.9823680  63.7290049
  16.9326663  30.3906298  63.1610346  16.8347669  31.7202377  63.8776588
  25.6223607  36.1875725   4.5556587  26.0504913  35.3451133   4.4033512
  24.7343898  36.0694289   4.2183441  36.1853695   5.1939338  24.1574287
  36.5467095   5.6734467  23.4119558  36.8844199   4.5942444  24.4180655
  66.1772633  47.2167301  42.5582409  66.6360712  46.8930769  43.3334684
  66.3632774  46.5664482  41.8809223   1.1280562   4.7206563  37.4273038
   1.3436602   3.9783439  37.9918551   1.9392639   5.2261782  37.3761034
  18.4551680  73.6124468  52.1327925  18.7596738  73.5669422  53.0391216
  17.5154018  73.4388161  52.1868563  16.0379171  62.1785069  64.4814587
  15.1066291  62.0708132  64.6746874  16.3112867  61.3277483  64.1383648
  44.4014740  18.7293279   9.8574495  44.7021055  17.9182196   9.4476247
  43.5470533  18.5081041  10.2279294   6.5898019  64.5888472  14.4606161
   5.9658962  64.0737438  14.9721241   7.2181606  63.9460993  14.1315734
  35.6678891  28.3892870  63.0852604  36.5256405  28.1563950  62.7299356
  35.5345964  29.2973733  62.8135204  21.5259266  23.2475686  23.5556006
  21.7879057  24.1374302  23.3194947  20.8861685  23.3646226  24.2579103
  64.6053934  72.8393793  61.7748833  63.7647629  72.4149847  61.6032267
  64.4556379  73.3559465  62.5666904  10.0611222  35.2119231  63.6066628
   9.9952596  34.8079300  64.4719267   9.4310939  35.9321666  63.6300278
   8.0615407  46.5302515  45.6513023   7.3768163  46.2605858  46.2634039
   8.8177150  45.9921598  45.8855867  36.7818689  40.6250715   5.1597941
  36.8059206  40.0866222   4.3687665  35.8991909  40.4996204   5.5081785
  36.1476898  60.7486153  20.8509851  35.4696894  61.2844086  21.2626576
  36.9219518  61.3112450  20.8369851   6.1359769  70.5677128   0.3534244
   6.7376274  70.2538586   1.0285126   5.2646631  70.3933001   0.7092686
  76.4134932  20.6022668  60.0687361  76.0402489  21.3145638  60.5879259
  76.4989138  19.8754489  60.6857204   8.5747385  65.8700800   9.5680058
   8.1984752  65.8388424   8.6884141   8.6704236  66.8040371   9.7545493
  16.4693439   8.7677747  55.2515602  17.1301520   8.1458390  55.5561256
  15.8933055   8.8936144  56.0055971   8.6893958  39.2240834  50.3989697
   9.4677877  39.3732309  50.9357119   8.9609557  38.5636568  49.7615337
  15.7615352   9.0035117  61.6265678  15.3488362   8.2098126  61.2860441
  15.1013315   9.3883443  62.2029924  69.5906162  46.3392401  12.5308740
  69.8924685  46.6349602  11.6719973  69.0415573  47.0548773  12.8512371
  38.3024383  48.6827087   2.7964747  39.0026975  48.0752850   2.5579217
  38.3223438  48.7073708   3.7531501  45.0575829  64.1555595  12.3688531
  45.2719116  63.8554239  11.4855564  45.5881691  63.6046362  12.9443479
  51.4680815   2.7901182  45.7970381  50.5517340   2.5203487  45.7356596
  51.7056799   2.6252583  46.7095089  25.4086518  28.4243131   4.4739082
  25.2982116  29.2496395   4.0018147  25.5041647  27.7657485   3.7858680
  10.8082676  34.6792126  19.7173297  10.9603155  35.1286721  20.5486536
   9.8553187  34.6259832  19.6446240  47.9308462  68.0565453   1.4031178
  47.8498793  67.5681305   2.2223417  47.2959328  67.6462841   0.8159203
  36.5952420  58.5622692   1.1825301  35.9781837  58.0448294   0.6651090
  36.1718392  58.6570692   2.0357451  62.2501278  13.0242634  60.4483318
  62.4808979  13.9074183  60.1602173  62.7408457  12.9015529  61.2609625
  60.9340620  11.6883731  18.8428009  61.3480854  12.1767080  18.1312227
  60.2321053  12.2619557  19.1501939  53.3887291  70.3992605  38.3834648
  53.4797239  69.4744062  38.6127949  53.7073565  70.8695364  39.1538858
  29.0236139  58.8365602  25.0072718  28.3398366  59.0338850  25.6473851
  28.5546327  58.4521818  24.2666340  77.2012377  48.8269234  37.3416853
  77.0216513  49.6206951  36.8377924  76.9259453  48.1117296  36.7681456
  32.3990488  40.7604980   9.4750518  33.2095766  40.2735090   9.3263412
  32.2276807  41.2003326   8.6423379  48.8449430  20.9006286  25.5549121
  48.1149769  21.2573576  25.0488210  49.6105003  21.0303998  24.9951744
  39.4870734  64.7556829  34.7107482  39.0098310  65.5079412  34.3606400
  39.2133307  64.0214205  34.1610575   4.2245233  10.1190007  53.6974096
   5.0966066   9.9505347  54.0542316   4.2015740   9.6250904  52.8778028
  78.9122581   6.0613698  12.2511506  79.6578789   6.0065603  12.8488779
  78.6982059   5.1501209  12.0510566  17.3744476  55.3641081  11.0839462
  18.0058229  55.6503248  11.7440045  17.7262950  54.5351458  10.7595122
  25.3334522  33.7748885  60.9383202  24.5723987  33.4831047  60.4364347
  25.5982351  33.0047607  61.4413404  28.0389690  37.1597528  31.9355917
  27.8540707  37.3706532  31.0204053  28.2265210  38.0053401  32.3430681
   6.5592200   5.8072895  52.0330095   6.6814399   5.6842685  51.0916471
   7.4032187   5.5699378  52.4171495  60.8421278  61.2171888  32.5069189
  60.3217077  61.1409140  33.3066535  61.7441845  61.0747099  32.7936697
  73.3436060  61.9726515  61.1479664  74.2826891  62.1355486  61.0595655
  73.2585001  61.0213661  61.0844183  10.6904304  11.6955376  44.0684462
  11.3011575  11.1080492  44.5135307   9.8241931  11.3840592  44.3308306
  59.2812872  67.9556656  26.6547585  58.4234047  68.3774281  26.6058922
  59.8670387  68.5490561  26.1846375  34.1052127  59.7287464  14.5562267
  33.7686062  59.9103260  13.6787534  33.6362934  58.9420700  14.8345912
  46.8238020  26.0628295   5.2623087  46.3460541  25.9557223   6.0848165
  46.4294577  26.8340516   4.8549509  60.4835606   4.8206955   0.4482217
  60.9369993   5.6082731   0.7487954  59.5654964   4.9725503   0.6725612
  15.1658785  25.8700490  62.7599192  14.9033785  26.0942793  61.8671465
  14.4132948  25.4009366  63.1201696   6.0336888  18.8143492  43.8739061
   6.6512263  19.1651428  44.5156431   6.3809884  17.9496217  43.6551380
  67.9639435  11.4601815  35.0565386  67.5265360  10.7872987  34.5348716
  68.8493299  11.1218190  35.1900840  76.4452600   2.9741293  24.0317750
  76.4467096   2.4652994  24.8425293  75.6815243   2.6557514  23.5505533
  34.3228793   4.0629214  36.2299848  34.0222478   4.6253034  35.5161381
  33.5424638   3.5774255  36.4973330  41.9065332  24.9718308  16.4127612
  41.0539818  25.3827691  16.2695444  41.6986704  24.0819025  16.6974556
  76.1951351  49.2647648  28.1632113  76.2873650  49.3022633  27.2112036
  76.5699959  48.4184361  28.4070134  65.4391909   2.6140445  13.5116565
  65.5401564   3.3328557  14.1356337  64.5747757   2.7525353  13.1245685
  23.1598377  42.4340296   7.5310808  23.0601358  41.4831638   7.5774413
  22.3121095  42.7777672   7.8129202  76.4219284  18.7376046   1.0823347
  76.1144733  18.0528414   1.6763061  75.6322861  19.0348434   0.6302883
  11.4224446  24.9099278  33.0485940  11.9441223  25.6356335  32.7059078
  10.5157113  25.1664114  32.8804231  76.0506439   0.3100510  36.6156459
  75.6481457   0.7355089  35.8585382  76.5262651   1.0118812  37.0599985
   5.7005781   6.5599710  44.5200443   5.9238780   7.4445409  44.8097086
   4.9011344   6.3452172  45.0006723  69.2278337  10.6448436  20.9170413
  69.1255808  10.6950521  19.9666440  69.9365282  11.2572551  21.1143708
  67.9045916  18.8578939  25.8629298  67.0500088  18.5610569  26.1756730
  68.5311842  18.4697270  26.4736199  64.8930359  13.0907357  57.9085684
  64.4423342  12.6198578  57.2075891  65.6090879  12.5097919  58.1654739
  63.7339067  47.7995777  27.7212524  64.3048143  48.2811689  27.1226168
  63.3713770  48.4712744  28.2988572  53.9566898   9.2650819  55.9204102
  54.1207933   8.8474113  56.7658997  54.6096802   9.9629432  55.8672571
  57.0709705  21.4211345  13.9043343  56.1744070  21.6529512  13.6621225
  56.9858313  20.9929061  14.7561574   7.8996176  25.1917124  42.2426367
   8.3253753  25.3364062  41.3976383   7.8698689  26.0586095  42.6474047
  10.3007519   6.7714733  16.4284980  10.0566471   5.9492457  16.8534517
   9.6717936   6.8674153  15.7133484  65.7050610  61.4160681   9.0396410
  65.1447964  62.1792412   9.1807204  65.7316875  61.3110209   8.0885953
   7.4722666  42.9324675   6.8737501   7.8518867  43.4303808   6.1497307
   7.4701667  42.0260954   6.5659833  54.7096729   0.7649338  19.4835532
  53.9595890   0.4785664  18.9624047  55.0332403  -0.0352150  19.8974347
  33.9420819   6.3855809  60.9837437  34.1821313   5.5675089  60.5485821
  33.7220907   6.1254460  61.8782616  76.2030458  38.8565516  64.6360588
  75.6898355  39.6195436  64.3701839  76.9163704  38.8139558  63.9992046
  54.3178082  46.0389709   7.1825814  53.7250137  45.2881384   7.2153163
  53.9670992  46.5907240   6.4834392  16.2654388  57.6838827  18.3439457
  16.5341187  56.9135427  17.8433311  17.0865107  58.0683470  18.6509681
  11.1581135  16.9001794   3.4756684  11.6705847  17.5599134   3.9429545
  10.5623603  17.4065495   2.9234922  61.8732595  60.1473618   9.3056107
  62.3768139  60.9455967   9.4652426  61.0432720  60.2929306   9.7596610
  11.2468231  36.6981530  57.1778011  12.0924413  37.1462989  57.1959066
  10.7833493  37.0909929  56.4381409   7.0267487  20.6654334  36.4689708
   6.3714153  21.3386226  36.6522336   7.6013398  21.0624218  35.8143902
   2.3997638  43.8242292  28.3030820   2.7403641  43.4108257  29.0963817
   2.5638446  43.1844711  27.6102495  73.3993053  16.6678083  12.6673555
  73.1825829  17.4753106  13.1334054  74.0545559  16.2411165  13.2194507
  62.0996428   2.5574589  15.2964437  61.9863796   2.8851658  16.1886382
  61.9626045   3.3244261  14.7403729  51.8176126  69.8079586  29.2667818
  52.0888424  70.6401157  29.6543097  51.9854069  69.9138451  28.3303714
  48.5572433  65.8301735  23.2276392  49.0559483  66.1014271  22.4569631
  49.2117023  65.7546854  23.9220548  58.0125141  43.9297962  10.1079369
  58.5721254  43.3450794   9.5968860  57.9048109  43.4843302  10.9482861
  77.4577570  22.5944424  43.1159019  78.1282377  23.1190157  43.5535240
  76.6999960  22.6394868  43.6989975  52.5618076  64.7386217  15.2174079
  52.4871254  64.4104195  14.3213415  53.4256983  64.4465065  15.5082548
  49.6539783  50.8365965  19.0056849  50.4397917  50.6975079  18.4771121
  49.0194988  51.2145185  18.3967173  71.6162586  16.0979307  54.2589140
  70.6796646  15.9520221  54.1257620  72.0035267  15.9741044  53.3923531
  51.3767767  56.2587214   2.1649225  51.5402937  57.0131207   2.7309427
  51.3120270  55.5172634   2.7668151  47.5386286  25.0751829   2.7522391
  47.5311708  25.4583836   3.6293554  46.6481543  24.7473311   2.6265231
  39.0056229  64.4531059   5.0453436  38.0649972  64.2889166   5.1124001
  39.1256142  65.3201771   5.4326713  11.4582956  31.8513751  52.3593998
  12.4101472  31.8321776  52.4586010  11.2908006  32.6117539  51.8026209
  64.6637344  71.9399357  34.7046065  64.9480152  72.6207256  35.3144765
  64.6834135  71.1334419  35.2197886  40.6763792  67.5805140  28.3874846
  41.1711359  67.6724815  27.5732422  40.9679604  66.7447758  28.7518287
  48.9948893  58.2533264  30.2172732  49.4560432  57.4506235  29.9738908
  49.6692514  58.8070393  30.6108093  41.6415024   5.1260418  14.1261292
  41.6457653   5.9647173  14.5874715  41.5684891   5.3617907  13.2012928
   2.6488534  71.0041857  57.3406458   1.7794913  71.0034466  56.9400930
   3.0684403  71.7945862  57.0008755  30.4139853  19.3997061  50.9978056
  31.3239098  19.4809318  50.7120228  30.1178217  20.3025341  51.1136532
  11.0777295  69.1337729  12.5701201  11.2406647  70.0765371  12.5403678
  10.8054054  68.9095783  11.6802847  66.9586134  20.3474474  34.4052362
  66.3091040  20.1715899  33.7244701  66.5624428  20.0078630  35.2077079
  55.9171152   0.1462498  11.7361534  56.3850069   0.8752929  12.1433461
  55.7317638   0.4475217  10.8467090  78.6871147  62.3544168  20.3542876
  77.8183842  61.9654226  20.2531672  78.9061022  62.6815414  19.4817829
  34.8167253   2.4061446  40.2683210  34.3423772   3.2349440  40.2026272
  34.1371322   1.7541307  40.4393768  65.0559282  64.2931843   9.6950752
  65.1474953  64.5763636  10.6048310  65.9520388  64.2728329   9.3592113
   8.5915166  24.9204636  53.6864996   8.6049479  25.8768725  53.6499882
   8.2378042  24.6533346  52.8381109  62.0277977  16.4321733  25.5360031
  62.1856785  17.1237564  24.8933387  62.0567322  16.8798327  26.3815784
  35.5572176  32.0122242  44.8933315  36.3195586  32.5872326  44.8267508
  35.2724981  32.0963645  45.8033276  52.7559090   8.4640759  38.8401461
  51.8418407   8.1840998  38.7918806  52.7097940   9.3989903  39.0402484
  61.2141180  26.9330907   6.9415277  61.0076952  26.2407494   7.5694495
  60.9777880  26.5632105   6.0908997  38.3975720   5.8324021  30.7930374
  38.5100484   6.3538969  31.5877843  39.2706680   5.8004051  30.4020000
  21.6043353  29.0047216   2.2030593  21.9566894  29.6338367   2.8325769
  22.2578764  28.9733839   1.5043925  28.7522721  66.4416885  14.7074342
  29.2677546  66.6395187  15.4893374  29.3191600  65.8754349  14.1837668
  10.1342082  33.6113477  24.2928624  10.2050924  33.0093503  25.0336766
   9.6275502  34.3494225  24.6316433  54.0283108  54.3105412  27.2040987
  53.6988783  53.8738155  27.9895759  53.8146639  55.2341986  27.3361802
  22.7455306  66.1633873   5.6995440  21.8275905  66.1253405   5.9681857
  22.7698588  66.8425179   5.0254381  52.7576637  49.5180750  13.8865733
  51.8973112  49.5234299  13.4670448  52.6381493  48.9831638  14.6713126
  21.2790775  27.4655962  14.2371070  20.7190275  28.2348013  14.3415046
  21.1801648  27.2203898  13.3171487  46.9638729  62.4006414  13.7067807
  47.5599432  63.1490469  13.7353683  47.2569418  61.8336487  14.4201255
   1.7618862  35.0018120  24.2367315   1.2905708  35.3159642  25.0083542
   2.2237423  34.2201614  24.5399594  26.0742807  29.6642303  55.0872231
  25.5805779  28.8900042  55.3575230  26.2102175  29.5454788  54.1471958
  58.5107899  13.9761388  28.8462448  58.7173700  14.2242146  29.7473621
  57.6354027  14.3323505  28.6944437  52.1275902  70.9109974   6.8008608
  52.5049925  70.0489998   6.6254890  51.2117243  70.8301401   6.5346181
  64.5978880  27.5120449  17.7257979  64.8637581  26.7251253  18.2015085
  64.7471333  27.2971916  16.8050408  30.3993368   6.4180094  31.5100431
  30.7859826   5.9493685  30.7703733  29.6702051   6.9072229  31.1289001
  68.0507183  13.9904964   7.5610149  68.4163380  13.5438192   6.7974502
  67.1813393  14.2746496   7.2787493  65.3949308  14.8981106   7.6685482
  64.6699476  14.6428585   8.2390577  65.8612919  15.5732656   8.1614017
  68.0654049   8.0224818  36.1231947  67.6280642   8.6669838  36.6795921
  68.5287189   7.4518335  36.7363286  39.9109507  67.8253889  21.9456387
  40.8393908  67.9907227  22.1096325  39.6173263  68.5856009  21.4435482
  31.7175460  29.4302726  55.3420782  31.8898439  30.2394176  55.8235645
  30.7691169  29.4257712  55.2128792  61.8086052   7.2110170  16.5905464
  62.4107075   7.5816387  17.2357965  62.2883129   6.4751345  16.2102962
  59.6127176  40.0022745  58.2602549  58.8210630  39.7004914  57.8147936
  59.9647713  40.6837177  57.6876068   0.9764652   4.2077100  24.8709512
   0.5333000   3.7117898  24.1825485   0.4770583   4.0148211  25.6644368
  67.4421024   2.0672810   7.1901900  67.1122169   1.8316008   6.3230896
  66.6831684   1.9802471   7.7669758  32.5968766  21.9358897   6.0403931
  33.1764531  21.5067649   5.4109681  31.8684363  22.2616959   5.5117559
  11.2326360  19.0144825  48.2371426  10.6005800  18.3218968  48.4296608
  11.4911556  18.8571537  47.3290443   6.4254439  14.2542851  13.9822090
   6.0364842  14.1826022  13.1105423   6.9743246  15.0371134  13.9359224
  31.6201138  31.6786814  57.1875525  30.8074808  31.3180161  57.5422049
  32.2254920  31.6794252  57.9290009  66.9158554  63.6580706  24.5462656
  66.5205288  63.8742495  23.7017465  67.6327562  64.2849636  24.6426201
  49.6188879  59.3323278  34.2427731  49.0150356  58.5997772  34.1204786
  50.4510117  58.9204979  34.4755816  29.0153527  61.8375540  18.8717377
  29.6604419  61.3686419  18.3423841  28.4024143  62.2032642  18.2339334
  53.0186415  67.5973511   1.1474572  53.7910318  67.9577303   0.7118351
  53.3582640  66.8799067   1.6823962   2.1775062  54.1933441   9.0079528
   1.7621256  55.0415277   8.8521397   1.6555969  53.5737848   8.4980619
  25.7205796  46.9034147  62.8618479  24.8579311  47.0261765  62.4656153
  26.1897993  46.3417864  62.2448874  12.0452726  70.9273052  41.2911129
  11.6643143  70.5191040  42.0685911  12.9774916  70.7161283  41.3421392
  20.3220844  67.1366024   9.9916655  20.8116055  67.8670359  10.3699052
  19.9165833  67.5017262   9.2052281  69.0959883   2.9610461   9.4267917
  68.6417675   3.2319734  10.2246106  68.3956289   2.6947400   8.8311321
  59.4973087  74.1553497  14.4031072  58.7135458  74.4579363  13.9444292
  59.6272755  73.2601023  14.0902710  10.4318273  59.9376059  17.6106405
  10.7110870  60.1727867  16.7258048   9.5009804  60.1593447  17.6348948
  62.1727943   2.0176058  46.2150335  61.6735029   1.2034802  46.1506701
  62.3034906   2.1447687  47.1547031  38.2903838  62.3651457  20.4719782
  39.1209769  62.5181484  20.9224653  38.1460214  63.1603765  19.9591422
  13.4810996   9.6144795  36.2512612  12.9673767  10.4149842  36.1439633
  12.8489673   8.9631641  36.5552807  41.1497450  54.7784996  12.8157127
  41.8005371  55.4787302  12.8644633  40.3314114  55.2265501  12.6016843
  79.6842649   6.2540346  23.0260825  78.7720996   6.4645487  23.2257557
  79.9470609   5.6472445  23.7181640  30.8945155  16.1486483  21.9439077
  31.0835648  15.4935277  21.2721109  31.7346954  16.5792751  22.1016717
  47.8099394  60.4926777   6.1861140  48.5440254  59.8860788   6.0892099
  47.8984499  60.8356810   7.0753527  39.3076491  57.0557117  12.2454715
  38.9894581  57.9475832  12.3853028  38.7342834  56.5097523  12.7834415
   1.2228828  20.7170081  30.2257228   1.8737438  20.1170850  29.8614359
   1.4535850  21.5711999  29.8605347  65.1850605  45.7848406  28.8403511
  65.4347324  45.3858232  28.0068779  64.5118093  46.4242220  28.6076427
  76.7963934  27.0370340  26.7363763  76.7744827  27.0223427  25.7795405
  76.0933685  26.4438510  27.0011854  48.5751772   3.1467307  28.0064774
  49.3343210   3.2687613  27.4363542  48.9411783   2.8077161  28.8233876
  71.3826180  22.4628925  45.8190584  71.3632393  22.0318770  46.6735077
  71.7691898  23.3212161  45.9924793  59.9190092  69.9009609  21.2369227
  59.1958570  69.2801523  21.1481309  60.0212002  70.2763033  20.3623343
  54.4220304   4.0452361  21.4036083  53.9920235   3.2160839  21.6129637
  54.2971849   4.1482770  20.4601955  58.3128214  66.6355848  52.8627300
  57.9399538  66.1600637  52.1203804  58.9256144  66.0168600  53.2600975
   9.0094882  12.5900555  16.2554801   8.3099669  11.9841182  16.0110593
   9.2576277  13.0134523  15.4336572  60.9502840  19.7223437   0.8762357
  61.1864281  19.8263192  -0.0455323  60.5126953  18.8719964   0.9169292
   8.4133404  14.6658564  27.4893069   7.8929985  13.8633180  27.4517775
   8.1908417  15.0562620  28.3344769  36.8320465  24.6201277  47.8781748
  37.7417064  24.3988085  48.0776024  36.7361617  24.4224238  46.9465351
  13.8796937   2.3068687  34.2460442  13.0938852   1.8526161  33.9420867
  13.5740387   3.1829298  34.4812536  15.5457592  16.3806832  26.7033863
  14.7951329  15.7873118  26.6768694  15.7579255  16.4570880  27.6336432
  72.9694080  45.9587431  10.2838635  73.2201719  45.1032162  10.6323135
  73.3093119  46.5861893  10.9218347  40.2433634   1.3549176  35.5362511
  40.7000637   1.9596647  36.1210084  40.2273655   0.5257407  36.0142064
  70.1941347  11.8618143  47.1924257  70.7692909  11.1870420  46.8317175
  70.4578638  12.6656997  46.7447090  21.5926456   7.6512653  28.6615849
  21.6311765   7.9665899  29.5645356  22.2107220   6.9208002  28.6363983
  18.0054957   0.5525735  37.9150844  18.8736540   0.8924488  38.1319094
  18.1729228  -0.3154179  37.5479484  20.0687790  63.7048721  17.4125671
  20.1713562  63.0354500  16.7361200  20.9160423  64.1494179  17.4400342
  73.6539268  52.4929094  27.2971964  73.7300587  51.5964890  27.6240969
  72.9740810  52.4457979  26.6250157  22.9689455  16.4938843   7.5413984
  23.0854917  15.8167887   8.2078749  22.0288968  16.6742313   7.5450146
   3.9490172   8.0259085  17.0043385   3.5645485   8.0341387  17.8808928
   3.2663786   7.6524395  16.4468825  28.2899785  55.2859163   6.3880801
  28.9463186  55.1876736   7.0778620  28.7304139  54.9840689   5.5936396
  23.7209558   9.9011946  38.7246966  23.7212014   9.0930861  39.2377210
  24.5910239  10.2745438  38.8654971   7.2063935  66.3457108   7.2157127
   6.3450724  65.9676218   7.0384967   7.0844865  67.2871876   7.0932561
  35.8084035  13.3980215  25.2163410  36.6040111  13.6559713  24.7508287
  36.0200644  12.5464058  25.5986810  72.0064116  68.5427856  27.4642110
  72.8054714  68.7405968  27.9526877  72.0218658  69.1494131  26.7239404
  37.5002074  23.9091492   7.5134075  37.5610161  23.1541562   6.9281560
  36.8248343  23.6671972   8.1470942  22.1202302  61.8022203   0.9791592
  22.1836376  61.1300087   1.6576481  22.6403809  61.4589977   0.2526081
  28.2084465  45.4434299  25.5567026  28.5510206  44.6414375  25.9512734
  28.8239312  46.1250067  25.8266354  60.5444098  54.4738674  14.0304637
  61.3437128  54.0671206  14.3649864  59.9436998  54.4699478  14.7756910
  20.3015351   5.8930773  20.6297374  20.5707002   6.4283806  21.3762164
  21.1226344   5.6414330  20.2069998  70.6441450  11.0242140  24.3190742
  69.8577881  11.4198697  24.6950102  70.8820724  11.6046250  23.5960627
  66.4834738  30.9948397  30.6776333  66.2155485  31.8920398  30.8763289
  65.6615973  30.5257344  30.5337930  31.3214993  11.9035184   6.2063849
  31.8300319  11.8309510   5.3986961  31.8152809  12.5212860   6.7456204
  24.2183852  40.0618362  27.6578784  23.2687497  40.0829029  27.7761149
  24.3399072  39.9463820  26.7154694  61.2130833  59.7680426  53.9597178
  60.9651852  60.1604414  54.7968578  60.4773378  59.9596500  53.3781719
  72.5271988  21.5870285  14.5263886  72.1899414  22.4828219  14.5327497
  71.7877531  21.0547876  14.2328346  54.0739155  42.5269461   7.3755741
  53.2829237  42.1741390   7.7831221  54.7704983  41.9295597   7.6478523
  19.1187644  20.2718592  21.7705679  18.6939466  20.6131768  22.5575018
  18.4258854  19.7977328  21.3108325  44.4229794  14.0987134   9.4053841
  44.0304136  13.8884056   8.5580963  43.6793709  14.3230319   9.9648136
  31.1451125  63.8482475  19.3930697  30.6177998  63.1335926  19.0360844
  31.2340450  63.6389732  20.3228688  63.3206081  64.4580221   5.5991429
  63.2495928  65.0420475   4.8440909  64.1543913  64.6931839   6.0062546
  69.6794081  62.8341818  51.2410831  68.7629747  63.0091286  51.4550304
  69.6411753  62.2400522  50.4915619  63.8142729  26.4775586  31.2815046
  63.5256577  25.7887912  31.8802810  63.8277531  26.0572386  30.4216313
  68.6013317  27.2443962  61.2740278  68.2377672  27.5690389  62.0978355
  67.8890848  27.3436284  60.6422949  73.3779812  41.7119169   6.3347709
  74.0430069  41.6901350   5.6466591  73.0947876  40.8018398   6.4230609
  51.9735479  21.1000872   2.6149556  51.5738487  20.2540898   2.4130622
  52.8313112  21.0668969   2.1914342   8.5662198  22.9067492  58.8872576
   8.3786786  23.4147120  59.6765804   8.7605721  23.5645843  58.2196379
  31.2097216  17.0710337   4.5950669  32.0762134  16.7293024   4.8156232
  30.9814095  17.6382995   5.3314871   7.8593940  29.9798751   3.4302536
   7.4067295  30.1438975   4.2575529   8.7386942  30.3336310   3.5641152
  71.2856150  18.6198640  10.7098341  70.3735924  18.8628280  10.5504179
  71.2364578  17.9164946  11.3572037  48.1552792  66.8343449  58.3641815
  48.2670736  67.7639914  58.1654549  47.8192425  66.8197107  59.2603350
  21.3329768  27.1217728  11.6437280  21.0216260  27.8015161  11.0460317
  22.2536850  27.0016837  11.4111137  72.8235435   7.7985382  57.9360151
  72.6195717   8.1235671  57.0590973  71.9855261   7.4851221  58.2762098
  15.7254028  25.2974534  13.9438415  15.2058816  24.4944453  13.9050269
  16.3878179  25.1873684  13.2616997  27.7114487  31.1523414  30.4330444
  27.5902581  30.6901908  29.6036100  28.6331272  31.0145354  30.6515646
  25.4680490  42.1787834   9.9613589  25.1668453  41.6752100   9.2051035
  25.8308935  42.9809952   9.5858198   3.3323419  44.0434122  20.4515815
   3.8839227  43.2613850  20.4720926   3.4684148  44.4096327  19.5777404
  58.7109470  49.1921854  63.5379362  59.5914602  48.8173914  63.5164785
  58.3932638  49.1090202  62.6388311  18.3680785  48.1643200   0.9497035
  18.2163024  47.8918123   1.8546546  19.0530264  48.8300753   1.0117183
  52.7243090  24.0864587   3.1537175  52.1865273  23.3032155   3.2701117
  52.2698736  24.7653198   3.6525849   9.6065670  61.9809246  51.5496111
   9.3565226  61.0770798  51.3578463   9.0227008  62.2452593  52.2605658
  15.5106652  23.7762427   5.5223233  15.4565227  24.2076635   6.3750696
  15.0950503  22.9247069   5.6578940  73.2515526  18.2045221   8.3896106
  72.8969336  18.8916862   7.8254437  72.7204514  18.2495642   9.1846788
  28.1428504  17.9903877  25.2773356  27.9330897  17.0852673  25.0471449
  28.4841180  18.3704686  24.4678259  45.2721834  19.8967791  25.0432873
  45.0880194  19.6862733  25.9587097  44.5518303  19.4969594  24.5559835
  34.1734409  73.2189894  64.7665024  33.8254237  72.9723120  63.9096069
  33.5145497  72.9129553  65.3897476  68.7611532   7.7266669  64.4695807
  69.6989250   7.6156014  64.6260357  68.5968781   7.2542030  63.6534786
  11.0981834  10.9403622  18.4245980  10.2598929  10.4962599  18.2970273
  10.9167027  11.8577790  18.2205343  55.3967190  62.5777864  13.3009648
  55.8744192  62.3284578  12.5098443  54.5400667  62.8634071  12.9834712
  34.0450191   3.0909067  44.0201044  33.3177280   3.5018915  44.4874048
  33.9956212   2.1669447  44.2652273  55.3615856  37.7048469  45.0546169
  54.9217796  37.2479939  45.7716179  54.6789837  37.8287768  44.3951273
   8.0947381  48.8094044  28.8397026   7.2282135  48.4189653  28.7260222
   8.7010944  48.0724812  28.7654853  15.6664395  23.8500762  41.6567850
  15.7315469  23.9593554  42.6054955  16.2741816  23.1385159  41.4553881
   7.0285833  32.2979331  26.5153694   6.9937032  31.3719106  26.2755823
   6.6730398  32.7560902  25.7538509  64.1802359  51.1485529   5.5328834
  65.0247145  51.4178419   5.8942282  64.1001177  50.2255630   5.7735062
  75.4555321  69.2077112  42.5672150  75.7237482  68.5766840  43.2351255
  76.2609148  69.4089413  42.0906639  65.5768633  48.5703611  22.1904182
  65.5936432  47.7454710  21.7051315  64.9132299  49.0969276  21.7448330
  56.1883259  60.0573826  52.9637527  55.7640266  59.5699835  53.6699009
  56.9853640  60.4088116  53.3605671  73.6449289  18.5192120  31.2295318
  74.5441484  18.2027447  31.1430502  73.7199831  19.4718909  31.1747432
  32.0782328  55.0540876   3.5866776  31.5124202  55.5295563   4.1949651
  32.8157473  54.7632933   4.1230971  21.5590572  18.9144850  13.2583952
  21.6379833  18.5755861  12.3666823  21.8435407  19.8261750  13.1941855
  71.8969870  16.3246191  43.6084938  71.1524010  15.7631314  43.8242579
  72.5041771  15.7490361  43.1434631  12.8769851   3.8267270  52.1392536
  12.3307836   3.7906915  52.9244900  13.0126798   4.7615498  51.9845819
  43.0901289  60.5780649  10.8481014  42.3492670  60.1504707  10.4185426
  42.8433132  61.5020466  10.8877337  14.6484149  32.7765083   3.9965859
  14.0018463  33.1712866   4.5816779  14.6732020  33.3601713   3.2383275
  45.7152987  25.8198023  29.3555498  45.0405407  25.3949690  28.8259745
  45.3485727  26.6783023  29.5670271  32.3788261  29.2562079  52.5795412
  32.2509003  29.2152619  53.5272741  32.6659846  28.3755279  52.3383522
  21.1938834   5.2075046  62.0139885  21.3581228   6.0848451  62.3597193
  20.2597666   5.2033836  61.8050814  12.5699759  54.3870735  10.7950497
  13.1247854  54.2485809  11.5626681  13.1123936  54.9013853  10.1971364
   7.9722917  41.1356449  56.1981583   7.8954303  41.7903709  56.8921709
   7.1036381  41.1087608  55.7969713  40.9731102  10.2283514   2.0460615
  40.7026768  11.0618961   1.6609639  41.0209608   9.6258968   1.3037743
   4.1218308  52.4637222  62.3058128   3.9165288  52.2800636  63.2225227
   3.2964247  52.7733564  61.9329023   5.5562460  47.3067379  57.4612045
   5.4661435  47.0686483  56.5384769   4.7651467  47.8086281  57.6574135
  23.4911442   6.2046212  49.1554117  23.0387282   6.9321674  48.7285328
  23.2735920   6.2983805  50.0828362  60.9309530  63.5685110  35.3661156
  60.0594664  63.4952211  35.7551718  61.2618828  62.6704979  35.3489566
   3.6612734   5.6872398  39.0830040   4.3920699   6.2880230  39.2287016
   3.7122518   5.0672084  39.8104620  45.2904415   7.4647069  63.0782938
  44.7580671   7.1265435  63.7983274  45.9483290   8.0141479  63.5043573
  49.7006941  25.8650017  14.6150994  48.8519192  25.8097553  15.0541472
  49.4847107  25.9978390  13.6920953  11.3059103  47.1982622  62.4543762
  10.8439684  47.0886230  61.6232204  11.6932070  46.3403320  62.6281261
  35.9089899   6.7934030  11.2909019  36.4109612   7.3226780  11.9106817
  35.7597685   5.9659851  11.7484438  10.0734210   0.4008865  47.4015808
  10.5279434   1.1820997  47.0863914  10.7315826  -0.2928109  47.3587036
  28.8330269  18.2620251  48.9452076  29.2247319  18.8725567  49.5697451
  29.2814493  17.4321949  49.1080904  78.6745358  41.6944122  36.7512941
  78.5521984  41.7447472  35.8032799  78.0078173  41.0741425  37.0462322
   8.1260532  16.4099467  13.8526011   8.4498680  16.6316366  14.7256577
   7.7789789  17.2334409  13.5096300  16.7895579  64.6932125  59.2170334
  16.6357577  64.1606474  58.4366798  16.2111545  64.3178892  59.8809719
  30.4528499   5.0859606  28.7165594  31.2367773   5.0646514  28.1677079
  29.7472167   5.3285176  28.1169939  49.9546766  55.7278681  61.7243767
  50.4245615  55.5023003  60.9215307  49.9385929  54.9146461  62.2290039
  75.9108925  23.2094240  45.3244925  75.6208754  24.0999269  45.1266909
  75.1633120  22.6574969  45.0948668  15.2941835  41.1208296  38.1952310
  14.5926940  41.7683268  38.2651544  16.0441399  41.6149950  37.8641796
  50.4465342   9.6174383  20.2264833  51.0605669  10.0887609  20.7895589
  49.8831892  10.3001833  19.8621547  17.3115385   2.5499660  55.4390860
  17.3847055   2.4363019  56.3866901  17.0507658   3.4641054  55.3269339
  25.5383897  14.9434578   3.5872713  24.7888136  15.3073490   4.0583897
  26.1376262  15.6825829   3.4831601  73.7710142  20.8396864  63.3018732
  74.5789766  21.2211061  62.9584312  73.0848217  21.1700606  62.7220297
  78.3598518  12.2869325  63.3106041  78.9654255  12.2966492  64.0518284
  78.9036798  12.0476174  62.5601339  76.3636398  55.2324295  57.0665932
  76.1775208  54.3851805  57.4712706  75.7993793  55.8495092  57.5324869
  65.0999975  68.4290314  14.6547818  65.8561563  68.1609869  15.1769018
  65.4751587  68.9241648  13.9265478  76.3213825  58.0725241   9.0963387
  75.4767799  57.6888561   8.8603830  76.8891811  57.3194885   9.2599863
  44.5927000  26.4825749   7.2525674  44.1165638  25.8537841   7.7949220
  45.1305723  26.9748187   7.8727472  12.1605563  62.0092773   5.5851102
  11.2720859  62.3271990   5.4245585  12.6862669  62.4067545   4.8909390
  20.7426167  15.2974045  60.1819134  20.5093575  14.3962467  60.4049253
  21.6996098  15.3082359  60.1986361  40.7859325  72.5875998  63.2038116
  41.4104557  73.2730436  62.9663944  40.3501797  72.3651838  62.3810816
  53.1449223  18.4958279  39.8405814  53.5276747  17.7695024  39.3484592
  52.2185516  18.2687151  39.9211431   3.3918893  13.5463977  48.7707090
   2.4450535  13.6109710  48.8954639   3.5234419  13.7242031  47.8394127
  47.3260164  26.2560964  15.7187402  46.6391134  25.8156848  16.2191677
  47.1889925  27.1874285  15.8921635  63.6072302   5.1496464   2.4307762
  63.8822269   5.4974425   3.2790968  62.7702808   5.5797827   2.2554839
  10.3855407  28.4337282   4.8932505  10.9557247  28.6135149   4.1457218
  10.1552880  29.2987275   5.2323532  75.2885389  58.8521528  23.5847569
  75.9262800  59.4325686  23.1692672  74.7621489  58.5162163  22.8592944
  27.0332980  56.5258789  17.1332765  26.1222863  56.7806768  17.2794545
  27.1082950  56.4394665  16.1829400  29.8531651  21.6732430  31.4151382
  29.6971083  21.5678453  32.3536301  28.9806914  21.7888188  31.0387540
  55.6082058  39.9736285  62.4861574  55.8923149  40.0010872  61.5725040
  55.7395792  39.0631032  62.7505732  53.4337854  52.0834637  15.0747895
  53.2484102  52.9859591  14.8152280  52.9699183  51.5488243  14.4304132
  60.7837248  48.1885290  49.8997927  60.7894707  49.1071701  50.1686859
  61.1546803  47.7181244  50.6463480  63.6161757  45.4404402  58.0524874
  63.1993008  45.5227518  57.1947765  63.6082840  44.5005274  58.2334185
  12.8233206   5.5300552  13.6483169  13.1418097   6.1397159  14.3139827
  13.0737746   4.6660405  13.9754009  55.7482433   5.2835083  38.4841251
  55.5169678   5.3756040  37.5598621  55.6206846   4.3535188  38.6714220
  64.9361992  18.1262910  44.1985369  64.7186327  17.4161184  43.5947561
  64.0984011  18.5528874  44.3783712   8.8989466  72.8754663  51.6937160
   8.0762428  72.9894733  51.2179089   9.4213778  73.6414146  51.4557552
  25.1541209  26.7669439  17.7985561  25.4271507  26.0022092  18.3053768
  24.7590446  26.4011717  17.0071280  26.9495010  51.1007452  31.5504980
  26.6125679  51.9936609  31.4769697  26.5371585  50.7535315  32.3414755
  58.6116219  62.3395872  59.5850706  58.7057352  61.3889456  59.6455479
  58.1400776  62.4818516  58.7643194  60.7175350  67.7065372   6.2622964
  60.6345844  68.2725143   7.0297718  60.2987003  68.1981182   5.5557865
  24.5513010  30.3547645   6.3215315  24.5012808  31.1854982   5.8486557
  25.0385666  29.7749448   5.7362002  79.1196775  67.7141428  59.7546911
  78.1819916  67.8642321  59.8749065  79.2428684  66.7883444  59.9643469
  54.1293049  17.6794398   5.5918956  53.2254601  17.9939878   5.5731225
  54.0616846  16.7744398   5.8962542  26.0061288   8.1190515  29.3113351
  25.4692125   7.6834571  29.9733090  25.5619597   8.9520162  29.1528583
   3.3727199  38.1264281  56.8060160   3.2566479  37.5712562  56.0349512
   3.1378859  37.5636983  57.5438643  46.1744022  56.3002396  12.8229451
  45.2605104  56.4143181  13.0837655  46.6561604  56.2610006  13.6491430
  57.1838045  69.6108246  60.6236506  56.2527895  69.7863674  60.7601261
  57.2165489  69.1140747  59.8060942  67.9540586   2.5796458  16.9849312
  67.6198912   1.9593213  16.3370407  68.8295650   2.8056344  16.6708481
  25.4078913  42.9914379  18.8504207  25.1793551  43.6859894  18.2326865
  25.5653405  42.2240019  18.3004308  39.9364972  20.0753355   6.2887353
  40.7161856  19.6224880   5.9674186  40.1939964  20.4175472   7.1447831
  50.1519394  46.2085915   9.3666250  49.6639585  45.8201599   8.6405194
  50.9739017  45.7187319   9.3920159  36.4955807  10.4531109   0.7215907
  37.4489665  10.4012144   0.6538104  36.3055229  11.3912070   0.7123918
  68.2877302  55.2934122  63.7509632  68.0640411  55.5575562  64.6433878
  67.6923275  55.7969141  63.1957960  21.9488454  25.2424955   4.0227860
  21.3152671  24.9284744   3.3776495  21.6423512  26.1198211   4.2521161
   6.1979359  11.4878201  60.5935669   6.6577345  11.8120170  61.3679790
   6.5642780  10.6160760  60.4449558   2.4591833  33.1277418  18.5544205
   1.6825715  32.5725865  18.6244667   3.0720139  32.7640510  19.1934800
   2.7954310  57.7981424  37.2076201   3.2222167  57.7107143  36.3553023
   3.2785818  58.4981251  37.6467347  56.3969660  54.3535805  46.2891912
  57.0747137  53.7558126  45.9736586  55.6068325  53.8154888  46.3379955
  26.2595963  38.2408071  25.7078838  26.8771505  38.6155486  26.3359189
  26.7743540  38.1172585  24.9103928   8.5840356  14.5043600   7.5364542
   7.8589380  14.1845298   6.9996363   8.6077458  15.4466903   7.3700714
  74.8595238  59.6800756  58.2848406  73.9655066  59.6458483  57.9445601
  75.0285816  60.6123877  58.4206486  11.0822809  66.9333172   0.8968829
  11.7672777  66.2696409   0.8159786  10.3645790  66.4836311   1.3428849
  26.2892079  65.0573444  55.0155830  26.7534447  64.3174744  55.4071331
  25.7092881  64.6596432  54.3661547  11.5333927  11.5907967  12.5726044
  11.6308677  10.8290863  12.0011783  11.5212631  11.2263072  13.4576082
  60.3958702   0.6551679  14.2832172  61.0522842   1.3371854  14.4253564
  59.5786333   1.0394482  14.6005213  32.0954704  32.3886108   3.8330999
  31.9835639  31.5171552   4.2129338  32.3611426  32.2232866   2.9284900
  74.5462942  68.5608578  52.3916531  74.4078064  67.8233910  51.7973471
  74.8840523  68.1620502  53.1935883  23.5401583  21.2162757  22.7014637
  23.2168865  20.4527450  22.2231889  22.7602100  21.7485762  22.8582096
  40.3606224   1.0577774   4.4607395  40.0802851   0.2758584   3.9850885
  40.8270788   1.5805033   3.8085064  70.3232527  61.7541885  48.5661507
  69.8429632  62.5434542  48.8163662  70.0356579  61.5723419  47.6714659
  41.6539860  26.3288283  23.0879188  40.7227993  26.3322949  22.8662992
  41.9945049  27.1369696  22.7042699  14.4239748  51.8403006  19.0541351
  13.7934959  51.3084984  18.5684252  14.1449285  52.7428770  18.9001346
  44.0483046  32.8191948   0.4382055  43.9358711  32.0989084  -0.1820989
  44.9385357  32.7104473   0.7727122  59.8678875   0.6114335  18.0962217
  59.8448181   0.6987684  17.1432924  59.8038006   1.5096819  18.4206820
  26.9758844   6.7938453  36.9054937  27.9011917   6.6410691  36.7139363
  26.5238523   6.5801102  36.0892725   0.7835346  47.9119444  60.3759766
   1.5929593  48.2422256  60.7658195   0.2743692  48.6981821  60.1789570
   6.1402315  29.2545009   1.0504166   6.5866983  29.6053219   1.8210159
   6.5537792  28.4043932   0.9003247  67.7975702  32.7323174  62.7675676
  67.9065466  31.8626571  62.3827982  66.9606924  33.0436540  62.4226999
  39.1957545  48.0489302   9.1866595  38.4254670  47.7630186   9.6777248
  39.4860864  48.8421011   9.6370137  65.9263706  26.9241524   1.0303169
  66.8047333  26.7937231   1.3876647  65.3752184  26.3144422   1.5209496
  59.8475122  17.0968211  52.2827816  59.4438267  17.6195729  51.5899611
  60.7879972  17.2339702  52.1691847  77.0366335  12.7691507   9.4501364
  77.8119040  12.9849982   8.9318746  76.4777851  13.5429955   9.3788123
  51.9372272  52.3657608  12.3733056  51.4928341  52.9953194  11.8054986
  52.8611994  52.6112890  12.3261583  62.7860737   0.4486214  54.0151119
  62.1321964  -0.2253673  54.2006302  62.2884655   1.1610907  53.6138582
   3.2447839  56.4765692   3.8918981   3.8811469  56.1796951   3.2414085
   3.4930524  56.0198736   4.6956521  55.5612898  18.4290004  18.5537088
  55.0700140  19.2443299  18.6542892  55.3851414  18.1526208  17.6543653
  44.0306759  61.7594099   4.9059731  43.7655210  62.6788521   4.8825553
  44.0160322  61.4825058   3.9898169  63.6827993  70.8701372  56.8815374
  64.4006300  70.3154469  56.5761328  63.3181667  70.3990507  57.6307726
  68.0828714  61.5109396   1.9922675  68.0900192  60.8339024   1.3156597
  68.0989599  62.3354244   1.5062651  55.0873613  71.6190434   7.7767378
  55.1537800  70.6998158   7.5182009  54.1754246  71.7265415   8.0470133
  45.0275898  13.7322128  26.5740538  45.5225515  12.9140580  26.6172385
  44.2289543  13.5555172  27.0712352  32.0613074  45.3665257  64.1346312
  31.4327908  46.0033321  63.7945223  32.5963378  45.8646202  64.7525930
  35.6788850  60.6389141  24.0416574  35.1480126  61.1910105  23.4675550
  35.4773831  60.9482479  24.9248004  74.7062397  11.3233137  47.7526760
  74.2816257  11.5495050  46.9251680  75.5461979  11.7814314  47.7239466
  24.8262668  28.8975906  19.3037522  23.8821363  28.7602997  19.3812180
  25.1666903  28.0556989  19.0011573  48.8832235  12.1422970  40.3250885
  48.5272074  11.5821993  41.0148525  49.6534014  12.5499022  40.7212114
  64.5063496  62.5595713  55.1482105  64.5036030  62.3752880  56.0875034
  64.6347380  61.7048740  54.7368240   8.8263637  27.6222992  53.6767244
   9.7041309  27.8220439  54.0020847   8.5228378  28.4424090  53.2874680
  79.5813534  13.7438202  52.3508501  79.1059185  12.9267728  52.5012732
  78.9367553  14.4307649  52.5206518  21.3254237  18.4108984  49.2271471
  21.2720561  18.3303273  48.2748365  20.5129385  18.8514638  49.4761467
  60.6466722  48.5569048  60.8816767  59.9629164  49.0301895  60.4076385
  60.6747437  47.6956463  60.4649305  11.7302036  60.2998590  53.7107706
  12.5904453  60.6872654  53.5491085  11.3529336  60.1820278  52.8389788
  38.8886142  61.5601778  64.1905403  38.0523038  61.0961819  64.2295790
  38.8874626  62.1215868  64.9658155   0.5582582  20.4130983  64.9916664
  -0.2573360  19.9253177  64.8771969   0.7685482  20.7370233  64.1158340
  24.5962214  43.6078882   5.6548089  25.5329967  43.7898731   5.7294184
  24.3743372  43.1564045   6.4691561  47.8456402  58.1649065  16.2050033
  48.5144281  57.6078749  15.8066654  47.0247269  57.6944017  16.0602272
  35.7648396   3.9081332  57.9910707  35.9885216   4.6749377  57.4636126
  36.3605833   3.2245046  57.6845217   0.2166599  34.4935417  54.4763136
  -0.3853089  34.7398829  55.1785803   0.1868766  33.5369468  54.4598770
  49.0690851  10.5874312  45.4377031  49.5951557  11.0118520  46.1154604
  48.8191891   9.7462869  45.8201456  46.6676044  63.3255625   5.1554853
  46.1651182  62.5272465   4.9929315  46.6748619  63.7797356   4.3129262
  42.9437542  51.4545822   2.0582932  42.5416708  52.1089649   2.6295620
  42.2102356  51.0778475   1.5722370  29.5317173   2.6179668  26.7632651
  29.7898579   3.2942334  26.1369610  30.3548098   2.2016110  27.0189977
  26.7474747  18.8579476   9.9524659  27.0065641  19.7662151   9.7970510
  27.5117683  18.4586012  10.3679276  50.5138588  59.7112083  59.6622515
  50.3423262  60.5118752  59.1665316  50.7056856  59.0526247  58.9946461
  50.2297974  22.9556084  42.0892191  50.7851601  22.5917983  42.7787447
  50.1925325  23.8926315  42.2811365  58.2651758  46.2680864   9.0111709
  57.8889561  47.0031786   9.4952488  58.1788349  45.5215883   9.6040553
  74.2008209  20.0097799  41.5131378  74.1964865  20.9662437  41.4758444
  73.2753754  19.7670233  41.5422344  72.7431870  40.9854364  52.3607016
  72.9187822  41.2577105  53.2614040  71.8063736  41.1417150  52.2415638
  61.3111591  13.6132324   8.1309342  60.7551003  13.2996356   7.4177110
  61.5078735  12.8292716   8.6437118   8.1568044   5.4021186  61.4464951
   8.3187890   4.9177632  60.6369305   7.3577011   5.8994198  61.2722635
  66.4696598  60.9686804  60.6434774  67.0553303  60.2298832  60.4779387
  67.0235538  61.6225052  61.0700321  50.3588343  36.4665747   4.4128263
  49.7115850  36.5956450   3.7195420  50.5971003  37.3524857   4.6860030
  15.4137909  26.4642406  55.9296942  15.7005799  25.8403158  55.2628374
  15.9954476  26.3046479  56.6729546  71.2858009   1.5992568  53.1127071
  71.6066027   2.4976410  53.0338287  71.7408276   1.1207345  52.4197435
  18.5596538  56.3625860  50.3236866  17.7662158  56.8669891  50.5033112
  18.2590461  55.6235361  49.7948456  57.3349667  45.2784967  21.3469839
  57.2376728  45.9057999  20.6305599  56.5303993  45.3709745  21.8572259
  49.0798378   0.4785172   6.1841464  48.2668543   0.2087954   6.6113973
  49.7634268   0.2834444   6.8251491  73.9973879  30.1534581  58.1846046
  73.6651516  29.5390105  58.8390541  74.1963339  29.6082568  57.4234152
  24.8920488  36.3266778  61.5425444  25.7153225  36.7470956  61.2941504
  25.0143147  35.4057336  61.3120127  53.8110542  66.2106657  64.2698669
  53.9987469  65.3062153  64.0189266  54.6726847  66.6167021  64.3644953
   4.9659184  53.4721994  49.4605207   5.2304208  53.4158468  50.3787231
   5.4230022  52.7469730  49.0346575  17.3422146  61.5740490  32.6105952
  16.5114617  61.7165947  32.1569872  17.1038735  61.5221024  33.5361910
  18.2056391  12.4611807  41.7050219  17.6121616  11.7724597  42.0044899
  18.0314445  12.5362146  40.7668018   7.7681887  27.2934484  62.1406507
   7.0959157  27.2006488  62.8156853   7.7454877  28.2211518  61.9059515
   2.8726915   9.0574491  60.7845545   3.0717304   9.8184997  61.3299179
   2.3480654   9.4088995  60.0651932  60.2680969  53.6736059  33.9819169
  60.7198715  54.5082569  33.8574529  60.4841042  53.1654167  33.2000494
  39.5469928  15.9253705   1.8320283  38.7927866  15.4239678   2.1418685
  39.4190288  16.8008232   2.1973245  54.2014885  53.6055183   5.1561695
  54.6299362  54.0871000   5.8637995  53.7631130  52.8759527   5.5941182
  42.1944618   4.4478482  53.3135414  43.0008316   3.9623499  53.4875917
  41.5197563   3.9736530  53.7994862  10.2097690  48.9238167  56.5071774
  10.2466583  49.7397757  56.0081005  10.7544577  49.0889406  57.2767735
  24.9984884  25.0789618  58.4419823  24.3572497  25.0101638  57.7346563
  25.8226371  25.2814770  57.9992676  28.0027246  30.8687973   7.4833030
  27.2111225  30.8851171   8.0212003  28.0051851  29.9974298   7.0871443
  61.4167881  70.5856085  37.2742677  60.6522465  70.9826803  36.8570876
  62.0404387  71.3058853  37.3664379  25.7739854  67.5057173  11.8479407
  26.5713215  67.9519796  11.5627372  25.9933233  67.1506071  12.7093458
  19.5907044  14.9395359  37.0282507  20.5159068  14.6944773  37.0415998
  19.1315496  14.1294813  36.8063927  32.9958320  12.1836615  26.0731339
  32.2057319  11.7198002  26.3502812  32.6751494  12.8863084  25.5077291
  20.3648973  18.2744491  61.7335033  20.9775114  19.0099263  61.7368174
  20.5282521  17.8229380  62.5615644  19.4380784  21.5250111  52.8264093
  20.2991700  21.9371843  52.8961754  19.4127786  21.1721969  51.9369602
  41.1735964  19.9401271  10.3023791  41.3611269  20.3098464   9.4396102
  41.8461609  20.3113842  10.8733904  54.1134405  56.2530088  10.3476632
  54.6776104  55.4923820  10.4869151  54.4338465  56.9059849  10.9699082
  62.0413494  38.2895279  14.1615653  61.9860840  39.2359328  14.0292907
  62.9803705  38.1050515  14.1825235   2.2374387  39.9326110  48.5803080
   1.7528415  40.6837177  48.9227057   2.5809771  39.4941592  49.3587494
  56.9395161  11.8376637  13.8515091  56.7787266  11.8486166  12.9079735
  57.6923227  11.2564039  13.9594543  12.8490782  33.6184311   6.4828324
  13.6012673  33.3570480   7.0139849  12.1909118  32.9441833   6.6514617
  54.6879625   6.9825530   7.0169157  54.6295166   7.9172975   6.8192554
  55.6206512   6.7801368   6.9437796  44.3740129  51.1547089   4.2945501
  43.9002943  51.2288952   3.4661061  45.0180864  51.8622446   4.2663544
  62.1029806  54.6659613  48.3028460  62.9884434  54.9505997  48.5290480
  62.2243357  53.8107300  47.8904343  31.1932516  40.0039959  63.4819126
  31.1501503  40.5465794  64.2692995  30.8603048  40.5680084  62.7838659
  36.1306667  26.3769817   5.2473199  36.7617464  27.0240974   4.9323398
  35.6779838  26.8149805   5.9680593  38.3572674  61.4012575  24.4942832
  38.0469680  62.1865702  24.0434742  37.5938010  60.8246565  24.5238996
  17.4650645  57.8212023  59.3344736  18.3416176  57.5431013  59.0688658
  17.0902669  57.0529127  59.7651577  39.5142102  52.0044756  11.8930614
  38.6222839  52.0184851  12.2401989  40.0730991  52.0935535  12.6650321
  65.2652073  33.2578182  30.3804064  64.3988657  33.0095577  30.0578308
  65.1308775  34.1092634  30.7966137  27.5389504  10.7214057  54.1924286
  26.9946122  11.4017868  54.5886707  27.0074463   9.9272281  54.2473555
   9.2443925   0.0376717  62.6167488   8.9892143   0.3578265  61.7515230
   8.5368174   0.3216434  63.1954813  11.9569027  29.7969508  46.8333292
  11.1542356  30.0814867  46.3962984  11.6540110  29.2499065  47.5580549
  38.3095574  24.8359036  57.4422455  37.4343228  24.6260595  57.1164227
  38.3491445  24.4235063  58.3051443  53.7295866  67.3642015  48.1678677
  54.6258783  67.1584320  47.9022455  53.3612776  66.5234852  48.4394741
  50.9992170  46.3427448  11.9916046  50.0657845  46.4541912  12.1719253
  51.0833597  46.5093660  11.0527813  31.6656899  42.2829342   2.0668900
  31.5763307  41.4243221   1.6533263  32.6037121  42.4700117   2.0301612
  28.4811068  15.3378272  51.1120701  29.1120815  15.6796896  51.7454958
  28.9177275  15.4303193  50.2652884  29.0397835  30.3255582  10.7226717
  28.5837650  29.5060611  10.9142530  29.3521214  30.6306481  11.5744913
  23.2473397  14.7509170  59.9579716  24.1899228  14.6663046  59.8144150
  22.9150152  13.8550687  59.9009800  62.9696655  44.2518997   7.0346457
  62.7961063  44.3282938   6.0964173  62.1798563  44.5945454   7.4530041
  23.7459087  17.4899793  49.6996164  23.8357353  16.9208217  48.9352703
  23.0016232  18.0547583  49.4915390  20.0688171  45.4438496  10.5183971
  20.5154371  45.5580664  11.3572752  19.7440815  46.3171673  10.2990890
  22.5938940  43.4191847  19.6430910  21.9438100  43.1705713  18.9859664
  23.2917356  42.7711296  19.5467889  20.5862832  40.5876350  22.8193951
  19.7051573  40.4586267  22.4683881  20.8018756  41.4936686  22.5983572
  48.7270880  13.7988484  57.8176022  48.7835503  14.0177810  56.8874884
  49.3442869  13.0761182  57.9314375   1.6386701  -0.0900162  50.2190399
   1.1472058   0.6418429  49.8461103   1.3102312  -0.1673850  51.1147928
  62.8933811  66.9795847  34.6656322  62.3546839  66.3054991  34.2513299
  63.1106329  67.5828743  33.9549422  18.3068335  17.5679076  64.0064859
  17.8787267  16.9325423  64.5803070  19.2407441  17.3758268  64.0910292
  44.3331671  21.7701888  58.3921289  45.1323080  21.4998507  58.8443661
  44.6412277  22.3051691  57.6606083  13.8633835   6.3757658  45.0316715
  14.7144890   5.9437746  45.1040363  13.5444117   6.1324620  44.1625977
  53.7559271   7.0183283  27.0143938  54.4841766   7.3805374  26.5097332
  53.8599682   6.0698646  26.9380808  10.1655328  14.1079283  60.1630831
   9.9501222  14.9830532  59.8406124  10.4320538  13.6236119  59.3816519
  79.0706301  14.9336600  60.4901409  79.5507956  14.9711931  59.6629429
  79.6430540  15.3724003  61.1194801  76.6596127  69.1094017  47.3715401
  75.8105659  69.4823027  47.6088095  76.7702246  68.3678293  47.9665709
  26.1076379  47.0260239   9.7609240  25.7470608  46.3554335   9.1808164
  26.9264174  47.2904682   9.3415129  62.4670076   6.6531086  53.3505964
  61.7567348   6.1386549  52.9670906  63.1209993   6.7148304  52.6543808
  36.7046762  31.7082119   7.0324999  37.6411152  31.5210915   7.0980680
  36.6342807  32.3261809   6.3049066  18.3137846  52.8843594  21.5710020
  19.1695631  52.9394674  21.1457515  17.6893914  52.8349066  20.8471799
  31.6539049  50.3338575  15.2917087  30.9497976  50.6815338  14.7443640
  31.6959429  49.4045544  15.0661910  66.5037584  52.7959919  54.1862965
  65.8351660  52.6470232  53.5176945  66.6242123  51.9409037  54.5992613
  56.3840246  20.7742953   9.7416395  55.6069708  21.3155007   9.8813355
  56.7777920  21.1225319   8.9416951   1.1376256  63.3330250  63.7948084
   0.4930578  62.9809904  64.4086790   1.7290308  63.8519812  64.3399334
   7.2296059  33.1302023  57.7958632   8.0069035  33.6036563  57.4994135
   7.5018156  32.2127843  57.8177643  76.1492795  74.7803829  38.9522672
  76.3450664  75.1536102  38.0928493  75.2082103  74.6069134  38.9293075
  24.4324756  36.1198378   9.6552199  23.6096287  35.7743192  10.0013006
  24.1668177  36.7077708   8.9481175  17.7487338  67.6101828  58.5150576
  16.7939734  67.5440216  58.4981251  18.0482304  66.7141151  58.6686563
  28.8083124   5.2915782  13.2019079  28.7365627   4.6750259  13.9305699
  29.1628170   6.0884011  13.5964096  52.9757738  48.9106321   2.2528513
  52.2581100  48.2859182   2.3573732  53.2753944  48.7828255   1.3527822
  79.4194078  60.0563717  64.0728283  78.5691023  60.1178980  64.5080566
  79.9012470  60.8247709  64.3788099  64.4363642  52.3618603  34.1376257
  65.0873661  52.5367928  33.4580493  64.4113445  51.4073849  34.2053270
  61.9833994  33.0772233  11.2158215  62.0473099  34.0164208  11.3891768
  62.8079748  32.8570008  10.7824516  39.3200374  24.9396229  19.0239155
  39.2817020  24.7149897  18.0942369  39.1716790  25.8849430  19.0482223
   2.2669818  19.4224310  56.9170523   2.0111369  18.7296391  56.3081074
   1.4821480  19.9626911  57.0086336  67.5377750  54.8033714   0.6768357
  67.2274113  54.1182756   1.2689124  66.8482447  55.4670048   0.6960655
  20.1054931  37.8077960  53.3921146  20.2934885  38.4007144  52.6645613
  19.7211206  38.3691883  54.0654135  38.8721490  51.5558338  16.5203798
  37.9230404  51.5444994  16.3967025  39.1419816  50.6472445  16.3866580
  47.9252529  50.2173042   1.4799130  47.1055698  50.0045109   1.9260913
  48.2157946  49.3865061   1.1036253  25.9374452  20.4106712  62.4678183
  25.3596234  21.1562300  62.6305819  26.0382843  19.9944377  63.3238649
  58.6093044  66.3092279  34.9641585  58.9061356  66.1790848  34.0634990
  58.4841776  65.4237223  35.3054190  11.5889013   1.0864504  54.6350098
  12.4793315   0.8032156  54.4272995  11.6281128   1.3436097  55.5561876
  33.9898419  15.3649628  48.1342316  33.4253597  16.1037719  48.3617258
  33.4091926  14.6043026  48.1560183  38.7404156  24.5492411  60.3690624
  37.9776764  24.0407276  60.6445074  39.4638348  23.9225817  60.3830528
  36.9826221  71.7360353  53.0881882  36.2998247  71.4152861  53.6773729
  37.7764583  71.2829494  53.3723783  63.8746881  55.9023285  22.8894567
  63.0838203  55.4411316  22.6100659  64.4186449  55.9431362  22.1028972
  42.9636860  11.4511776  44.7866106  42.7336740  11.8971252  45.6017542
  43.8647223  11.7224610  44.6111965  30.2837896   9.2640394  34.6890974
  30.9136271   8.5921347  34.4281745  30.0937033   9.7408175  33.8811493
   8.6711699  57.9341650  56.1368513   7.8626484  58.4025574  56.3445425
   8.8078862  58.0947065  55.2031660  78.8386106   4.2163840  62.4238110
  79.4754553   4.3950072  61.7318869  78.5449934   5.0818706  62.7083302
  16.4898503  27.1039677  58.6932755  16.8941712  26.2619734  58.9025688
  15.5742872  27.0011353  58.9528942  51.0049582   5.4329568   5.1726735
  51.3129377   5.7729352   4.3325570  51.5736294   4.6839041   5.3509074
   0.2933487  28.1285214  31.4243579   0.4895788  27.2546244  31.7620373
   0.8730081  28.2292747  30.6693244  52.0894051  44.2179012   8.9273632
  51.4428902  43.5141373   8.9818621  52.9237127  43.7925673   9.1254914
  44.4617939  38.5327244   5.1208597  45.0661898  37.8642464   5.4434639
  43.8358736  38.0494666   4.5814919  43.3761835  59.5743465  20.7626081
  44.1685200  59.1443014  21.0843158  43.0575705  60.0798368  21.5104032
   0.2092607   6.7046571  48.6575842   0.1755808   5.8323413  48.2649517
   0.0749810   6.5516734  49.5928907  30.9675765  39.4442201   1.0470894
  31.5236282  38.6704540   1.1383262  30.3618550  39.2218542   0.3400640
  79.6284819  70.0241232  17.9523325  78.7647820  69.6454048  17.7885342
  79.4478655  70.9243202  18.2229996   7.9451209   5.4314464  57.4764299
   8.6251080   4.9121180  57.9055548   7.1955204   4.8395124  57.4136257
  22.2378063  29.6409917  55.8728027  22.5934410  30.4184103  55.4422474
  22.7130771  28.9099669  55.4778910  37.8828216  23.1703687  45.2969742
  38.7861323  22.9150748  45.4842949  37.4298549  22.3436785  45.1307440
  20.5214071  63.0828190  61.4245749  20.9111214  63.7101412  62.0335245
  21.2654209  62.7262926  60.9392214  66.9214010  38.1165528  17.6793873
  67.5127792  37.8543687  16.9738626  66.2424994  38.6318851  17.2437739
  38.1512213  59.7913074  27.7589655  38.2579494  58.8552523  27.9282212
  38.9379525  60.1926613  28.1280160  50.5966520  71.4157248  14.4571662
  50.2256823  70.6132650  14.0901899  50.9561634  71.8807173  13.7016761
  11.5062523  24.6113992  53.8957071  10.5563283  24.6576357  53.7873650
  11.7837143  25.5245852  53.9687777  53.3620644  59.6380043  24.6611166
  52.7782011  59.1768646  25.2633500  52.8505468  59.7336245  23.8577294
  36.4199615  49.8299742   6.5142411  37.3400354  49.6205187   6.6749394
  36.0074878  48.9829206   6.3451356  17.7411056   9.6722287  63.1148386
  17.2656322  10.3734982  63.5602379  17.1723735   9.4221878  62.3866558
  49.7225952  55.4311991   7.0095181  49.4372892  54.5824671   6.6711593
  49.0404320  55.6823683   7.6322520  34.3402267  65.9878683   5.7198167
  34.1904068  66.4080191   4.8729044  34.3894124  66.7137003   6.3418984
  31.0388899  12.3986149  53.9284563  31.8117905  12.9389679  54.0923882
  30.5318475  12.4538457  54.7384501   6.3083762   3.6700240  30.8079171
   6.8399054   4.4550949  30.6761122   6.6452664   3.0425382  30.1683879
  60.0036287  73.8366413   7.8623146  60.8925629  74.1056299   8.0939776
  60.0088787  73.7903833   6.9062471  25.0209498  12.4165118  40.3989172
  24.8833179  12.9681182  41.1689997  24.3084145  11.7781627  40.4311085
  45.7202291  14.9683213  37.1533728  45.9392118  14.5753121  37.9982519
  44.8299265  15.3008556  37.2674584  41.1893988   8.3421403  56.7142153
  40.3157902   8.1811810  57.0707750  41.5162992   7.4734998  56.4800596
  38.3880615   9.8819113   3.2858488  38.7022400   8.9918226   3.1268969
  38.8992858  10.4267800   2.6875180  76.4102221   0.4338906   5.1662886
  75.6050301   0.1192282   4.7553349  77.1123791   0.0699455   4.6270758
  53.2446241  15.7571471   8.6278009  53.8075447  16.5283525   8.5600513
  52.4355602  16.0849237   9.0205014  18.9488876  13.1181490  24.5919919
  18.5767770  13.8565648  25.0741816  18.3863723  13.0263758  23.8229752
  50.7884264  15.0561213  16.2346053  50.7147503  15.9466124  15.8913398
  51.5455961  14.6862912  15.7805657  75.8537579  31.5184331  60.8049011
  76.7310095  31.5558219  61.1860323  75.3875113  30.8758068  61.3395786
  31.9393587  72.6970863  29.7279978  32.6524949  72.8922033  29.1200519
  32.3564100  72.6818609  30.5894303  76.7562008  43.8228989  40.9042454
  76.1057234  44.0265369  40.2322006  77.5985289  43.9814091  40.4781151
  60.3789377   1.7474139  25.2767658  59.4308281   1.6863884  25.3933787
  60.5304337   1.4416185  24.3824673  65.2456570  70.1915264  50.8111000
  65.7107544  70.6336451  51.5213490  65.1554966  69.2868423  51.1105061
  50.2187681  42.8092718  15.6097078  50.1536036  42.4413776  16.4909792
  50.6091166  42.1093798  15.0862479  52.5983763  63.4040546  12.7786458
  52.8671217  64.1634655  12.2616315  51.9316006  62.9737377  12.2434163
  54.3745089  67.8732204  39.8402667  55.0827026  67.8918409  40.4839659
  53.5857773  68.0685377  40.3462172  38.3943510  14.3945539   3.8394624
  38.3259249  15.1659036   4.4021088  39.1861773  13.9484549   4.1398618
  59.0842342   6.0857886  17.3260927  59.9698544   5.9523207  16.9883192
  58.6511612   6.6183013  16.6589272  13.8042009  28.4921217  52.7661991
  13.7690020  27.5460792  52.9076147  13.9914560  28.8567901  53.6311722
  15.4877460   0.8021843  39.0256548  14.8944831   0.9969612  38.3001661
  16.3250613   0.6074701  38.6046791  40.5702686  44.6869946   1.7699912
  40.5559349  43.8773012   1.2596731  41.0912657  44.4731092   2.5439727
  24.4348145  30.1485133  58.1112957  24.0570736  30.6754208  58.8155079
  23.7543321  30.1247072  57.4385357  22.7710438  67.9722166  53.1409693
  23.4506154  68.3528996  53.6972952  22.5609112  68.6631727  52.5127506
  45.4667377  27.3438263  36.9704604  46.3210821  27.0293927  37.2662020
  45.1920509  26.7065287  36.3111973   6.3879848  54.3351507  35.1383018
   6.7195195  53.8483906  35.8928752   5.7812238  54.9736691  35.5129623
  10.0630879  40.4857063  59.2961454   9.3313092  40.0231075  59.7044706
   9.9301112  41.4029121  59.5354891  17.2165024   3.0119723  49.8750973
  16.6616726   2.7212387  50.5988836  16.6099477   3.1442657  49.1465235
  44.2951870   6.3628882  50.9749222  44.7714090   7.1417522  50.6871462
  43.9396048   6.6021812  51.8308020  39.0647483  65.0840044  21.7305350
  39.5387197  65.7980347  22.1568489  39.6814847  64.3519783  21.7331457
  63.2090855  66.3316441  47.5445080  63.7503624  66.4568233  48.3239794
  62.7373695  67.1585941  47.4451447   1.1170463  53.0756235   1.3994731
   0.3217605  52.8265142   0.9286273   1.4791343  52.2469568   1.7132218
  27.1063709  35.4919553  17.1298659  27.8783178  35.1204920  16.7028475
  26.9194818  34.8913431  17.8513718  34.1087747  38.3992171  13.7744653
  34.5379305  37.5812483  14.0254366  33.9880085  38.3256698  12.8277671
  37.2279620  41.0810566  14.2825556  38.0824804  41.3293600  14.6352243
  36.8788576  40.4563189  14.9182141  52.4414730   2.5428200  40.5476332
  52.5962687   2.5811669  39.6038127  51.8333769   3.2616609  40.7200146
  38.6291599   5.1791239  54.3427801  37.9378009   4.7514078  53.8374949
  39.3806529   4.5912638  54.2658901  75.8974743   2.9318839  49.6264458
  75.1608515   3.4419298  49.2895937  75.9397173   3.1571743  50.5557966
  67.8980684  62.1747780   6.8065321  67.0443678  62.0032549   6.4090294
  68.5305882  61.9198704   6.1348385  56.3287020  58.2787371  34.2026496
  56.5308189  57.3760796  34.4488025  56.0621071  58.2227898  33.2850289
  79.3598986  21.2737775  10.6318951  79.6465778  20.4821324  11.0872471
  79.1326475  20.9746718   9.7514838   9.6127695  59.2689800  24.3428135
   9.6763146  59.4028521  23.3971524   8.9747649  58.5623884  24.4423485
  78.1775379  57.3240614  11.9051015  78.5397148  57.9373121  11.2655783
  77.6450968  56.7222404  11.3849592  25.6743693  14.6553588   0.2582894
  25.7484365  13.7023342   0.2084043  25.4332852  14.8295605   1.1681049
  36.2560654  60.1017380   6.5906155  36.6205263  59.4650269   7.2054309
  36.6315341  60.9392166   6.8624449  65.8831882  43.5114145   3.3433482
  66.3973284  43.0707026   4.0198576  65.5533028  44.3020821   3.7702513
  13.2473612  56.3081789  29.3194103  13.7709951  57.0764542  29.0918350
  13.8807404  55.6818914  29.6698785  12.8807163  52.8473139  25.9559941
  13.2905424  53.2757998  25.2045465  12.4060619  53.5486603  26.4021397
  29.3816233  31.0321069  58.2242584  29.2488647  30.9165096  59.1651344
  28.4975266  31.1064029  57.8649712  28.1086826  66.1674404  26.1728668
  27.5663376  65.5625200  26.6789937  27.4838257  66.7732096  25.7743359
   1.8953446  25.9628224  13.2126582   2.2342116  25.0750899  13.3281207
   0.9438227  25.8593512  13.2241178   2.2001295  62.0134974  10.3887606
   2.1944800  62.9163122  10.0707519   1.8659016  61.4987326   9.6542281
  13.7316835  29.4908404  31.0370183  14.0839899  30.1190138  31.6675019
  12.8874755  29.8598576  30.7774591  66.2258244  34.5248079  36.5167999
  65.7140732  34.6639562  35.7199454  66.9165659  33.9162230  36.2546325
  39.2482877  11.2975287  42.1068335  38.4066415  10.8456540  42.0462227
  39.1013837  12.1369708  41.6709566  27.7329898  38.3409190  23.5028481
  27.3459744  37.6764107  22.9328680  28.5330534  38.6080909  23.0503511
  76.9196796  72.4588203  29.9365973  76.3169527  72.3697996  29.1983342
  76.7367601  71.6982174  30.4881907  73.6313343  59.3622828  19.3817174
  72.9847145  58.6874104  19.1751707  73.3649206  60.1176548  18.8576305
   9.4304943  64.8892832  32.9104495   8.6517477  64.7663164  32.3676181
   9.1203779  65.3916788  33.6638808   9.2554486  58.2664537  30.9177995
   9.1244704  57.3198891  30.8621883   8.3743739  58.6345053  30.8508825
  37.0472980   0.2193707  34.5228934  37.5622582  -0.5632090  34.3263817
  37.3668528   0.5079304  35.3777909  27.0983672   2.2853006  25.7400012
  28.0474281   2.2419725  25.8567882  26.7886949   2.8008124  26.4847040
  70.1090670  70.8363056   7.7383101  70.9627867  71.0047007   8.1371063
  70.2402258  70.0442362   7.2171062  61.3906574  66.8616009   9.9796629
  61.3633728  66.2881947   9.2137051  62.1209097  67.4561262   9.8078895
  61.9517946  63.0177736  43.6163139  62.2942543  63.8360691  43.9759684
  61.8796778  62.4354124  44.3725443  55.3730011  70.2548409  34.5479989
  54.8496294  69.6709442  35.0969815  55.4153061  71.0737801  35.0417399
  69.1689110  33.6695719  58.3038521  68.6101723  33.0673313  58.7951279
  70.0359678  33.5655570  58.6958075  78.2984066  29.4660401  42.1138859
  78.2431269  29.6719360  43.0470419  77.3967457  29.5338511  41.7998219
  13.1956494  31.4250517  26.1439490  13.9195216  31.4614224  26.7691827
  13.5507476  31.8119001  25.3436470  72.1236086  18.9947212  27.0506668
  72.8410912  19.4276321  27.5133109  72.4018335  18.0817401  26.9779491
  18.3664477  74.0269566  39.9046493  18.8125372  74.0396929  40.7514524
  18.2211709  73.0981731  39.7244096  29.1902900  14.6232951  19.7076559
  29.2608118  14.2730415  18.8196349  28.3066893  14.9887526  19.7515106
   7.0033711  46.8262625  24.4838500   6.7208570  47.7365160  24.3952107
   7.7807808  46.7616653  23.9291477  53.0130196  57.2054052  62.3955536
  52.5447702  57.4583673  63.1911564  52.7745819  57.8747940  61.7542267
  52.7404404  10.1880074  45.8254957  52.0761204  10.8737278  45.8940268
  53.1215096  10.1352549  46.7019844  13.5467398  67.8302574  15.8438981
  12.8587520  68.0823851  15.2279949  13.0837452  67.3740292  16.5465546
  39.9846864   8.1359899  50.4746056  40.3911591   7.5344467  51.0984325
  39.1480184   8.3690411  50.8769798  69.0821075  47.1086550  22.9978657
  68.5358381  47.6849222  22.4633265  69.9768066  47.2947550  22.7130532
  12.1899867  27.4408412  10.1635361  12.4372768  28.0177450  10.8862138
  11.5034449  27.9195547   9.6990734  20.9757566  26.0421777  28.7392759
  20.8971643  25.8596230  27.8029370  21.9096160  25.9438086  28.9249158
  17.9667497  74.4849300  42.5766277  17.7071559  74.1208124  43.4229517
  17.1430516  74.7488594  42.1666384  71.9919348   7.3461974  23.2269597
  72.5724030   8.0841851  23.4131408  71.3387060   7.7014124  22.6241755
  75.6898355  45.1640129  56.8120575  75.8125210  45.1106596  57.7598619
  76.1915112  45.9354877  56.5486574  29.9327683  26.2478113  32.1051168
  30.4739451  26.8770766  32.5819659  30.5328846  25.8409500  31.4801717
  71.0560083  39.9452186  32.4167418  70.1379013  39.7657728  32.2139835
  71.0305023  40.4054165  33.2556701   8.8408774  23.3681250  31.2413120
   8.6872578  23.4031391  32.1854544   9.2800421  24.1942954  31.0393047
  34.4641256  45.3997850  20.1609039  33.7551308  45.5380058  19.5328462
  34.1019940  44.7856188  20.7995701  61.5683460  47.3211193   0.3068278
  62.3054647  47.6616621   0.8137006  60.9272051  48.0318642   0.3093853
  12.4825037  45.9600019  10.6221187  12.4160719  45.5256176  11.4724898
  12.5899565  46.8871355  10.8345068  59.4207335  51.8886185   6.3149112
  58.6170864  51.6312408   5.8630937  59.5927048  52.7792072   6.0091299
  25.8400631   1.3931841   9.2306948  25.0528169   1.4627467   9.7707278
  26.4990139   1.0182994   9.8150545  25.7756972  34.7716117  23.3036947
  25.5277300  35.4726386  22.7009439  24.9427867  34.4255114  23.6241746
  14.9274135  58.2694244   8.6625493  13.9746475  58.3022118   8.5765588
  15.1528251  59.0699911   9.1363752  20.0742722  44.0232372   1.2159912
  19.7861958  43.2790518   1.7446092  20.0674129  44.7642946   1.8218099
  22.8636074  32.0797420  13.5924625  22.8745818  31.3476634  12.9758811
  23.7273717  32.4821568  13.5018694  28.7220073  71.3224649  60.8699894
  28.2322192  70.7763815  61.4849091  29.5814323  71.4302540  61.2774181
  24.8254895  19.2799032  45.2854633  24.5208621  19.2469525  46.1922932
  25.7545161  19.5003974  45.3527403   3.3098376  41.5652847   2.3024897
   3.0617279  42.2853231   1.7226455   3.0876029  40.7745266   1.8110184
  62.5774860  52.6503468  14.9320233  63.1671333  52.1814394  14.3415391
  61.7844009  52.1148205  14.9535823  35.7011819   0.1595334  50.3237057
  36.0910702   0.1886721  49.4499969  34.9537563   0.7553190  50.2724409
   2.6132825  11.1734629  55.8200598   3.0876502  10.8039510  55.0753021
   1.9694388  11.7619240  55.4258394  64.3056393   8.1474936  24.2634964
  63.4677219   8.5510701  24.4898820  64.8975563   8.4137195  24.9670529
  56.9027090  50.2366114  65.1414919  56.2612581  50.7744408  64.6772575
  57.3709106  49.7707462  64.4486809   1.7885873  28.6972213   5.3408444
   2.1853840  28.1433439   6.0131568   1.7167616  28.1288695   4.5740014
  25.1172566  65.4257727  10.1696622  24.3670487  64.8824739  10.4110122
  25.2780676  65.9685755  10.9415030  -0.1082460  55.8456469  23.6275268
   0.5217468  56.3575363  24.1347814  -0.0280126  56.1830950  22.7353811
  50.3673315   9.1312903  17.0998383  50.9889650   9.7256672  16.6796947
  49.5106506   9.4176328  16.7830789   4.9625590  24.9636769  44.8589277
   4.0799773  25.2269125  45.1196718   5.4063809  25.7860613  44.6517086
  72.6656914  11.4431441  54.8056459  72.4667168  12.2682130  55.2482510
  71.8089962  11.0703325  54.5975018  75.5812120   3.1436682   8.1944299
  75.6991053   3.6516467   8.9971077  74.9245882   2.4853723   8.4218562
  27.6078153  54.9589157  24.4469118  26.7870808  55.0048494  23.9564848
  27.5470304  55.6717253  25.0828671   2.3597595  25.7775497  59.0264177
   3.2580870  25.4702425  58.9047527   1.8913549  25.4599690  58.2544279
  57.1961832   3.6342227  62.3566914  56.3522959   3.3304954  62.0222759
  57.5571489   2.8775397  62.8186131  40.3897619  21.2712598  53.1014824
  40.9150028  21.1427546  53.8913155  39.5393133  20.8869362  53.3142328
   0.5910762   2.7147925  15.3278279   1.5053505   2.4362355  15.3801775
   0.5449923   3.4913754  15.8855259  19.6575129  50.6546879   4.2077029
  19.0356100  50.0344133   4.5881316  19.2152643  51.5017796   4.2632553
   3.7094387  62.5926304  20.8353472   4.3487215  63.2917643  20.6983709
   2.9139909  63.0465746  21.1136031  65.7273436  43.1506443  60.9256268
  65.6644011  42.3393202  60.4216194  64.8285770  43.4773922  60.9667587
  46.1288500  52.8659248  15.7598400  45.4434299  53.4298611  15.4015052
  45.9040022  51.9888306  15.4493868  76.7352200  42.9107571   8.6606497
  76.8735075  43.4067535   7.8537434  76.8671179  43.5503197   9.3605059
  18.2181990   5.9124303  48.1283379  18.6805534   6.3132209  48.8644266
  17.3390770   5.7376534  48.4642410  56.0018730  19.6597302  63.2167864
  55.2420664  19.5976591  62.6379299  55.7701349  19.1228390  63.9745951
  17.3887134  65.0362873  49.1505194  17.7054858  65.2137280  50.0361824
  16.4349759  65.0417709  49.2316818   1.3337104  44.5657492  32.2780418
   1.9399154  44.0618610  31.7350507   1.5353653  45.4796743  32.0772767
  49.5890474  63.3132553  60.0587749  50.4996967  63.1458282  60.3015041
  49.3528128  64.1030169  60.5452919  31.9143605  67.6927280  14.5561457
  32.2061038  68.1275129  13.7548470  30.9595156  67.7534246  14.5275414
  44.9554729  15.8743167  24.2356324  44.4070148  15.4441237  24.8916507
  45.7980585  15.9990156  24.6723652   5.6975323  48.6951828   9.9339491
   5.0209820  48.1253958   9.5680857   5.8883429  48.3191967  10.7932842
   6.8535459  56.4646864  61.3997602   7.1288574  56.2741184  62.2964907
   7.4107021  55.9088469  60.8549166  25.3743559   0.2570108  26.0005045
  25.9858519  -0.4335686  26.2562466  25.9237677   1.0319808  25.8830285
  22.4822831   3.8887489  12.4279404  22.2539353   4.5253572  11.7505789
  21.6804790   3.7865838  12.9406834  19.6867192  54.7985983  44.8080683
  20.3379059  55.4995298  44.8377132  20.1330304  54.0408945  45.1861238
  56.8218851  27.0749497  44.5342970  57.2447729  26.2787771  44.8560238
  56.1082458  27.2335386  45.1521969   9.5806712  64.0001106  16.1935067
   9.2630655  63.2832479  15.6444514   8.8309997  64.5896816  16.2749553
   0.5067927   0.0708011  54.2671680   0.0251061  -0.7559105  54.2396879
  -0.1712316   0.7447628  54.2192221  56.8227053  46.2662315  61.0040426
  56.0876322  45.9160709  60.5007648  57.5741482  45.7421923  60.7266474
  67.2923851  46.7542648  53.0180311  67.0627642  46.3759804  52.1692610
  67.1728802  46.0367680  53.6402464  52.0569515  21.6747785  33.5758066
  52.0847511  22.6066732  33.3589435  51.8516684  21.6523933  34.5104671
  43.6967754  26.9328094  15.5115914  43.4371567  27.6711869  16.0626161
  43.1602144  26.2029219  15.8207846  16.6671216  67.3337698  45.4680777
  16.0809827  66.5771484  45.4820967  17.1729982  67.2299528  44.6621370
  14.8888278  48.3141804  26.6071033  14.7736037  47.3643827  26.6360784
  14.5988083  48.6169958  27.4675822   1.6511409  48.0077696  20.7284212
   1.4911850  47.9873133  19.7849023   1.2500390  47.2031069  21.0568500
   3.3444920  61.1000633  32.1500087   3.4691796  60.7460165  33.0305409
   3.8710880  61.8992758  32.1364212  55.6126547   3.8702562  58.2983065
  55.1111650   3.3029923  57.7126884  55.4617643   4.7540015  57.9629612
  43.7010670   6.8296671  27.3966479  44.4125175   7.2780991  26.9395065
  43.9522457   5.9061098  27.3831058   1.5975004  24.0251541  26.7592883
   0.7517345  23.5858202  26.8481588   1.7498957  24.4266605  27.6147413
  61.0169554  37.8693557   2.2412440  60.3645325  37.1777439   2.3519127
  61.3441563  38.0337000   3.1256440  65.5536938  42.3473692  29.5582342
  66.2496662  41.7403364  29.3065047  65.0963879  42.5401592  28.7397385
  69.7002220   7.1529406  10.8756244  69.1616535   7.4831301  11.5947568
  69.0721703   6.9320893  10.1878703  71.5462589  34.5269775   9.9219352
  71.6678858  34.9209833  10.7857633  72.0021248  35.1180673   9.3227428
  56.9537592  25.0043344  54.3207312  56.4477682  24.3233228  53.8775253
  57.4563456  25.4225421  53.6216354  60.7099485  21.5493274  39.0841103
  61.4506197  22.1106386  38.8548303  60.9161854  20.7049751  38.6831522
  21.3638568  11.3278484  29.0859675  22.0118761  11.4178813  29.7846794
  21.7818165  10.7536829  28.4441948  71.3363504  57.4627447  18.7251389
  70.7125235  57.4491692  19.4510102  70.8364296  57.1439505  17.9736900
  12.3037159  68.1411839  22.1345091  11.7210841  67.4231243  21.8872094
  11.7286170  68.7843084  22.5491047  59.2139244  27.0763421  19.8832548
  59.6178436  26.9714260  20.7446933  59.8924494  27.4895167  19.3492866
  37.5642729  14.1705406  56.0272169  37.9121566  13.8847542  56.8719244
  37.9284000  13.5499895  55.3958988  31.6632414   6.6265035  12.2750318
  32.2481322   6.5672022  11.5196383  31.7223978   5.7668412  12.6918209
  75.0651264  45.2487612  24.0750527  74.9391890  45.5283117  24.9818182
  75.9619141  45.5102396  23.8661623  60.1685572  56.2474155  23.5357881
  60.6589413  56.4976549  24.3188190  59.8809099  57.0783567  23.1575966
   3.0026987  52.6029110  13.9735925   2.6877466  53.2087374  13.3027649
   2.5768834  51.7715406  13.7644577  21.8520188  40.7060671  13.4167993
  22.5578785  41.1279678  13.9066911  22.0984316  39.7815180  13.3900034
  42.7462292  71.2915802  14.7547650  42.9965830  70.6896925  14.0538454
  43.3955526  71.9935036  14.7110283   8.2484978  50.0502157  10.7645905
   8.8054383  50.7720184  11.0562217   7.5704157  50.4697514  10.2350402
  28.7657285  41.7062092  14.4116747  27.9509258  41.2778616  14.1492844
  29.3607235  40.9846783  14.6156549  77.8548002  41.2641096  16.9413579
  77.7422857  41.3793373  17.8849125  78.6652613  40.7619572  16.8563509
  29.3103909  25.1239204  29.3254185  28.7194514  24.7694492  28.6610603
  29.6491671  24.3529773  29.7805095  71.0098839   6.5451175   3.9893225
  71.0926914   5.8964026   4.6882814  70.6571150   7.3216450   4.4238213
  27.1455836  53.6501265  15.4146707  27.0484829  53.1703091  14.5921242
  26.9797730  54.5632601  15.1803088  20.0004125   9.6157122  20.1100039
  20.7278204   9.1458040  20.5177999  19.4784212   9.9345255  20.8462882
  31.6832089  57.6875401  11.7131746  32.1511078  57.3720980  10.9399986
  31.5676475  58.6248732  11.5573454  37.4691033  28.6692953  38.9872861
  38.3730841  28.9549351  39.1194201  37.4358845  27.7936339  39.3724394
  23.5589314  11.8478239   6.9771934  24.1380429  12.5081563   6.5966398
  23.3861518  11.2385285   6.2594616  77.4725485  65.6459332  20.3134847
  76.6321230  65.2261591  20.1298881  77.6251745  66.2161016  19.5599306
  60.1683044  20.8706903  57.8334236  59.9572992  21.4876056  57.1326208
  59.5710182  21.1025977  58.5445499  17.0011365  26.8651628  10.3077209
  16.5856230  27.7263308  10.2633572  17.6386857  26.8697786   9.5937598
  78.9528227  70.0750685   7.0904851  78.5510826  70.1323843   7.9574037
  79.3694639  70.9273195   6.9627613  75.4893255   4.5622292  61.5915728
  74.8715544   4.6370003  62.3188972  75.8118391   3.6624569  61.6427994
  54.1804075   5.1315713  18.9386630  54.1652298   4.7972280  18.0418825
  53.6954546   5.9556878  18.8952661  22.1334243  74.9782419  29.9824166
  22.7139187  75.6998491  30.2243733  22.6651406  74.4245005  29.4106817
  39.1028094  11.5470266  57.6766396  38.3829927  11.2722695  57.1086550
  39.8854089  11.1786520  57.2666740  74.5215178  34.5283532  31.6723037
  74.6365261  34.4137263  30.7289767  74.9492884  33.7649798  32.0602512
  67.7290249  53.6802006  21.8001246  67.9663610  54.1076660  20.9772158
  67.0806026  54.2634010  22.1946573  21.2038350  68.3643341  22.7116752
  20.7952070  68.8716316  23.4130359  20.4700112  68.0577755  22.1789861
  50.1383877  55.3458452  23.1451368  49.7025871  54.9917793  22.3699307
  51.0718441  55.2241182  22.9717135  68.4695435  41.1066294  61.0911417
  68.1177855  41.4847231  61.8970823  67.6965570  40.9058475  60.5634928
  32.2475290   4.4228837  26.6071200  32.1779585   4.5480162  25.6606865
  33.1844234   4.4939774  26.7898893  72.1784163  67.7363682   9.1965783
  71.9717455  67.0693159   9.8512262  72.2676706  68.5459280   9.6994472
  43.7558222  71.2470436   0.4484762  44.3153572  71.4593649   1.1955192
  44.0749454  71.8094540  -0.2572798   2.2753130  14.8708510  54.2075396
   1.5258889  14.5440972  53.7097168   2.9710934  14.2358899  54.0374041
  58.3031750   1.8275037  15.7013464  57.5781631   2.4268210  15.8785748
  57.9828739   0.9724995  15.9887636  47.8946495  39.2584467   7.4189496
  48.7756348  38.9526129   7.6347202  47.3158264  38.5665369   7.7390361
   6.0531360   1.1531701  32.4848771   6.0593170   1.1574703  33.4420466
   5.7803243   2.0382522  32.2431421   6.6910332  47.4200535   1.2707189
   7.3440355  47.1765614   1.9268677   5.8950967  46.9640827   1.5442269
  77.3549795  73.3091784  52.0240211  77.0097589  72.4554825  51.7627573
  77.2797298  73.8489771  51.2371397  36.2525487   3.1694752  42.6395845
  35.9018064   3.0325359  41.7595482  35.5020618   3.0397615  43.2193899
  18.6549032   0.8006199  46.2166119  18.5614610   1.7497069  46.2986755
  18.1402707   0.5754039  45.4415894  53.7699509  14.7854722  19.2598248
  54.3362951  14.5061290  18.5404813  52.9811764  14.2515719  19.1648591
  17.3134422  36.3088965  20.1308393  16.6737652  35.6569099  19.8445547
  17.0420468  37.1175337  19.6964657  22.9417515  50.6815672  12.9035652
  23.0783081  51.4360809  12.3305953  23.0098820  49.9240494  12.3223960
  76.6050291  51.2959480   9.4806504  76.7619133  50.4252434   9.1152847
  76.1264467  51.1320353  10.2932537  12.3976326  20.4493976   1.2273577
  12.8222358  21.2772679   1.0024722  13.0669212  19.9587917   1.7044231
  18.2937276  74.1157341  32.0928049  18.4478581  74.5323515  31.2449217
  17.5314295  74.5721674  32.4488997  77.2929382   5.1479095  15.5940115
  77.3481607   5.8715105  14.9698448  77.8730965   5.4049605  16.3106489
  25.4622865  50.2188492  33.7043428  24.5948410  50.2193356  34.1090274
  25.8000422  49.3373585  33.8628769  23.1607103  64.2710590  11.4943945
  22.4984884  64.2638159  12.1855116  23.8820553  63.7508965  11.8484008
  67.9632282  51.9667912  10.5115092  67.5126457  51.1232185  10.4716158
  67.7553129  52.3084927  11.3811314  60.7328558  16.9224083  63.6659288
  60.6015253  16.1425376  63.1266785  61.6789818  16.9601059  63.8061333
  72.0330048  24.2445159  57.1228981  72.2914743  24.0136576  58.0151606
  72.4767256  23.6006498  56.5708303  56.3103580   9.9895078  37.0182610
  56.3694620   9.3419540  37.7206922  56.5956545   9.5195907  36.2346673
  28.4022880  72.2262812  26.7840934  28.3620524  72.3502111  27.7323842
  29.2947745  72.4784708  26.5472412  47.5020504   6.5485948  27.6212311
  48.4508610   6.4458853  27.5474238  47.1542168   5.6678343  27.4815822
  42.4258804  74.2946291  29.9949574  42.4326992  75.2375031  30.1598024
  43.2578182  74.1225672  29.5539260  70.2974939  10.4593456  53.7523890
  70.7527685  10.7735848  52.9712296  69.4992542  10.0515544  53.4166002
  20.8996534  17.5548899  52.2956991  20.9188962  16.6407156  52.0125961
  21.8103361  17.7589774  52.5083876  37.0086741  31.0953212  64.3812084
  36.1634517  31.1259604  64.8294210  36.7890191  30.9101224  63.4681463
  28.7899613  74.2615128   3.3697003  29.5915294  74.7738218   3.2635975
  28.9614749  73.7026262   4.1276321  61.3850737  24.7711611  43.4152699
  61.3998127  24.5674610  42.4801111  60.4820633  25.0374365  43.5881901
  41.3640404  55.3644323  18.1725228  42.2794199  55.5036068  18.4153092
  40.9361887  56.1992741  18.3628106  20.7577968  60.7124662  25.1768184
  21.4715576  61.3408995  25.0679541  20.0200939  61.1045885  24.7096300
  40.2623749  18.8370824  14.5175493  40.1226759  18.1600332  15.1796067
  39.3925881  18.9970827  14.1513538  67.8567839  37.4974537  60.4917908
  67.8901815  36.6900849  59.9786949  67.6904583  37.2050261  61.3879251
  28.7507939   7.4062753  46.8010092  27.9868793   7.0106840  47.2207355
  28.8438845   6.9304013  45.9757137  14.0665615  37.9650092  14.5733976
  14.9752975  38.0198073  14.8690784  14.0353274  38.5166788  13.7917864
  78.4536505   0.1070213  13.6826575  78.3200169   0.1597594  14.6290159
  77.7521610   0.6421883  13.3115232  20.5618668   7.0592952   2.9168504
  21.3235068   7.1463132   2.3436433  20.8441830   7.4379343   3.7494141
  76.6433525  54.5068026  20.8209205  76.8154001  54.1683292  21.6995931
  75.7027531  54.3810081  20.6957173  33.8746238   5.1747525  40.4017973
  33.5671782   5.9572196  39.9441361  34.6467519   5.4680783  40.8855438
  11.2906790  62.3390484  10.8080757  10.4871428  62.8505182  10.7134271
  11.6568863  62.3026133   9.9244493  13.4835696  61.1392307  21.8141699
  13.1809914  60.5403471  22.4968243  12.7020133  61.6321898  21.5643835
  25.0038433  62.7386427   8.8484651  25.1099443  63.5777664   9.2966253
  25.1025081  62.9488993   7.9198694  16.0747051  73.9294100  21.1912942
  15.8164537  74.8487377  21.2574291  16.9326735  73.8906431  21.6139293
  76.9603395  21.1039019  50.1398039  76.3989496  21.7228127  50.6067276
  76.3870096  20.3637528  49.9405432  34.4595790  53.9413929  10.8909667
  33.6487818  53.8213730  10.3965628  35.1178694  53.4570169  10.3926992
  19.3319190   1.1944622  13.6661386  18.9179182   0.6212351  14.3113101
  19.8982322   1.7673387  14.1831815  59.8903942  40.3324175  63.7928295
  60.2473068  40.4241800  64.6762466  58.9528227  40.4959011  63.8951206
  78.5557222  68.7988567  30.8597374  78.9227343  68.2808828  31.5761423
  78.4258699  69.6694899  31.2357283  16.6425228  47.6000690  47.7748203
  16.0763836  46.8703032  47.5235033  16.8009400  47.4693632  48.7097263
  79.1674662  73.7059832   4.7718406  78.8931465  74.4777775   4.2765456
  79.0210629  73.9443588   5.6872505  28.1108260  50.3552914  20.5009747
  27.7595186  49.6609831  19.9435258  28.3007169  49.9215174  21.3328457
  56.1808205  66.3360548   7.0672750  55.2845669  66.0401344   7.2266042
  56.3089085  66.2162113   6.1262846  65.8979940   4.1990879  60.7933283
  65.1374817   4.1597596  61.3732433  65.5623865   4.5845833  59.9840117
  58.1661415  21.6767979  59.9074316  57.4087572  21.1701465  60.2005243
  57.9765844  22.5731111  60.1847744  78.3955574  31.0971785   7.8368527
  77.5921297  30.9376383   8.3321083  78.8801384  31.7319727   8.3645391
  60.1647711   9.6711200  42.1503115  60.2739859   9.4282132  41.2309074
  60.0238276  10.6177258  42.1328354  24.5837116  29.7100353   9.0678531
  24.6182179  29.9965191   8.1551820  25.1838183  30.2981567   9.5263481
  71.8734550  52.1482944  35.4235888  72.5978756  52.7739429  35.4212213
  71.1296749  52.6417494  35.0778699  38.6277580  10.7921028  18.5760796
  38.9181685  11.0463214  17.7001417  37.9030037  10.1861978  18.4216750
  78.0994844   5.2487576  37.5262809  78.0460691   6.1960375  37.6529312
  79.0372038   5.0685096  37.4597454  66.2578487  11.3727176  37.3265433
  65.9669781  12.2842407  37.2991204  67.0228195  11.3480127  36.7517090
  74.5110989  24.7211838  28.0586410  74.0201235  24.2425895  27.3907185
  73.8411093  25.1789665  28.5663605  38.8721037  10.2158499  26.6539383
  39.4993043   9.5384479  26.4010000  39.3885422  11.0212183  26.6840363
  37.8437257  45.0229788   3.5079819  38.5758829  45.3139448   2.9643664
  38.0664659  44.1236162   3.7483302  29.9513221  62.7045202   2.6943403
  30.3962135  62.0627213   3.2478729  29.9481606  62.3081112   1.8230861
  40.8223343  21.9203067   8.2325071  40.7081366  22.6504111   7.6241183
  40.5497408  22.2704101   9.0806538  75.7485723   3.4289977  20.6804132
  76.2571096   3.3575326  19.8726285  75.7943821   2.5560024  21.0703015
  62.4230289  13.3254087  26.6579008  62.4025440  12.3799884  26.8062019
  61.9944429  13.4442341  25.8103013  67.4241924  31.9386387  59.4784641
  67.4215508  31.4364004  60.2933168  67.2060585  31.2979984  58.8015413
  48.8690472   8.0036527  30.9275937  49.0800667   7.0938390  31.1372161
  48.0972290   7.9468417  30.3642988   4.3545359  74.8845911  40.1076508
   3.7007439  74.1913795  40.1984549   4.9560481  74.7437811  40.8388042
  41.3893795  43.2688093   7.6779729  41.8670130  43.7030268   8.3847612
  41.3997650  42.3417664   7.9161161  43.6346531  55.2492762  19.8610663
  44.1322756  56.0463858  20.0433254  43.7273121  54.7223330  20.6547785
  36.6984248  60.1305008  15.1720965  36.4417362  60.0080681  16.0860729
  35.8902764  59.9980021  14.6765423   7.2446054  69.3233538  61.0560513
   6.8661278  70.0739193  60.5981874   6.4886636  68.8407993  61.3906002
  26.1889887  67.7224016  25.0709081  25.5391598  67.6012993  25.7632160
  26.4200664  68.6500502  25.1189232  49.7371817  72.5231647  28.9307618
  49.6145296  72.0969486  28.0825114  49.0613508  72.1411467  29.4907117
  26.7149878  52.3725843  63.2349253  27.0334530  52.0685101  62.3850107
  25.7620859  52.3807621  63.1446886  16.9182927  62.8550125   0.3239534
  17.0646960  63.7684417   0.0781057  15.9683234  62.7807713   0.4149435
   5.5351371  53.2130289  51.9642830   5.3635895  53.9522600  52.5476694
   5.1232296  52.4654341  52.3974895  31.9537187   9.7132772  53.2234097
  31.3955951   9.1780168  53.7875271  31.5557885  10.5834663  53.2489777
  13.9922810   1.4963932  48.2671547  13.6843431   0.6420009  47.9648018
  13.7054241   1.5454093  49.1790438  44.7221470  38.8322830   9.1367668
  45.5425930  38.3400130   9.1089976  44.3555307  38.6383200   9.9994397
  16.8709457  69.3666077  18.6400509  16.6609573  69.6989346  19.5128012
  16.8678319  68.4145546  18.7391400  60.6797123  17.5785160  10.6565976
  60.7833052  18.5295069  10.6231618  60.6148148  17.3122644   9.7394657
  33.8394785  50.5120564  17.0972335  33.1100798  50.6070709  16.4847124
  34.1409230  51.4073706  17.2514403  16.7368615  43.5029984   8.1418556
  16.3182676  42.6591635   7.9717135  16.4631212  43.7313652   9.0301949
  15.6500995  13.3421659  24.3231273  16.4380181  13.8765240  24.4225121
  15.4196572  13.4250200  23.3977818  21.2651253  62.2684669   4.7978023
  21.6251183  61.3819981   4.7693250  21.8979859  62.7996159   4.3144822
  35.2507186  72.1461010  26.3860893  35.4994321  71.2390661  26.5640187
  35.5531883  72.3064518  25.4922032  52.9872704  16.9406927  31.5202355
  53.7410784  17.2824216  32.0010948  53.2732487  16.9241703  30.6069016
  74.5660067   8.5976017  15.7953715  73.9847898   9.2883271  15.4770684
  74.0510654   8.1380093  16.4585781  19.6145320  44.9947548  19.3151534
  20.4698420  45.3753424  19.5147336  19.0287554  45.3615284  19.9774039
   8.8857561  55.5800915   6.1984932   8.5616302  55.0442505   6.9224030
   8.4837615  55.1974821   5.4185939  22.0221734  68.8920927  32.3010087
  22.8710723  68.6733961  32.6854205  21.9549489  69.8424196  32.3937154
  33.6837220  39.3344116  64.0660667  33.9832568  40.0047827  64.6801615
  32.8495526  39.6678662  63.7356043  55.3350115   6.5196949  33.4438753
  54.5024204   6.8690413  33.7616515  56.0000992   7.0564485  33.8749075
   2.2675206  46.4867020  35.5396461   1.9230747  46.6894293  36.4094114
   2.6661929  45.6217766  35.6355429  14.1904569  22.8881526  57.5659370
  13.7106907  22.4121928  58.2438183  13.7424505  22.6609516  56.7511368
   2.0929448  30.0845385  37.0572186   1.3926977  30.3826952  37.6377249
   2.6932469  30.8282328  37.0044374   3.7873062  30.0339413  31.6831112
   3.1143305  30.2321672  32.3342967   4.5030284  29.6480846  32.1881747
  61.0734606  63.7409544  24.6117806  60.3875351  63.7178469  25.2790165
  60.6698036  64.1895008  23.8687491  41.2049198  72.6716995  27.1282959
  42.0833445  72.3065376  27.0221829  41.2826490  73.2707405  27.8708172
   1.7841877  20.8400369  26.8110132   1.0771690  21.4825559  26.8704128
   2.5837091  21.3515520  26.9349146  43.4662533  44.6412373  10.1898849
  43.4032679  45.4181623  10.7454467  43.8513374  44.9608421   9.3739235
  61.9266748   4.3113360  18.0086827  61.0338974   4.0215802  18.1963587
  62.2474289   4.6544731  18.8427126  79.0319347  16.8629491  16.9078994
  78.4299660  17.0109618  17.6372540  78.5004377  17.0088291  16.1252975
  58.9351320  72.3711395  54.3326616  59.1962290  72.4376440  53.4141636
  58.2211494  71.7335987  54.3331432  26.1954975  70.7661390  57.0761633
  25.5054617  70.1039267  57.1156502  25.8842134  71.4706039  57.6445484
  40.1964140  65.6128263  18.7464595  41.0984707  65.2941990  18.7148488
  40.1133680  66.0112906  19.6128094  14.6899736  41.3639116  16.0838938
  14.6473765  42.0992565  15.4725981  15.1030469  41.7272425  16.8672144
  12.6297891  46.2712097   4.0978125  13.2054150  45.8992195   3.4296003
  11.8795598  46.6073465   3.6075041  72.6437712  12.7955461  49.5185947
  73.4114122  12.3914218  49.1140699  72.0715904  13.0127048  48.7826014
  57.9571772  11.6094565  32.6363754  57.5428343  11.9992650  31.8665671
  57.7698326  10.6737804  32.5612235  52.0211363  64.0069056  39.7012329
  51.2366772  63.4615183  39.7596359  52.5532722  63.7422132  40.4515648
  23.6853099  12.9536593  47.3656321  23.2386589  12.5015116  48.0813789
  23.0184984  13.0411994  46.6845083  38.3603191  33.1570911  60.9667397
  38.1239820  32.9953647  60.0533819  38.1066895  34.0668774  61.1222839
   2.7049065  50.5159950  19.8301089   2.9130968  49.5896006  19.9512458
   1.8649355  50.6327486  20.2740121  26.7852330   9.2504990  38.4149623
  27.2415400   9.9618149  37.9654670  27.0893955   8.4559202  37.9763722
  16.8579865  35.5126739   7.0465589  17.6586914  35.0074434   7.1874380
  16.7816126  35.5800152   6.0947901  64.9992657  27.2440100  14.8719501
  65.0639009  26.8484807  14.0026903  65.8522511  27.6551294  15.0120533
  70.9054518  19.3517256   4.2709303  71.1004305  18.5704291   4.7884151
  70.3176641  19.0420604   3.5818407  62.2169447  24.0733981  14.1883433
  61.3679266  23.8464355  14.5676756  62.1821260  25.0231409  14.0742886
   6.0882616   0.9516453  21.0958099   5.8800232   1.8158619  20.7408500
   6.2331873   1.1047818  22.0295024  18.4173548   7.6051939  46.0785437
  18.9331138   6.9258952  45.6440544  17.9068673   7.1339476  46.7369986
   1.8262708   8.4594923  38.0398989   1.0510372   7.9386538  37.8302050
   2.1638939   8.7396526  37.1891618   9.9783856   2.6909909  29.6847796
  10.1873636   3.4140608  29.0934014   9.2394078   2.2471631  29.2686558
  47.4695301  41.6319847  62.1770954  47.2256327  41.2723637  63.0299854
  46.6650915  42.0321608  61.8469858  27.9604554  28.2890248   6.3003802
  27.2494316  28.3251858   5.6605601  28.7356091  28.5680962   5.8130550
  35.5029058   8.7757981   2.5390041  35.8595371   9.3025118   1.8237281
  36.0759592   8.9624053   3.2826570  71.8264198  53.8537836  15.4779649
  71.2737322  54.0469646  14.7206998  72.7000046  54.1458750  15.2176440
   4.9900302  54.8942757   2.2342175   5.2396172  55.3875923   1.4528245
   5.7890511  54.8581743   2.7600446  68.8035440   8.2931989  52.8749752
  68.4077883   8.0313700  53.7062740  69.7028351   7.9692000  52.9252672
  12.8897059  25.8081293  44.0133476  13.3409870  26.3682103  43.3817720
  13.5570884  25.1849771  44.3005991  39.6152520  63.2130814  47.0514488
  38.9550543  63.3526802  47.7303314  39.6508479  64.0439510  46.5775108
  37.1071410   9.7550023  22.7559471  36.7544150  10.1459956  23.5552859
  37.6221848  10.4546690  22.3541689  28.3309484  27.6404786  30.4720259
  28.5812449  27.4552250  29.5668936  28.9926410  27.1934271  30.9997916
  20.4264855   5.4777580  53.9728403  20.2257776   4.8056638  53.3215046
  20.1492119   5.0950062  54.8052168  66.6011858  25.0687718  60.7839584
  65.7392263  24.6793890  60.9310436  67.0734119  24.4166565  60.2662945
   4.6310008  42.5326157  60.3416586   4.3372104  41.6320467  60.4791117
   5.1315510  42.7441645  61.1296511  30.7905817  60.2354527  63.9615726
  30.3226304  60.7578802  63.3101702  31.3045049  59.6139908  63.4459209
  15.3884983  11.1645842  47.2808599  15.3138483  11.4847970  48.1798124
  15.3022420  10.2143359  47.3571491  64.0579081  48.9821529  52.7534437
  64.2555952  48.6810732  53.6402941  63.6174631  48.2391691  52.3408747
  23.8451099  47.3626852   1.4441822  23.1264901  47.2435713   0.8231901
  24.1937733  46.4814854   1.5789120  21.4743924   1.7748655   3.6912307
  21.4833403   2.5609329   4.2373532  21.6468287   1.0575392   4.3010995
  20.1037884  34.9966240   7.4460286  20.5485749  34.2163110   7.1151072
  19.8539793  34.7683167   8.3414072  75.7012320  27.0267916  40.9277105
  75.6301594  27.7815056  41.5121603  76.3227749  27.3030949  40.2542305
  24.3250346   5.9384698  30.8686686  24.8534155   5.3729099  31.4318609
  23.7808347   5.3334767  30.3646207  49.1124153  27.8669500  41.0852623
  49.0702200  28.8145471  41.2137556  48.3861256  27.6730204  40.4927063
   5.1988268  42.2127962  26.3788199   5.9807140  42.4955702  25.9045577
   4.4695953  42.5779343  25.8776927  10.7675087  34.6540380   3.1295499
  11.3416958  34.6611834   3.8953763  10.5006182  35.5669355   3.0217725
  71.6311455  54.0223169   6.4272749  71.5743399  54.8347950   6.9301498
  71.4101505  54.2788363   5.5319601   8.5327518  38.5137939  11.0473382
   8.4215367  37.7191710  10.5253828   8.3726960  39.2290807  10.4317272
   3.5621592   1.8186611  57.0082569   3.4526050   2.2798568  56.1766720
   3.8895878   0.9538095  56.7611647  30.7041669  71.3287878  62.6149416
  30.9538436  70.5543709  63.1190968  31.5291357  71.7876291  62.4564505
  66.7595053   1.5906715  62.7404976  66.7833042   2.5108770  63.0029583
  67.0908403   1.1155999  63.5025692   0.7631086   8.3141655   5.2443862
   1.2669279   7.7050674   5.7841986  -0.1408098   8.0079401   5.3177989
  23.5159636  41.2181902   0.1605589  24.0017748  41.9660521   0.5082906
  22.7294517  41.6025639  -0.2265922  32.6949382   2.4532223  19.6391869
  32.0564628   1.8807207  19.2139518  33.0957818   2.9410246  18.9197385
  32.3083019  30.8816051  43.2456207  32.4942780  30.3839302  44.0418386
  33.1708527  31.1038685  42.8951406   1.0206114  70.4772520  43.9040518
   1.0345076  71.3248014  43.4594202   0.3395652  70.5675840  44.5705748
  70.4258442  30.7609272  17.1799350  69.6801710  31.3603091  17.2107124
  71.0865831  31.2267542  16.6674316  75.1340151  22.0990705  15.5511785
  74.3733072  21.8216133  15.0407195  75.3182840  21.3581014  16.1284482
  21.9505453  23.9453244  12.1523046  21.3985419  23.8330412  11.3784075
  22.1303296  24.8849559  12.1839797   4.1272673  24.1682029  13.3319712
   4.4641060  23.3339715  13.0051231   4.8894021  24.5991945  13.7187898
  51.3523102  58.8155985   7.9195392  50.9279823  58.5467339   7.1047455
  52.0247936  59.4389915   7.6449889   6.4167500  56.6312933  13.1889379
   6.7316514  56.5359783  14.0878177   5.4696810  56.7386675  13.2770562
  71.5512466  29.9596810   4.5180756  71.6078234  30.2199101   3.5986668
  71.5957451  30.7835484   5.0033569  16.5891850  11.6464734  60.6002665
  16.5540087  11.7673886  61.5491486  15.9955406  10.9151924  60.4298353
  17.5123596   7.1978050   6.5111524  18.0885994   7.8833437   6.1731946
  17.9248047   6.3798434   6.2335563   7.6040274  13.6543810  10.2169847
   8.2536387  14.3438768  10.0797534   7.6194793  13.1459332   9.4061375
  61.5158129  14.0294445  40.7366896  61.5691042  13.1691229  40.3204727
  62.4175549  14.3505120  40.7393217  24.6894884  44.9171305   1.3217005
  24.2070794  44.2840958   1.8534705  25.6099725  44.6937275   1.4596714
  74.2206621  36.7629600  60.0305510  74.2132235  37.4169040  60.7295036
  74.5261002  35.9615445  60.4556036  25.7603645  55.4969358   7.0821971
  26.7019892  55.6561613   7.0172352  25.5916548  54.7973061   6.4510942
  74.8568535  15.1679945  57.9611540  74.2157125  15.8753371  57.8916311
  74.7383690  14.8234880  58.8463163  33.3581257  59.4185543   2.2502236
  33.9835382  59.1227531   2.9117319  32.5213170  59.4595909   2.7131489
  41.7029619  36.5293407  10.4621768  42.1941757  36.9457722  11.1703622
  41.6154861  37.2124791   9.7974187  39.4531608  45.1003790   6.3407469
  40.2301121  44.6132898   6.6151935  39.0428352  44.5436764   5.6789708
  18.6545706  53.1713009  10.4497492  18.8671148  52.5465488   9.7563952
  19.4804406  53.3022070  10.9156179  66.7503071  51.4556932   7.3707843
  67.4363470  51.0741043   6.8230873  66.7074537  50.8817148   8.1355989
  52.3150015  17.4997890  57.8528023  51.6539955  17.0431805  57.3324060
  51.8139887  18.1085646  58.3955812  11.2336087  13.4711802  10.7821953
  10.7800257  14.3069124  10.8919466  11.2191880  13.0746365  11.6532743
  33.8174534  73.9311790  28.1851768  34.4019294  73.8922977  27.4281383
  34.3851018  73.7544012  28.9353490  39.2854619   0.6029956  57.8360844
  38.7393260   1.3502954  57.5921392  40.1591492   0.8310085  57.5184107
  18.6240113  25.5539680  56.3030910  19.1498387  25.8121896  55.5460835
  19.0991473  24.8155069  56.6840839  71.2338352   1.4084329  58.5322237
  71.2180567   1.9161859  57.7209473  71.9955492   1.7401421  59.0076065
  39.2945933  64.4892311  60.6502390  38.4965420  64.1367531  60.2564049
  39.8527765  64.7092104  59.9044037  61.7504120   0.7084265  32.3844361
  62.1777916   1.4108537  31.8943644  62.4677324   0.2533778  32.8255820
  43.9451265  71.0892439  42.0824289  44.1791487  70.5782413  42.8572464
  43.0040455  70.9488106  41.9781590  64.3776655  40.9720373  52.1835661
  64.4873190  40.5849171  51.3150358  63.6466074  41.5817642  52.0834637
  72.7864504  49.7250414   5.7313931  73.4183311  49.0122080   5.6374449
  71.9340229  49.3071651   5.6090230  68.4130955  26.4125061   4.6958232
  68.5064077  26.3836026   3.7436211  67.5087166  26.6912317   4.8395026
  20.2129650  17.5163090  23.6578655  19.4193494  17.5683129  23.1252265
  20.9111190  17.8200185  23.0777144  37.9701090  65.3010559  63.6397791
  37.5616074  65.8495283  62.9700518  38.8542271  65.1394367  63.3104706
  25.9806609   8.3087146   0.3967033  25.1907063   8.5138011  -0.1034386
  25.8591366   7.4008948   0.6747801  10.1041055  68.5347414  18.7686813
  11.0189199  68.4688330  19.0425432   9.9853879  67.8107691  18.1538653
  21.3770318  60.0532198  12.6902390  21.5729213  59.4822168  11.9473994
  20.8591223  60.7653427  12.3148954  32.1883154  51.1467648  21.2180209
  32.2871423  51.7815971  20.5084777  32.9738426  51.2611628  21.7528963
  67.0679617  31.2654519   1.1537720  66.1379147  31.4524961   1.2812705
  67.3896599  31.9977570   0.6279685  16.4701724  45.3672028  18.4488010
  15.7744527  46.0051870  18.6074901  17.2391772  45.7389927  18.8808179
  47.2238445  21.5576077  11.5355062  47.9343510  21.0530567  11.1394799
  46.6135406  21.7175770  10.8156645  58.3002949  16.2824798  43.5223103
  59.0260410  16.8373275  43.2365322  58.7204266  15.4827332  43.8387442
   2.8825697   5.1607496  48.6158943   2.2570762   4.4362822  48.6275816
   2.3465984   5.9421402  48.7515259  70.5382299   2.7066007  20.4463673
  70.5005503   2.9544511  21.3701534  71.2890244   3.1885111  20.0995207
  73.9492893  11.5801811  60.0900841  74.7431374  11.3490379  60.5723763
  73.3578062  11.9304562  60.7561779  22.0560408  70.8897209  13.5743833
  21.4762330  70.6823206  12.8415525  22.5351167  70.0773668  13.7380946
  15.9631896  64.3384266  30.9638810  15.4807186  63.5123491  30.9315515
  15.2865112  65.0132799  30.9099221  76.1205435  32.6924968  33.0532146
  76.5735388  32.1215582  33.6737442  76.6881895  32.7069068  32.2826266
  75.8300543  33.2776237  20.3497171  76.3004017  33.0589104  21.1541843
  75.0546360  32.7166367  20.3655791  34.5868134  39.6457291   6.3871908
  33.8334250  39.0615082   6.3016045  34.8092866  39.6149468   7.3176694
  34.9442482  27.8632498  24.1604710  35.5561662  27.1952367  24.4695854
  34.4362211  28.1001234  24.9363780  24.7225738  64.4864750   6.8171597
  24.2658377  64.5881653   5.9821248  25.6230521  64.7528267   6.6316164
  55.3051186  12.0824385   6.9635510  56.0176992  12.4588799   7.4800301
  54.7888374  12.8375459   6.6815996  76.9530964  61.1413193  56.6042709
  76.8089104  60.9492588  55.6776905  76.1567831  60.8360100  57.0388985
  13.6334884  33.9025807  28.7020493  13.9843607  33.0120254  28.6965084
  13.8837647  34.2533064  29.5567918  58.7058926  18.5699487  64.8950243
  59.5601130  18.1981194  64.6753073  58.1138325  18.2196462  64.2294550
   2.9047036  59.7938061  46.8635607   3.2588536  60.4973269  47.4074984
   3.6666217  59.2617464  46.6341639  24.1804981  57.6845360   7.1304935
  24.6418166  56.8476152   7.0759207  24.7680521  58.3099842   6.7064345
   9.6384156  72.2405672  21.8275118   9.7824579  71.9402695  20.9301257
   8.9610869  72.9124022  21.7494488  19.1891932  38.3092427   3.6712936
  19.4737184  39.1450477   4.0410295  18.8039923  37.8389859   4.4106919
  31.9697285  58.0260181  19.8714745  32.4443150  58.8210487  19.6287310
  31.0501742  58.2373381  19.7102463   4.5705742  30.4817486  60.3254080
   4.9675182  29.6107602  60.3323412   3.7781820  30.3880525  60.8541489
  74.2717123   4.6632501  64.2936182  73.7650728   3.8706720  64.4707394
  73.9434528   5.3034389  64.9249935  10.3235626  46.7933989   2.4852706
  10.0334394  47.2168446   1.6773398  10.5127573  45.8909988   2.2281361
  38.9271951  10.8330035  62.7551079  39.6722674  11.3794506  63.0050993
  38.8543725  10.9462929  61.8074322  23.1247568   4.5403624  54.4100523
  22.2609138   4.9037212  54.2151690  23.1598282   3.7247473  53.9102793
  44.0404987  70.0975704   9.8940599  43.7931299  69.2024183  10.1258934
  44.7872448  69.9945498   9.3041509  32.1516585  40.2417517  18.4362459
  31.4843583  39.5555925  18.4249902  32.7803493  39.9754691  17.7653718
  19.5643818  21.9371867  27.0308113  19.3085933  22.5863528  26.3755369
  20.4501557  21.6773915  26.7775440  28.2047415  43.9136648  12.5927520
  28.5244536  43.1641388  13.0949724  27.3497224  43.6350775  12.2647882
   1.1492816  13.0126143  10.1968992   0.5783850  13.2937014   9.4818473
   2.0125519  12.9232442   9.7931546  37.1078897  45.4838228   8.0418956
  37.1632552  46.0794020   8.7891895  38.0185533  45.3292084   7.7908647
  13.1414819  68.5558701  19.5696461  12.8657496  68.4710598  20.4823399
  13.2917809  67.6559353  19.2802370  28.7122965  40.7259274  21.3299036
  29.0842032  41.5914583  21.1602783  29.4549036  40.1268864  21.2529707
   3.3180091  41.5003824  44.4736195   2.8985354  40.6449318  44.3815517
   3.0715185  41.9747114  43.6795902  52.7212524  60.2398872  34.1310835
  52.5117970  60.4961681  35.0292373  52.8241825  59.2890787  34.1711354
  48.7660646  72.0554829  19.2436647  49.3332338  71.7002249  18.5593104
  48.0916882  71.3873959  19.3665850  40.7335234  66.9034815   2.1637309
  40.7757616  67.0263338   1.2153872  40.7760382  65.9548807   2.2844890
  37.2932577  55.3266621  13.4077930  36.5061426  55.2273893  13.9433563
  37.5038362  54.4369888  13.1242979   2.1679318  41.3296127  26.4550781
   1.9300959  40.7127237  25.7628942   1.3885029  41.3809776  27.0083261
   4.2334297  25.9190083   1.1768989   5.0724286  26.1685419   0.7895419
   3.8036719  26.7512727   1.3740642  48.2094336  20.8894897  56.3683414
  48.6144876  21.5638494  55.8229923  47.6789999  20.3756595  55.7593679
  12.7330565  55.9154320  24.4040537  12.0893729  55.2477646  24.6409631
  13.4812236  55.4195309  24.0715480  73.5030222   5.8276361  29.7576809
  73.9236546   5.6192821  30.5918813  73.6167765   5.0382745  29.2283416
  48.6581469   2.2589087  44.6682262  47.8399420   2.3862903  45.1483774
  48.4309578   2.4386747  43.7559175  61.9091797  24.3382764  32.2772455
  61.2605619  24.9497366  32.6260209  61.4017630  23.7344360  31.7349029
   9.0294707  31.0394764  18.1047022   8.2328761  31.2609768  18.5869956
   8.7489486  30.9846973  17.1911716  25.4297996  46.5760183  20.7442284
  25.6630898  47.2060728  20.0624371  24.9233198  45.9047842  20.2868938
  33.2385874  14.0626287  11.3511050  33.8594866  13.3435929  11.2340474
  32.3803282  13.6389029  11.3600075   8.2141554  47.9212666  12.4721491
   8.2053488  48.6565781  11.8593895   8.6963427  48.2481813  13.2316589
  67.2448778  71.6990042  52.2074032  68.1573057  71.9844866  52.2543335
  66.7467213  72.5076628  52.0884752  23.1344032  45.2073812  29.3826199
  23.6814904  45.9874344  29.2907262  23.1723571  44.9967670  30.3155899
   6.9703126  26.8057203  47.8434229   6.3407028  26.6837883  48.5540295
   7.1330750  25.9220815  47.5133848   8.5231191  43.9482689   4.5543039
   9.3649268  44.1090727   4.9806073   8.3296686  44.7632837   4.0910953
  63.8701433  35.4805707  65.2762043  62.9852926  35.1259899  65.1893577
  64.0193623  35.9550666  64.4583912  21.0449600  15.2759564  30.6143284
  21.2186098  14.7580731  29.8282790  20.3976583  15.9238935  30.3361011
  71.1704206  62.7554893  62.6124573  71.1226940  63.6906767  62.4140215
  71.7677069  62.4010563  61.9537783  64.9277163  29.0259480  57.5780344
  64.4718933  29.7117615  58.0660057  65.1422691  28.3655047  58.2368279
  74.9784327  46.4506292  50.4480171  75.2371311  46.6096020  49.5402527
  74.4511652  45.6526184  50.4105568  25.9740257  52.7667236  21.7638874
  26.6518426  53.0047512  21.1313224  25.8676696  51.8215084  21.6566801
  65.5156994  47.9530859  54.8864460  65.3822565  47.3561573  55.6227207
  66.2731647  47.5959778  54.4228220  16.2776291  37.7571726  56.0926914
  16.4639235  36.8353820  56.2710905  16.0213757  37.7756405  55.1706171
  18.2831514  62.1896124  39.5210385  17.7772450  62.8335667  40.0166368
  17.9887176  62.2982359  38.6167479  42.7230501   3.0805060   4.1967309
  43.0613089   3.7777716   4.7585425  43.1552410   2.2871685   4.5130521
  70.9486437  41.0429382  45.4751921  70.3500414  41.7892694  45.5051613
  71.4986897  41.1457443  46.2517977  38.0594611   6.6035646   6.8774235
  37.6300287   6.0034728   7.4871022  37.4371600   6.6983074   6.1563158
  10.6938195  33.1703329  50.0991392   9.8883706  32.6910067  49.9048901
  11.3112259  32.8839135  49.4260836  51.6392994  53.7272835   8.4916598
  50.8891153  53.7185621   7.8972012  51.7388296  54.6468067   8.7382340
  13.2044041  52.1615410  52.3803997  13.7066817  52.8212023  51.9020796
  13.3153248  51.3594246  51.8699646   4.8416689  62.1022606   3.4785387
   5.0168592  61.2464333   3.8698170   5.6881702  62.5489378   3.4906030
  18.4639072  56.0119915  13.8273001  17.9013968  55.7395077  14.5522594
  18.6346257  56.9393158  13.9920712  15.7267308  35.1909828   9.5256954
  14.9870336  35.6306291   9.9449694  16.0042429  35.7940555   8.8361138
   9.9687457  55.6153631  22.0847225   9.5085818  56.4520979  22.0187140
   9.3886888  55.0637722  22.6096177  24.7087836  67.3302746  48.9114618
  25.4773569  67.2290325  48.3499670  24.2774892  66.4762068  48.8834095
  32.8539324  63.4233093  53.3897734  33.4410930  62.6866198  53.2201767
  32.5836921  63.3093643  54.3009329   3.5893923  13.7089872  51.4525366
   3.6089754  13.5638726  50.5066061   3.4426060  14.6500885  51.5474892
  56.9174814  73.4031487  31.8384385  56.5106392  72.5715923  32.0817995
  57.6292515  73.1576443  31.2473869  23.5963750  24.7863817  29.0271735
  24.1515279  24.0238667  28.8640523  24.2122817  25.5064821  29.1626191
  47.0540428  51.2837744  55.9681892  47.4745655  52.0535278  56.3514280
  47.0634174  50.6318855  56.6690350  70.1320982  34.1446376   5.4102141
  69.2867422  34.5678091   5.2601051  69.9089432  33.2632160   5.7094312
  12.2116935  12.6674914  55.5656862  12.0528090  12.2951674  54.6983004
  12.5979972  13.5256529  55.3908730  58.1607389  24.5011735   0.8747231
  57.5853586  24.4394684   0.1122533  59.0335703  24.6364164   0.5057966
  18.5725105  42.2162056   2.4592687  17.9981935  42.9776716   2.3782748
  18.0914736  41.5069628   2.0328759   1.7170875  12.3184061  39.4889712
   2.1341625  12.4316359  38.6348867   1.7135224  11.3716805  39.6301484
  35.4020476  74.1841745  45.7455540  36.0922861  73.7136316  45.2782297
  35.3310323  73.7322044  46.5863323  21.6069412  55.8576250   7.8148258
  20.9876466  56.5176249   8.1264472  22.3757219  56.3594913   7.5440186
  35.8447313  44.0782404  15.4980671  36.5100884  43.4531975  15.2102315
  36.3030744  44.9179411  15.5306339  77.4966240  13.2843637  30.3472877
  77.4810791  12.4587393  29.8632073  78.2069921  13.7843704  29.9452925
   0.5191754  39.2514753  15.3837609   1.3912699  39.0411735  15.0499105
   0.2335596  38.4528589  15.8274579   2.5192434  47.2765064   4.4065240
   2.2962256  48.1118631   3.9958331   1.8011470  46.6915464   4.1648769
  73.6968470   1.2963617  48.8246918  72.8749990   1.7729008  48.7076139
  73.6650753   0.5994568  48.1692934  11.7249453   0.5319194  44.0990400
  10.8465171   0.2280828  43.8703966  11.6349757   1.4808728  44.1863632
  26.6220689  11.7283356  28.7766623  26.6697264  11.0488892  29.4492054
  25.8425021  12.2354221  29.0033102  10.8522820  59.4441795   2.1320249
  11.1498523  58.8925886   1.4085385  11.6529787  59.8392725   2.4770135
  74.1600561   5.6581193  46.7032957  73.3797455   5.5100065  46.1690569
  74.6554899   4.8419580  46.6350698   6.5954185  51.5833569  26.7351580
   6.5671629  52.2995663  26.1007476   7.0874202  51.9384384  27.4754858
  54.3352985  30.0641179   0.9160084  55.0552940  30.2768588   1.5097915
  54.6657753  29.3357849   0.3901307  75.4555702  46.3111734   3.7513852
  76.0397768  46.8581533   4.2765009  75.2487946  45.5683613   4.3185788
  24.9653935  31.3150382  63.3058310  24.9082088  31.2374926  64.2581701
  24.1279936  30.9780288  62.9873705  13.9250505  37.7628636  57.5886154
  13.5320330  38.6355591  57.6018715  14.6606886  37.8406835  56.9811535
   1.7051113  10.5977511  17.1634030   1.8944333   9.8492223  16.5976346
   1.3318446  10.2109766  17.9554307  36.8052840  52.4940109  12.9679275
  36.0452580  53.0093098  12.6976228  36.4337945  51.6818523  13.3123469
   5.1998705  38.5897183  51.6749573   5.5570769  37.7065229  51.7677021
   4.3356723  38.4588027  51.2847567  30.4212713  24.6496391   1.7737916
  29.4732308  24.6676755   1.9046672  30.5305815  24.5245934   0.8311112
  77.2924805  30.6907988  17.4164903  76.5231800  30.4955173  16.8814504
  77.7611828  29.8582506  17.4749374  70.5327988  31.1736870  26.8612194
  71.1542892  31.8959403  26.7699075  71.0484982  30.3890085  26.6752958
   7.4967343  57.8944492   0.8237633   6.7581463  57.4420643   0.4162489
   8.2710332  57.4800539   0.4430159  30.8663058  74.9826956  23.5743237
  31.2700462  75.7716084  23.2125974  31.4118385  74.2651844  23.2521486
   3.5451165  27.0605779  56.6011095   4.3751568  27.1860600  57.0610189
   3.6288339  26.2022853  56.1857080   6.6468501  69.1361427  10.7675934
   6.5409541  68.4595871  11.4363885   7.0843112  69.8559713  11.2222469
  10.2695429  59.7516012   9.7687238  10.8221221  60.1661396  10.4313290
   9.4153988  59.6616507  10.1913106  76.3760853  64.9268579   1.0804816
  76.5057564  64.0851831   0.6434460  75.5004787  65.2042484   0.8110417
  17.9809129  42.1013927  27.6059365  17.5736928  41.2608051  27.8152514
  18.8814282  42.0158243  27.9189587   7.6758784   5.2824825  46.8063068
   8.3027792   4.7811705  47.3277617   7.9710239   5.1691151  45.9028339
  70.0125599  47.9931068  55.6747103  69.9753189  47.0478868  55.5284214
  70.2145004  48.3608484  54.8143530   4.4946319   0.7216889  17.0106661
   5.3900701   1.0542676  17.0724201   3.9874691   1.2902430  17.5901175
   3.2306644   5.7951075  42.5331020   3.0951515   4.9376127  42.9363060
   4.1410559   6.0127145  42.7332687  45.7331467  49.9222469  13.3223808
  45.6898832  49.5594692  12.4376464  46.1457253  50.7786465  13.2101798
  78.9153576  72.1427011  26.7942119  79.8688364  72.1187210  26.7133737
  78.6814880  71.2768412  27.1286201  13.1251705  45.9379053  17.5968802
  13.2789481  45.0281429  17.3420918  13.1872320  45.9328890  18.5520530
  68.4857082   3.3832067  60.8259726  67.5429201   3.5347110  60.7594776
  68.7979221   4.0709364  61.4140081   3.4213459  49.6791267  55.8845949
   4.0690652  50.1786423  56.3817644   3.1315851  50.2795315  55.1977301
  69.5975637  74.6196842   6.2404782  68.9004278  74.0257072   6.5187323
  69.5136738  74.6577930   5.2877229  42.8352737  67.6619005  10.8062863
  43.2516193  67.1294737  11.4840865  41.9809437  67.8905630  11.1724412
   3.7986198   3.1433478  31.2870169   4.6591866   3.3142042  30.9043097
   3.8861769   3.4102058  32.2020864  66.9645560   0.2349285  25.9904981
  66.8882573   0.6047061  26.8700838  66.8798984  -0.7097336  26.1196470
  16.3251543  54.2747641  63.6290121  16.5536785  53.9190865  62.7702332
  15.4136634  54.5526075  63.5383511  56.7574453  14.7621810  10.2435291
  56.6583443  15.4736304  10.8761835  57.5514936  14.3047023  10.5199850
  52.5776768  10.4320133  10.6562150  52.6144886  10.6284416   9.7201097
  52.7549171   9.4929647  10.7110476  39.3749952   7.2468054   3.8933432
  39.3050694   6.4563709   4.4286525  40.1469803   7.0986581   3.3471537
  13.4804809  25.3060174  39.7232294  14.0602815  25.2837992  40.4845238
  13.1506693  26.2042880  39.6994805  37.7465725  27.4263263  27.0791149
  37.0648766  26.7734003  26.9203377  38.5671115  26.9394755  27.0021367
  51.0881233  31.4738131  64.7015095  50.8523130  31.1017179  65.5513144
  50.5897284  30.9580660  64.0676022  61.4734983   0.6191364  42.6823902
  60.5966377   0.8586489  42.3824263  61.3352871   0.2465851  43.5532188
  45.4403162  58.8924885   1.6650963  46.1099052  58.2261848   1.8197663
  45.3094339  58.8849401   0.7169162  60.4438496  18.4700894  61.5481997
  59.9704456  18.0695033  60.8190536  60.3511238  17.8443587  62.2665977
  31.8763709  69.4206381   8.0177552  31.0055780  69.0644264   7.8414971
  32.0408988  69.2075300   8.9363122  64.6784067   4.9677458  24.9344230
  64.3013525   5.7555962  24.5428181  65.5111408   5.2596492  25.3053379
  77.9218674  32.4814606  51.1886692  77.1187830  32.3330569  50.6894064
  78.5633564  31.8927455  50.7910061  47.6771832  73.9870644   4.0899739
  48.2446241  73.9164543   3.3223456  47.6071978  73.0910349   4.4193214
  61.8246508  10.4078102  50.4918718  61.3695145   9.5930248  50.2792501
  62.5164413  10.4745150  49.8336840  13.7846196  24.3087149   3.5195035
  12.9820383  24.5046568   4.0029299  14.4582379  24.2309928   4.1950995
   2.7480370  61.8192434  57.9461336   2.8975254  61.7072535  58.8849354
   2.6302671  62.7624321  57.8331947  72.2718096  72.6479292  25.3794050
  71.3908625  72.8964758  25.0994229  72.7844381  73.4523153  25.2993655
  16.8960702  22.8738332  38.1918383  15.9480965  22.8623605  38.3239245
  17.0481336  22.2384071  37.4923086  77.7375078   5.2599901  30.5843544
  78.4686279   5.7576078  30.2181935  77.8599834   4.3721014  30.2483702
  17.3977840  55.7720327   4.7590247  16.6993201  55.8017349   4.1051915
  17.0573151  56.2785959   5.4963887  12.3887587  15.8589089  58.9114666
  11.7781961  15.8362472  58.1746292  12.5717390  14.9383283  59.0992975
  30.5248713   3.3650008  54.5127535  30.0597286   2.6216012  54.8964596
  30.8339739   3.8686574  55.2657604  55.5779648  48.1702042  47.4700785
  56.1156654  48.5102320  46.7548895  55.9338856  48.5854530  48.2556486
  29.6655202  19.4934821   1.3056804  30.2722836  19.9651802   1.8762659
  29.7415876  18.5792303   1.5787929  32.6745343  23.2493567  43.5246897
  33.5130334  23.6368704  43.2737207  32.0941710  23.4355116  42.7866125
  25.1360566   0.1191333  49.5179749  25.1559693  -0.6385037  48.9333200
  24.2877966   0.5293992  49.3495560  46.2389278  66.2434387  17.1498954
  46.8793440  65.5475855  17.0019543  46.6596889  67.0326614  16.8088305
  28.4216046  57.9547405  19.9122477  27.6158762  58.4530735  20.0489855
  28.2897711  57.5114918  19.0741646  79.0791321  26.3619423   1.6116339
  78.2583427  26.0905337   2.0225702  79.4000292  25.5734825   1.1739264
  13.8880563  48.7290764   4.6772876  13.6930060  49.6484137   4.8589662
  13.1792939  48.4432220   4.1009420  20.9064269   9.0450788  40.3580379
  21.2616467   8.1629586  40.4671955  20.2855158   9.1442513  41.0797501
   9.2605752   7.8041023  32.4600863  10.0573313   8.2509643  32.7459621
   8.5922056   8.4892380  32.4499631  67.1044207  17.0638251  16.2627697
  67.6117706  16.3137937  15.9524739  66.6617012  16.7446923  17.0491457
  78.7059975  42.3800039  22.7727866  79.2918062  42.9111385  23.3121872
  77.8354597  42.5371742  23.1384277  17.6377130  22.9811001  63.9464474
  17.9943013  22.7271390  63.0952215  17.8452516  23.9122295  64.0249157
  67.6770687  32.3025966  32.9960346  67.3916101  31.3968801  33.1161261
  68.2874393  32.2657061  32.2596121  17.2075295  37.1044183  52.0584249
  17.1101904  37.6632404  51.2874031  16.3099849  36.9019270  52.3223209
  79.5924813  79.5924813  79.5924813 109.4712190 109.4712190 109.4712190
